 Gaussian 09, Revision D.01,
 Gaussian 09:  ES64L-G09RevD.01 24-Apr-2013

 --------------------------
 # td=(NStates=1) B3LYP/SVP
 --------------------------

 --
 TD
 --
 Symbolic Z-matrix:
 Charge =  0 Multiplicity = 1

                         Standard orientation:
 ---------------------------------------------------------------------
 Center     Atomic      Atomic             Coordinates (Angstroms)
 Number     Number       Type             X           Y           Z
 ---------------------------------------------------------------------
      1          6           0       -5.111238   -1.908011    0.451169
      2          6           0       -4.855957    2.816402    1.499050
      3          6           0       -9.333564    3.307744   -0.328089
      4          6           0       -9.822874   -1.478218   -0.757596
      5          7           0       -5.162599    0.449139    0.751793
      6          6           0       -4.446272   -0.681836    0.715745
      7          6           0       -3.026068   -0.504411    1.109342
      8          6           0       -3.133457    0.849717    1.768066
      9          6           0       -4.429141    1.535378    1.259505
     10          6           0       -3.064738    0.947098    3.198838
     11          6           0       -2.054877   -0.588721   -0.074998
     12          6           0       -0.584192   -0.784719    0.419046
     13          6           0        0.368532   -1.097499   -0.717313
     14          8           0        0.025438   -1.602860   -1.829475
     15          8           0        1.633136   -0.731615   -0.328018
     16          7           0       -7.077878    2.792851    0.399636
     17          6           0       -6.051189    3.448770    0.992699
     18          6           0       -6.341049    4.852312    1.052471
     19          6           0       -7.599943    4.991797    0.550903
     20          6           0       -8.089175    3.610033    0.145138
     21          6           0       -5.356286    5.979215    1.445805
     22          6           0       -8.305115    6.199430    0.317221
     23          6           0       -9.136847    6.486033   -0.764847
     24          7           0       -9.194706    0.799128   -0.408843
     25          6           0       -9.828764    2.026936   -0.636833
     26          6           0      -11.233627    1.777178   -0.974577
     27          6           0      -11.445575    0.408358   -1.092088
     28          6           0      -10.170754   -0.128185   -0.758086
     29          6           0      -12.399156    2.889361   -1.012120
     30          6           0      -12.674697   -0.359555   -1.452619
     31          6           0      -13.073954   -0.584136   -2.974064
     32          7           0       -7.562172   -1.311751   -0.049799
     33          6           0       -8.646556   -2.122090   -0.490389
     34          6           0       -8.210765   -3.484517   -0.461972
     35          6           0       -6.849860   -3.469170   -0.037092
     36          6           0       -6.423118   -1.996382    0.087804
     37          6           0       -9.003706   -4.752449   -0.631713
     38          6           0       -5.660748   -4.237969    0.081807
     39          8           0       -5.573050   -5.471099   -0.011627
     40          6           0       -4.489699   -3.257666    0.333226
     41          6           0       -3.786332   -3.659216    1.634203
     42          8           0       -4.001631   -3.283057    2.721061
     43          8           0       -2.825341   -4.689867    1.403643
     44          6           0       -2.357098   -5.397750    2.513984
     45          6           0        2.731991   -1.065169   -1.201340
     46          6           0        4.051562   -0.816038   -0.570425
     47          6           0        5.004783    0.044808   -1.052324
     48          6           0        4.843090    0.922740   -2.315946
     49          6           0        6.256970    0.181598   -0.233626
     50          6           0        7.502553   -0.274714   -0.993617
     51          6           0        8.816295   -0.135014   -0.195502
     52          6           0       10.060452   -0.866232   -0.825311
     53          6           0       10.065838   -2.415131   -0.847417
     54          6           0       11.328180   -0.269820   -0.113155
     55          6           0       12.626662   -0.581945   -0.667978
     56          6           0       13.785762    0.095097    0.107343
     57          6           0       15.288368   -0.207896   -0.336991
     58          6           0       15.826705   -1.575979   -0.091312
     59          6           0       16.198300    0.952283    0.324301
     60          6           0       17.709137    0.746747   -0.117341
     61          6           0       18.675863    1.681129    0.621555
     62          6           0       20.173337    1.522963    0.262487
     63          6           0       20.311151    1.873988   -1.251087
     64          6           0       20.936519    2.464967    1.199568
     65          1           0       -4.095741    3.549475    1.926540
     66          1           0      -10.112345    4.186117   -0.273219
     67          1           0      -10.577511   -2.222389   -0.973088
     68          1           0       -2.583425   -1.076090    1.933923
     69          1           0       -2.083176    1.444475    1.442147
     70          1           0       -1.990334    0.659693    3.562593
     71          1           0       -3.603742    1.942509    3.522602
     72          1           0       -3.643738    0.133512    3.716205
     73          1           0       -2.285380   -1.682470   -0.592807
     74          1           0       -2.123551   -0.011390   -0.916379
     75          1           0       -0.129848    0.043671    0.978848
     76          1           0       -0.410194   -1.588113    1.159334
     77          1           0       -4.292342    5.738889    0.730258
     78          1           0       -5.609104    6.999071    1.536826
     79          1           0       -5.144169    5.708801    2.564403
     80          1           0       -8.141896    7.059708    0.882307
     81          1           0       -9.447353    5.723927   -1.505748
     82          1           0       -9.476806    7.539741   -1.091107
     83          1           0      -12.570567    3.382159   -0.012114
     84          1           0      -11.975122    3.691569   -1.588479
     85          1           0      -13.376379    2.664435   -1.351493
     86          1           0      -12.452337   -1.453704   -1.034931
     87          1           0      -13.491138    0.229653   -0.864033
     88          1           0      -13.324849    0.366378   -3.692010
     89          1           0      -12.058552   -1.022537   -3.743159
     90          1           0      -13.952635   -1.339368   -3.117215
     91          1           0       -9.851811   -4.608747    0.061524
     92          1           0       -9.349872   -4.669495   -1.626174
     93          1           0       -8.362935   -5.507138   -0.834786
     94          1           0       -3.728112   -3.386552   -0.462807
     95          1           0       -1.725638   -6.249372    1.947013
     96          1           0       -1.812926   -4.765895    3.295787
     97          1           0       -3.139506   -5.960739    3.058927
     98          1           0        2.460374   -2.215736   -1.405147
     99          1           0        2.617547   -0.696109   -2.238889
    100          1           0        4.130877   -1.335196    0.544084
    101          1           0        5.279399    1.942942   -2.212645
    102          1           0        5.485898    0.533159   -3.072607
    103          1           0        3.923002    0.934956   -2.905299
    104          1           0        6.354772    1.309233    0.081125
    105          1           0        6.131815   -0.147573    0.723702
    106          1           0        7.753483   -1.479075   -1.381734
    107          1           0        7.429012   -0.103746   -2.072443
    108          1           0        9.023728    0.986574    0.030972
    109          1           0        8.678307   -0.680900    0.635071
    110          1           0       10.187237   -0.478139   -1.920141
    111          1           0        9.185424   -2.755524   -1.372622
    112          1           0       11.015053   -2.811951   -1.178380
    113          1           0       10.048019   -2.515070    0.098036
    114          1           0       11.170482    0.866640    0.012374
    115          1           0       11.281193   -0.492059    0.916571
    116          1           0       12.767297   -1.658498   -0.599677
    117          1           0       12.746119   -0.335675   -1.795885
    118          1           0       13.669370    1.064571    0.290140
    119          1           0       13.594561   -0.078262    1.130360
    120          1           0       15.297393    0.028359   -1.548727
    121          1           0       15.137536   -2.460352   -0.622240
    122          1           0       16.915458   -1.720781   -0.282236
    123          1           0       15.908260   -1.772450    1.021573
    124          1           0       15.786092    2.060631    0.062413
    125          1           0       16.012030    1.111579    1.494848
    126          1           0       17.973292   -0.331804    0.001570
    127          1           0       17.659631    0.879340   -1.127674
    128          1           0       18.324376    2.753498    0.521449
    129          1           0       18.492661    1.522999    1.599204
    130          1           0       20.449300    0.464282    0.341526
    131          1           0       19.933056    2.904033   -1.605031
    132          1           0       21.499579    1.882836   -1.604580
    133          1           0       19.781439    1.210597   -2.089249
    134          1           0       20.552804    2.484462    2.354168
    135          1           0       22.027183    2.136432    0.891804
    136          1           0       20.743158    3.531377    0.603407
    137          1           0       -7.344372    1.950256    0.080723
    138          1           0       -7.639683   -0.357081   -0.214796
 ---------------------------------------------------------------------

 SCF Done:  E(RB3LYP) =  -2733.01391753     A.U. after   17 cycles

 Excitation energies and oscillator strengths:

 Excited State   1:      Singlet-A      2.0781 eV  596.61 nm  f=0.1455  <S**2>=0.000
     235 -> 237       -0.24168
     235 -> 238        0.29489
     236 -> 237        0.56161
     236 -> 238        0.18629
 This state for optimization and/or second-order correction.
 Total Energy, E(TD-HF/TD-KS) =  -2732.93754723
 Copying the excited state density for this state as the 1-particle RhoCI density.

 The electronic state is 1-A.
 Alpha  occ. eigenvalues --  -19.18061 -19.15752 -19.13290 -19.12622 -19.11219
 Alpha  occ. eigenvalues --  -14.37683 -14.35951 -14.31900 -14.30454 -10.31998
 Alpha  occ. eigenvalues --  -10.31312 -10.27096 -10.25481 -10.25153 -10.24296
 Alpha  occ. eigenvalues --  -10.23502 -10.23445 -10.23356 -10.23203 -10.23150
 Alpha  occ. eigenvalues --  -10.23042 -10.22542 -10.22331 -10.21886 -10.21756
 Alpha  occ. eigenvalues --  -10.21576 -10.21460 -10.21385 -10.21312 -10.21140
 Alpha  occ. eigenvalues --  -10.20957 -10.20915 -10.20883 -10.20881 -10.20876
 Alpha  occ. eigenvalues --  -10.20624 -10.20618 -10.20430 -10.20368 -10.20347
 Alpha  occ. eigenvalues --  -10.20310 -10.20236 -10.20210 -10.19891 -10.19886
 Alpha  occ. eigenvalues --  -10.19833 -10.19738 -10.19734 -10.19624 -10.19612
 Alpha  occ. eigenvalues --  -10.19578 -10.19435 -10.19293 -10.19270 -10.19118
 Alpha  occ. eigenvalues --  -10.18806 -10.18652 -10.18475 -10.18084 -10.17575
 Alpha  occ. eigenvalues --  -10.17478 -10.17088 -10.16681 -10.16678  -1.08924
 Alpha  occ. eigenvalues --   -1.07664  -1.01274  -1.00868  -1.00621  -0.98496
 Alpha  occ. eigenvalues --   -0.97653  -0.94033  -0.92585  -0.85240  -0.83442
 Alpha  occ. eigenvalues --   -0.82632  -0.81728  -0.81643  -0.81330  -0.80790
 Alpha  occ. eigenvalues --   -0.80709  -0.79369  -0.79162  -0.78435  -0.78027
 Alpha  occ. eigenvalues --   -0.77008  -0.76239  -0.75576  -0.74850  -0.73761
 Alpha  occ. eigenvalues --   -0.73009  -0.72664  -0.72428  -0.72219  -0.71111
 Alpha  occ. eigenvalues --   -0.70908  -0.69660  -0.69281  -0.68571  -0.68062
 Alpha  occ. eigenvalues --   -0.67427  -0.66942  -0.65820  -0.65678  -0.65094
 Alpha  occ. eigenvalues --   -0.64348  -0.63015  -0.62668  -0.62050  -0.61111
 Alpha  occ. eigenvalues --   -0.60852  -0.59626  -0.59229  -0.58770  -0.57955
 Alpha  occ. eigenvalues --   -0.57716  -0.56262  -0.56157  -0.55834  -0.55488
 Alpha  occ. eigenvalues --   -0.55412  -0.54790  -0.54374  -0.54180  -0.53439
 Alpha  occ. eigenvalues --   -0.53040  -0.52855  -0.51500  -0.51292  -0.50642
 Alpha  occ. eigenvalues --   -0.49441  -0.48994  -0.48978  -0.47839  -0.47767
 Alpha  occ. eigenvalues --   -0.47600  -0.47439  -0.47328  -0.46786  -0.46693
 Alpha  occ. eigenvalues --   -0.46485  -0.46251  -0.45813  -0.45644  -0.45419
 Alpha  occ. eigenvalues --   -0.45349  -0.45331  -0.45020  -0.44919  -0.44748
 Alpha  occ. eigenvalues --   -0.44547  -0.44218  -0.43661  -0.43645  -0.43470
 Alpha  occ. eigenvalues --   -0.43082  -0.43013  -0.42655  -0.42598  -0.42372
 Alpha  occ. eigenvalues --   -0.42269  -0.42106  -0.41348  -0.41246  -0.41200
 Alpha  occ. eigenvalues --   -0.41114  -0.41035  -0.40778  -0.40524  -0.40418
 Alpha  occ. eigenvalues --   -0.40214  -0.40072  -0.39975  -0.39868  -0.39802
 Alpha  occ. eigenvalues --   -0.39560  -0.39267  -0.38993  -0.38870  -0.38795
 Alpha  occ. eigenvalues --   -0.38548  -0.38332  -0.37959  -0.37859  -0.37614
 Alpha  occ. eigenvalues --   -0.37341  -0.37264  -0.37126  -0.37036  -0.36766
 Alpha  occ. eigenvalues --   -0.36416  -0.35873  -0.35801  -0.35539  -0.35345
 Alpha  occ. eigenvalues --   -0.35232  -0.35112  -0.34894  -0.34802  -0.34656
 Alpha  occ. eigenvalues --   -0.34495  -0.34351  -0.34194  -0.34146  -0.33855
 Alpha  occ. eigenvalues --   -0.33506  -0.33099  -0.32744  -0.32710  -0.32224
 Alpha  occ. eigenvalues --   -0.32009  -0.31847  -0.31410  -0.31407  -0.31160
 Alpha  occ. eigenvalues --   -0.30648  -0.30388  -0.29985  -0.29926  -0.29693
 Alpha  occ. eigenvalues --   -0.29095  -0.28530  -0.28317  -0.27961  -0.27866
 Alpha  occ. eigenvalues --   -0.27650  -0.27464  -0.26970  -0.25934  -0.25723
 Alpha  occ. eigenvalues --   -0.24724  -0.24498  -0.24326  -0.22536  -0.20279
 Alpha  occ. eigenvalues --   -0.19134
 Alpha virt. eigenvalues --   -0.10372  -0.08467  -0.04885  -0.02700  -0.01157
 Alpha virt. eigenvalues --   -0.00927  -0.00173   0.00777   0.01797   0.03616
 Alpha virt. eigenvalues --    0.03730   0.03775   0.04045   0.04069   0.04834

 Mulliken charges:
               1
     1  C    0.015548
     2  C   -0.083362
     3  C   -0.120021
     4  C   -0.075847
     5  N   -0.190578
     6  C   -0.046945
     7  C    0.027381
     8  C   -0.127885
     9  C    0.061902
    10  C    0.049866
    11  C    0.061830
    12  C    0.036026
    13  C    0.198354
    14  O   -0.281498
    15  O   -0.319274
    16  N    0.106143
    17  C    0.076849
    18  C   -0.099842
    19  C    0.092152
    20  C   -0.024161
    21  C    0.035001
    22  C   -0.058834
    23  C   -0.090414
    24  N   -0.307138
    25  C    0.094071
    26  C   -0.150288
    27  C   -0.051474
    28  C    0.101192
    29  C    0.096822
    30  C    0.034786
    31  C   -0.109940
    32  N    0.010529
    33  C    0.041412
    34  C   -0.191069
    35  C   -0.019478
    36  C    0.074789
    37  C    0.277461
    38  C    0.041130
    39  O   -0.201577
    40  C   -0.004352
    41  C    0.183733
    42  O   -0.164392
    43  O   -0.340480
    44  C    0.139394
    45  C    0.212447
    46  C   -0.101676
    47  C   -0.132263
    48  C    0.102076
    49  C    0.156101
    50  C   -0.053595
    51  C    0.098518
    52  C   -0.131753
    53  C    0.155896
    54  C   -0.022270
    55  C    0.109879
    56  C    0.115463
    57  C   -0.073557
    58  C    0.004349
    59  C   -0.101853
    60  C    0.084036
    61  C    0.075756
    62  C   -0.046252
    63  C   -0.090303
    64  C   -0.036291
    65  H    0.007465
    66  H    0.033816
    67  H   -0.048534
    68  H    0.002168
    69  H    0.001820
    70  H    0.018794
    71  H    0.031992
    72  H    0.014608
    73  H    0.036497
    74  H   -0.012209
    75  H    0.018676
    76  H    0.033035
    77  H    0.067561
    78  H    0.016691
    79  H    0.042205
    80  H   -0.024932
    81  H    0.036005
    82  H    0.046219
    83  H    0.022416
    84  H    0.004993
    85  H    0.006855
    86  H    0.027379
    87  H    0.038451
    88  H    0.040179
    89  H    0.026673
    90  H    0.045555
    91  H    0.050548
    92  H   -0.016078
    93  H   -0.012809
    94  H    0.062758
    95  H    0.047161
    96  H    0.031312
    97  H    0.024271
    98  H    0.022606
    99  H    0.014194
   100  H    0.031476
   101  H    0.020444
   102  H    0.003432
   103  H    0.016173
   104  H    0.007045
   105  H   -0.042041
   106  H   -0.016838
   107  H   -0.007635
   108  H    0.012452
   109  H   -0.036293
   110  H   -0.009834
   111  H    0.022836
   112  H    0.010829
   113  H   -0.056197
   114  H   -0.015626
   115  H   -0.037703
   116  H   -0.017861
   117  H   -0.001406
   118  H   -0.076307
   119  H   -0.056653
   120  H    0.011562
   121  H    0.037778
   122  H    0.018417
   123  H    0.001994
   124  H    0.009193
   125  H    0.002599
   126  H   -0.003675
   127  H   -0.029493
   128  H   -0.015293
   129  H   -0.052182
   130  H    0.000282
   131  H    0.019197
   132  H    0.015371
   133  H    0.035918
   134  H    0.056800
   135  H    0.029726
   136  H    0.030198
   137  H    0.087872
   138  H    0.112869
 Sum of Mulliken charges =   0.00000

 Dipole moment (field-independent basis, Debye):
    X=              1.5582    Y=              6.0304    Z=              0.5986  Tot=              6.2572
 Quadrupole moment (field-independent basis, Debye-Ang):
   XX=           -343.3485   YY=           -384.9939   ZZ=           -395.9772
   XY=            -34.0499   XZ=             13.6474   YZ=              0.9662

 Normal termination of Gaussian 09 at Sun Aug  4 11:10:11 2019.
