 Gaussian 09, Revision D.01,
 Gaussian 09:  ES64L-G09RevD.01 24-Apr-2013

 --------------------------
 # td=(NStates=1) B3LYP/SVP
 --------------------------

 --
 TD
 --
 Symbolic Z-matrix:
 Charge =  0 Multiplicity = 1

                         Standard orientation:
 ---------------------------------------------------------------------
 Center     Atomic      Atomic             Coordinates (Angstroms)
 Number     Number       Type             X           Y           Z
 ---------------------------------------------------------------------
      1          6           0       -5.029349   -1.870827    0.601954
      2          6           0       -4.877402    2.856938    1.557789
      3          6           0       -9.357070    3.236635   -0.287514
      4          6           0       -9.772176   -1.603254   -0.880314
      5          7           0       -5.164753    0.482375    0.836853
      6          6           0       -4.516459   -0.622117    0.913622
      7          6           0       -3.079813   -0.438943    1.380643
      8          6           0       -3.105563    0.984392    1.862914
      9          6           0       -4.440422    1.488878    1.387362
     10          6           0       -2.973219    1.226914    3.484254
     11          6           0       -1.988790   -0.827850    0.192610
     12          6           0       -0.587305   -0.616089    0.692961
     13          6           0        0.318295   -1.077758   -0.557751
     14          8           0       -0.071181   -1.642506   -1.583217
     15          8           0        1.558759   -0.575381   -0.394710
     16          7           0       -7.056949    2.819789    0.444534
     17          6           0       -5.996485    3.447785    0.985053
     18          6           0       -6.340707    4.802219    0.987472
     19          6           0       -7.530547    4.985082    0.430893
     20          6           0       -8.104908    3.607945    0.138436
     21          6           0       -5.412911    5.801341    1.452703
     22          6           0       -8.263306    6.233872    0.235261
     23          6           0       -9.074690    6.502185   -0.746683
     24          7           0       -9.258311    0.776612   -0.468227
     25          6           0       -9.953263    1.911439   -0.503290
     26          6           0      -11.313604    1.762138   -1.015099
     27          6           0      -11.406851    0.433540   -1.194488
     28          6           0      -10.079155   -0.194176   -0.872847
     29          6           0      -12.402696    2.894369   -1.207475
     30          6           0      -12.577929   -0.440783   -1.649946
     31          6           0      -12.754657   -0.570493   -3.194530
     32          7           0       -7.427629   -1.281135   -0.107878
     33          6           0       -8.535071   -2.099945   -0.545162
     34          6           0       -8.088631   -3.464113   -0.574598
     35          6           0       -6.731537   -3.407084   -0.003335
     36          6           0       -6.424613   -2.122211    0.221727
     37          6           0       -8.835409   -4.709851   -0.842616
     38          6           0       -5.542371   -4.211136    0.139505
     39          8           0       -5.402626   -5.422333    0.021970
     40          6           0       -4.432332   -3.233227    0.596829
     41          6           0       -3.809249   -3.673001    1.877640
     42          8           0       -4.026714   -3.342516    2.995270
     43          8           0       -2.837670   -4.667796    1.616197
     44          6           0       -2.289973   -5.273710    2.795947
     45          6           0        2.556619   -1.071638   -1.408674
     46          6           0        3.977243   -0.777257   -0.801028
     47          6           0        5.011995    0.004502   -1.301839
     48          6           0        4.935099    0.594110   -2.734237
     49          6           0        6.220114    0.029955   -0.617894
     50          6           0        7.499733   -0.555393   -1.314551
     51          6           0        8.824383   -0.208676   -0.489279
     52          6           0       10.087596   -0.765538   -1.030907
     53          6           0       10.058408   -2.354633   -1.149120
     54          6           0       11.324772   -0.237000   -0.257466
     55          6           0       12.757995   -0.547599   -0.854106
     56          6           0       13.802049    0.023925    0.096546
     57          6           0       15.263045   -0.163568   -0.407559
     58          6           0       15.617526   -1.708675   -0.245806
     59          6           0       16.188889    0.745000    0.450662
     60          6           0       17.551331    0.777280   -0.051858
     61          6           0       18.471404    1.702136    0.687584
     62          6           0       19.882304    1.655350    0.376124
     63          6           0       20.318067    2.333920   -0.976389
     64          6           0       20.748166    2.386284    1.498860
     65          1           0       -4.267296    3.773516    1.752745
     66          1           0       -9.955219    4.062384   -0.551636
     67          1           0      -10.409303   -2.396989   -1.105596
     68          1           0       -2.649630   -0.976324    2.281666
     69          1           0       -2.298612    1.531407    1.381533
     70          1           0       -1.928577    0.909810    3.787538
     71          1           0       -2.934777    2.416468    3.621655
     72          1           0       -3.791600    0.623485    4.244925
     73          1           0       -2.296757   -1.671418   -0.004445
     74          1           0       -2.288166   -0.214239   -0.691640
     75          1           0       -0.197770    0.425363    0.947552
     76          1           0       -0.450160   -1.512484    1.553889
     77          1           0       -4.462641    5.911546    0.863490
     78          1           0       -5.839346    6.782289    0.896976
     79          1           0       -5.304757    5.868645    2.562910
     80          1           0       -8.357423    7.058070    1.055225
     81          1           0       -9.159935    5.722824   -1.689856
     82          1           0       -9.712571    7.496317   -0.746199
     83          1           0      -12.962309    3.008124   -0.152498
     84          1           0      -11.989118    3.949603   -1.705630
     85          1           0      -13.361023    2.498851   -1.950195
     86          1           0      -12.435565   -1.428145   -0.868254
     87          1           0      -13.552247   -0.034857   -1.032149
     88          1           0      -13.302155    0.502910   -3.768224
     89          1           0      -11.744662   -0.790619   -3.733926
     90          1           0      -13.441051   -1.553469   -3.291831
     91          1           0       -9.523229   -5.060385   -0.118080
     92          1           0       -9.415631   -4.637547   -1.835870
     93          1           0       -8.190708   -5.642163   -0.948752
     94          1           0       -3.859185   -3.106417   -0.238174
     95          1           0       -1.534465   -5.890695    2.477318
     96          1           0       -1.637390   -4.515386    3.193992
     97          1           0       -2.852764   -5.843203    3.425663
     98          1           0        2.508662   -2.287993   -1.403909
     99          1           0        2.119374   -0.757347   -2.487621
    100          1           0        4.108196   -1.168132    0.326669
    101          1           0        5.132333    1.676378   -2.624094
    102          1           0        5.556253    0.021043   -3.408482
    103          1           0        3.767305    0.681052   -3.018295
    104          1           0        6.504212    1.101272   -0.596405
    105          1           0        5.734175   -0.142130    0.468307
    106          1           0        7.540233   -1.700406   -1.574114
    107          1           0        7.574521   -0.061717   -2.329766
    108          1           0        8.927378    0.999560   -0.691364
    109          1           0        8.687721   -0.421511    0.637169
    110          1           0       10.135516   -0.221157   -2.006029
    111          1           0        9.413067   -2.617452   -1.718956
    112          1           0       11.140548   -2.594080   -1.455549
    113          1           0        9.837407   -3.136236   -0.244899
    114          1           0       11.087170    0.826893   -0.131472
    115          1           0       11.198624   -0.843626    0.668794
    116          1           0       12.986410   -1.602655   -1.077594
    117          1           0       12.890024   -0.250068   -1.751721
    118          1           0       13.495155    1.152799    0.274395
    119          1           0       13.742539   -0.412489    1.204147
    120          1           0       15.394164   -0.068092   -1.577536
    121          1           0       14.866924   -2.378201   -0.948131
    122          1           0       16.606913   -1.970515   -0.705090
    123          1           0       15.479057   -1.933271    0.857074
    124          1           0       15.661879    1.713575    0.794236
    125          1           0       16.201027    0.270539    1.361007
    126          1           0       17.882061   -0.235323    0.095740
    127          1           0       17.684488    1.000361   -1.129438
    128          1           0       18.204014    2.795400    0.589950
    129          1           0       18.220790    1.419495    1.697937
    130          1           0       20.186463    0.529303    0.225663
    131          1           0       20.160545    3.568010   -0.991660
    132          1           0       21.302859    2.328745   -1.342795
    133          1           0       19.791322    1.682789   -1.713833
    134          1           0       20.635815    2.280447    2.522606
    135          1           0       21.781110    2.463300    1.498452
    136          1           0       20.300912    3.526013    1.460863
    137          1           0       -7.025728    1.805530    0.549242
    138          1           0       -7.445853   -0.176138   -0.072622
 ---------------------------------------------------------------------

 SCF Done:  E(RB3LYP) =  -2732.92974881     A.U. after   18 cycles

 Excitation energies and oscillator strengths:

 Excited State   1:      Singlet-A      2.0956 eV  591.64 nm  f=0.1254  <S**2>=0.000
     235 -> 237        0.12440
     235 -> 238        0.33726
     236 -> 237        0.59868
 This state for optimization and/or second-order correction.
 Total Energy, E(TD-HF/TD-KS) =  -2732.85273701
 Copying the excited state density for this state as the 1-particle RhoCI density.

 The electronic state is 1-A.
 Alpha  occ. eigenvalues --  -19.17996 -19.15593 -19.12659 -19.12624 -19.11387
 Alpha  occ. eigenvalues --  -14.36740 -14.36392 -14.32364 -14.29958 -10.31738
 Alpha  occ. eigenvalues --  -10.31108 -10.27435 -10.27144 -10.24124 -10.24004
 Alpha  occ. eigenvalues --  -10.23283 -10.23126 -10.22971 -10.22944 -10.22473
 Alpha  occ. eigenvalues --  -10.22428 -10.22405 -10.21938 -10.21930 -10.21921
 Alpha  occ. eigenvalues --  -10.21752 -10.21587 -10.21566 -10.21263 -10.21239
 Alpha  occ. eigenvalues --  -10.20886 -10.20864 -10.20771 -10.20745 -10.20391
 Alpha  occ. eigenvalues --  -10.20390 -10.20254 -10.20206 -10.20191 -10.20186
 Alpha  occ. eigenvalues --  -10.20179 -10.20109 -10.19950 -10.19817 -10.19738
 Alpha  occ. eigenvalues --  -10.19709 -10.19701 -10.19651 -10.19636 -10.19613
 Alpha  occ. eigenvalues --  -10.19355 -10.19258 -10.18841 -10.18774 -10.18595
 Alpha  occ. eigenvalues --  -10.18590 -10.18325 -10.17982 -10.17835 -10.17587
 Alpha  occ. eigenvalues --  -10.17520 -10.17341 -10.17258 -10.17205  -1.08132
 Alpha  occ. eigenvalues --   -1.08008  -1.01436  -0.99940  -0.99629  -0.99309
 Alpha  occ. eigenvalues --   -0.97033  -0.96195  -0.94569  -0.85516  -0.83315
 Alpha  occ. eigenvalues --   -0.83216  -0.82780  -0.81545  -0.81276  -0.80664
 Alpha  occ. eigenvalues --   -0.79920  -0.79637  -0.78861  -0.78172  -0.77433
 Alpha  occ. eigenvalues --   -0.76632  -0.76418  -0.75522  -0.74494  -0.73757
 Alpha  occ. eigenvalues --   -0.73073  -0.72494  -0.72156  -0.71162  -0.70746
 Alpha  occ. eigenvalues --   -0.69775  -0.68750  -0.68660  -0.67876  -0.67426
 Alpha  occ. eigenvalues --   -0.67286  -0.66899  -0.66221  -0.65623  -0.64732
 Alpha  occ. eigenvalues --   -0.64318  -0.63282  -0.62319  -0.61658  -0.61578
 Alpha  occ. eigenvalues --   -0.59891  -0.59383  -0.58890  -0.58395  -0.57799
 Alpha  occ. eigenvalues --   -0.56832  -0.55885  -0.55739  -0.55154  -0.54947
 Alpha  occ. eigenvalues --   -0.54743  -0.54623  -0.53900  -0.53318  -0.52608
 Alpha  occ. eigenvalues --   -0.52113  -0.51864  -0.51429  -0.50868  -0.50213
 Alpha  occ. eigenvalues --   -0.49142  -0.48943  -0.48581  -0.48307  -0.48053
 Alpha  occ. eigenvalues --   -0.47783  -0.47463  -0.47331  -0.47252  -0.46883
 Alpha  occ. eigenvalues --   -0.46481  -0.46377  -0.46101  -0.45947  -0.45832
 Alpha  occ. eigenvalues --   -0.45558  -0.45393  -0.45007  -0.44731  -0.44559
 Alpha  occ. eigenvalues --   -0.44393  -0.44078  -0.43747  -0.43582  -0.43167
 Alpha  occ. eigenvalues --   -0.43095  -0.42867  -0.42713  -0.42389  -0.42147
 Alpha  occ. eigenvalues --   -0.41984  -0.41863  -0.41698  -0.41492  -0.41450
 Alpha  occ. eigenvalues --   -0.41339  -0.41135  -0.40808  -0.40732  -0.40383
 Alpha  occ. eigenvalues --   -0.39805  -0.39580  -0.39465  -0.39356  -0.39063
 Alpha  occ. eigenvalues --   -0.39004  -0.38921  -0.38799  -0.38466  -0.38308
 Alpha  occ. eigenvalues --   -0.38131  -0.37911  -0.37623  -0.37544  -0.37209
 Alpha  occ. eigenvalues --   -0.37049  -0.36847  -0.36676  -0.36361  -0.36270
 Alpha  occ. eigenvalues --   -0.35914  -0.35654  -0.35578  -0.35537  -0.35501
 Alpha  occ. eigenvalues --   -0.35334  -0.35136  -0.35061  -0.34857  -0.34774
 Alpha  occ. eigenvalues --   -0.34262  -0.34079  -0.33998  -0.33953  -0.33559
 Alpha  occ. eigenvalues --   -0.33316  -0.32941  -0.32765  -0.32683  -0.32419
 Alpha  occ. eigenvalues --   -0.32122  -0.31561  -0.31307  -0.31303  -0.31280
 Alpha  occ. eigenvalues --   -0.31226  -0.30893  -0.30518  -0.30403  -0.30135
 Alpha  occ. eigenvalues --   -0.29650  -0.29317  -0.28814  -0.28437  -0.28062
 Alpha  occ. eigenvalues --   -0.27938  -0.27288  -0.26382  -0.25633  -0.25509
 Alpha  occ. eigenvalues --   -0.25208  -0.24636  -0.24271  -0.23400  -0.19698
 Alpha  occ. eigenvalues --   -0.19262
 Alpha virt. eigenvalues --   -0.10276  -0.07981  -0.03909  -0.01318  -0.01016
 Alpha virt. eigenvalues --   -0.00368   0.00314   0.00877   0.02407   0.02882
 Alpha virt. eigenvalues --    0.03280   0.03421   0.04288   0.04321   0.04642

 Mulliken charges:
               1
     1  C   -0.051304
     2  C   -0.037076
     3  C   -0.035334
     4  C   -0.036613
     5  N   -0.114924
     6  C   -0.086367
     7  C   -0.126280
     8  C    0.013473
     9  C    0.013014
    10  C   -0.041908
    11  C    0.211781
    12  C   -0.034522
    13  C    0.193470
    14  O   -0.256883
    15  O   -0.315127
    16  N   -0.014584
    17  C   -0.006448
    18  C   -0.096100
    19  C    0.072561
    20  C    0.067868
    21  C    0.029753
    22  C   -0.079494
    23  C   -0.111344
    24  N   -0.176424
    25  C    0.023114
    26  C   -0.099606
    27  C   -0.078280
    28  C    0.069069
    29  C   -0.053918
    30  C   -0.044706
    31  C   -0.059692
    32  N   -0.128654
    33  C    0.080149
    34  C   -0.094243
    35  C   -0.013057
    36  C    0.068813
    37  C    0.057516
    38  C   -0.002234
    39  O   -0.177101
    40  C    0.105528
    41  C    0.242625
    42  O   -0.184256
    43  O   -0.362407
    44  C    0.287637
    45  C    0.153520
    46  C   -0.097728
    47  C   -0.197997
    48  C    0.047938
    49  C    0.119082
    50  C   -0.013150
    51  C   -0.053344
    52  C   -0.051796
    53  C    0.096008
    54  C    0.029533
    55  C    0.161841
    56  C   -0.032058
    57  C   -0.121230
    58  C   -0.048180
    59  C    0.098161
    60  C    0.069180
    61  C    0.067571
    62  C   -0.083591
    63  C    0.005034
    64  C    0.053626
    65  H   -0.009934
    66  H   -0.065507
    67  H   -0.052643
    68  H    0.015416
    69  H   -0.012636
    70  H    0.023012
    71  H    0.035891
    72  H    0.070437
    73  H   -0.105650
    74  H    0.009663
    75  H    0.063261
    76  H    0.064718
    77  H    0.038313
    78  H    0.017916
    79  H    0.055063
    80  H    0.035354
    81  H    0.055334
    82  H    0.047006
    83  H    0.057081
    84  H    0.065116
    85  H    0.041734
    86  H    0.032594
    87  H    0.020831
    88  H    0.055619
    89  H    0.047331
    90  H    0.042024
    91  H    0.026524
    92  H    0.026352
    93  H    0.043541
    94  H    0.034262
    95  H   -0.024356
    96  H   -0.009910
    97  H    0.017363
    98  H    0.052295
    99  H    0.075012
   100  H    0.029242
   101  H    0.014411
   102  H    0.052800
   103  H    0.021694
   104  H   -0.014759
   105  H    0.018385
   106  H    0.022355
   107  H    0.008820
   108  H    0.005476
   109  H    0.017329
   110  H   -0.018351
   111  H   -0.078645
   112  H    0.014074
   113  H    0.018978
   114  H   -0.003841
   115  H   -0.000312
   116  H   -0.022775
   117  H   -0.078868
   118  H    0.007493
   119  H    0.005748
   120  H    0.007058
   121  H    0.026227
   122  H    0.027966
   123  H    0.024120
   124  H   -0.003454
   125  H   -0.051203
   126  H   -0.024569
   127  H   -0.010344
   128  H   -0.007879
   129  H   -0.021582
   130  H   -0.000072
   131  H    0.020497
   132  H   -0.002787
   133  H    0.006933
   134  H   -0.027260
   135  H   -0.013001
   136  H   -0.007647
   137  H    0.135278
   138  H    0.194135
 Sum of Mulliken charges =   0.00000

 Dipole moment (field-independent basis, Debye):
    X=              2.9218    Y=              5.1739    Z=             -0.0254  Tot=              5.9419
 Quadrupole moment (field-independent basis, Debye-Ang):
   XX=           -346.4447   YY=           -387.2042   ZZ=           -395.2162
   XY=            -33.4617   XZ=              2.5665   YZ=             -0.1804

 Normal termination of Gaussian 09 at Sun Aug  4 16:22:08 2019.
