 Gaussian 09, Revision D.01,
 Gaussian 09:  ES64L-G09RevD.01 24-Apr-2013

 --------------------------
 # td=(NStates=1) B3LYP/SVP
 --------------------------

 --
 TD
 --
 Symbolic Z-matrix:
 Charge =  0 Multiplicity = 1

                         Standard orientation:
 ---------------------------------------------------------------------
 Center     Atomic      Atomic             Coordinates (Angstroms)
 Number     Number       Type             X           Y           Z
 ---------------------------------------------------------------------
      1          6           0       -5.055863   -1.822805    0.626095
      2          6           0       -4.764474    2.919830    1.434181
      3          6           0       -9.437662    3.085330   -0.218931
      4          6           0       -9.708659   -1.627131   -0.934312
      5          7           0       -5.126292    0.612328    0.807965
      6          6           0       -4.517024   -0.639607    0.852900
      7          6           0       -3.064906   -0.441955    1.242000
      8          6           0       -3.084869    0.967704    1.870777
      9          6           0       -4.399490    1.544663    1.266598
     10          6           0       -2.799248    1.153046    3.349913
     11          6           0       -2.059391   -0.641967    0.032355
     12          6           0       -0.567087   -0.672140    0.535872
     13          6           0        0.351761   -0.918415   -0.576353
     14          8           0        0.085924   -1.287593   -1.752794
     15          8           0        1.659569   -0.679700   -0.197332
     16          7           0       -6.980332    2.692900    0.460895
     17          6           0       -6.002163    3.365227    1.070090
     18          6           0       -6.383713    4.841318    1.152909
     19          6           0       -7.757116    4.886074    0.516422
     20          6           0       -8.148867    3.460322    0.225873
     21          6           0       -5.539320    5.862304    1.598355
     22          6           0       -8.440280    6.165082    0.261739
     23          6           0       -9.355705    6.331633   -0.791194
     24          7           0       -9.266713    0.708721   -0.469274
     25          6           0      -10.025194    1.877178   -0.492435
     26          6           0      -11.342613    1.663664   -1.052089
     27          6           0      -11.549994    0.277113   -1.198700
     28          6           0      -10.167216   -0.333500   -0.910258
     29          6           0      -12.372291    2.822253   -1.199931
     30          6           0      -12.572166   -0.558215   -1.828016
     31          6           0      -12.545353   -0.787482   -3.295316
     32          7           0       -7.472282   -1.199866   -0.183759
     33          6           0       -8.555249   -2.129094   -0.553709
     34          6           0       -8.029998   -3.435399   -0.527348
     35          6           0       -6.759527   -3.346348   -0.068134
     36          6           0       -6.331704   -2.045517    0.160742
     37          6           0       -8.897737   -4.586621   -1.019648
     38          6           0       -5.617330   -4.227916    0.188322
     39          8           0       -5.519862   -5.426383    0.129162
     40          6           0       -4.457247   -3.226858    0.644602
     41          6           0       -3.837417   -3.653355    1.912088
     42          8           0       -4.162831   -3.206113    2.959764
     43          8           0       -2.750457   -4.472827    1.569923
     44          6           0       -2.199792   -5.224692    2.685805
     45          6           0        2.666279   -1.040539   -1.110727
     46          6           0        4.008819   -0.679709   -0.618748
     47          6           0        4.938456    0.137713   -1.242797
     48          6           0        4.843903    0.856600   -2.552049
     49          6           0        6.287480    0.337745   -0.537800
     50          6           0        7.510599   -0.382370   -1.079324
     51          6           0        8.758239    0.036482   -0.279877
     52          6           0       10.042912   -0.664728   -0.885790
     53          6           0        9.949922   -2.239132   -0.953992
     54          6           0       11.282896   -0.289629   -0.055482
     55          6           0       12.706297   -0.581381   -0.644646
     56          6           0       13.818046    0.011610    0.196118
     57          6           0       15.241103   -0.258649   -0.349947
     58          6           0       15.506133   -1.747399   -0.060523
     59          6           0       16.258761    0.628165    0.451651
     60          6           0       17.660096    0.610484   -0.167363
     61          6           0       18.537996    1.572305    0.540735
     62          6           0       20.060956    1.646461    0.176876
     63          6           0       20.260066    1.792048   -1.361560
     64          6           0       20.831376    2.638432    1.039804
     65          1           0       -4.099899    3.607577    1.832670
     66          1           0      -10.021351    3.847789   -0.001232
     67          1           0      -10.264203   -2.418916   -1.473442
     68          1           0       -2.693490   -1.276626    1.984586
     69          1           0       -2.387404    1.587880    1.330258
     70          1           0       -1.866127    0.565865    3.605365
     71          1           0       -2.567854    2.023857    3.854726
     72          1           0       -3.499807    0.608945    3.935062
     73          1           0       -2.367776   -1.619328   -0.211614
     74          1           0       -2.299676   -0.019852   -0.809498
     75          1           0       -0.248584    0.109909    1.219536
     76          1           0       -0.241682   -1.640805    1.174433
     77          1           0       -4.345768    5.431007    1.330083
     78          1           0       -5.744092    6.953540    1.227966
     79          1           0       -5.560727    6.012311    2.882813
     80          1           0       -8.322522    7.046295    0.891504
     81          1           0       -9.446028    5.592444   -1.547072
     82          1           0       -9.737678    7.378334   -0.948005
     83          1           0      -12.542592    3.354796   -0.187032
     84          1           0      -11.747572    3.530149   -1.951063
     85          1           0      -13.205309    2.457230   -1.869813
     86          1           0      -12.559179   -1.594454   -1.404303
     87          1           0      -13.475747   -0.150882   -1.520489
     88          1           0      -12.450613    0.144747   -3.977662
     89          1           0      -11.690652   -1.427852   -3.648935
     90          1           0      -13.329523   -1.462151   -3.462892
     91          1           0      -10.024728   -4.727847   -0.687293
     92          1           0       -9.031315   -4.747301   -2.146366
     93          1           0       -8.638070   -5.558551   -0.623288
     94          1           0       -3.732748   -3.208168   -0.173561
     95          1           0       -1.206497   -5.786123    2.462536
     96          1           0       -1.719934   -4.572489    3.504918
     97          1           0       -2.968685   -5.963596    3.049317
     98          1           0        2.709984   -2.054330   -1.349928
     99          1           0        2.490496   -0.389567   -2.053034
    100          1           0        4.239796   -0.751659    0.519748
    101          1           0        5.042341    1.902371   -2.319579
    102          1           0        5.880794    0.601360   -3.168060
    103          1           0        3.791528    0.650182   -3.150278
    104          1           0        6.455039    1.500395   -0.428854
    105          1           0        6.012837   -0.124272    0.493999
    106          1           0        7.252133   -1.501010   -0.960890
    107          1           0        7.621448    0.054255   -2.134868
    108          1           0        9.046769    1.093073   -0.313503
    109          1           0        8.588587   -0.101662    0.737616
    110          1           0        9.932266   -0.314677   -1.829856
    111          1           0        9.082176   -2.753864   -1.407051
    112          1           0       10.868791   -2.603637   -1.486488
    113          1           0        9.909052   -2.567965    0.181327
    114          1           0       11.279273    0.784551    0.283920
    115          1           0       11.173397   -0.838213    0.862328
    116          1           0       12.975711   -1.476935   -0.503389
    117          1           0       12.647371   -0.169841   -1.729249
    118          1           0       13.691212    1.119914    0.230610
    119          1           0       13.752652   -0.570592    1.243802
    120          1           0       15.330310    0.005892   -1.479832
    121          1           0       14.549050   -2.157027   -0.474555
    122          1           0       16.528835   -2.191469   -0.369345
    123          1           0       15.447849   -2.027673    1.025401
    124          1           0       15.749006    1.568227    0.473993
    125          1           0       16.422734    0.119613    1.486684
    126          1           0       18.062316   -0.355740   -0.019308
    127          1           0       17.711872    0.733588   -1.372676
    128          1           0       18.047002    2.630975    0.089452
    129          1           0       18.220159    1.477061    1.636140
    130          1           0       20.325757    0.490109    0.343189
    131          1           0       20.009857    2.788510   -1.558613
    132          1           0       21.402414    1.721627   -1.609897
    133          1           0       19.657545    1.001470   -1.919448
    134          1           0       21.010427    2.309025    1.943634
    135          1           0       21.802395    2.374361    0.690544
    136          1           0       20.367171    3.587715    0.818463
    137          1           0       -7.024359    1.658083    0.402735
    138          1           0       -7.658177   -0.146998   -0.242624
 ---------------------------------------------------------------------

 SCF Done:  E(RB3LYP) =  -2733.07273108     A.U. after   17 cycles

 Excitation energies and oscillator strengths:

 Excited State   1:      Singlet-A      2.0797 eV  596.16 nm  f=0.1873  <S**2>=0.000
     235 -> 237       -0.22749
     235 -> 238       -0.24150
     236 -> 237        0.59022
     236 -> 238       -0.18534
 This state for optimization and/or second-order correction.
 Total Energy, E(TD-HF/TD-KS) =  -2732.99630246
 Copying the excited state density for this state as the 1-particle RhoCI density.

 The electronic state is 1-A.
 Alpha  occ. eigenvalues --  -19.18056 -19.17302 -19.13670 -19.12506 -19.12170
 Alpha  occ. eigenvalues --  -14.37339 -14.35384 -14.31775 -14.30366 -10.31884
 Alpha  occ. eigenvalues --  -10.31876 -10.27953 -10.25751 -10.25212 -10.24230
 Alpha  occ. eigenvalues --  -10.23955 -10.23521 -10.23246 -10.22843 -10.22506
 Alpha  occ. eigenvalues --  -10.22355 -10.22211 -10.21970 -10.21711 -10.21697
 Alpha  occ. eigenvalues --  -10.21592 -10.21330 -10.21282 -10.21183 -10.21162
 Alpha  occ. eigenvalues --  -10.20778 -10.20601 -10.20477 -10.20305 -10.20239
 Alpha  occ. eigenvalues --  -10.19955 -10.19795 -10.19704 -10.19695 -10.19678
 Alpha  occ. eigenvalues --  -10.19670 -10.19665 -10.19639 -10.19366 -10.19246
 Alpha  occ. eigenvalues --  -10.18889 -10.18888 -10.18885 -10.18838 -10.18737
 Alpha  occ. eigenvalues --  -10.18703 -10.18667 -10.18574 -10.18547 -10.18455
 Alpha  occ. eigenvalues --  -10.18440 -10.18362 -10.18220 -10.18174 -10.18113
 Alpha  occ. eigenvalues --  -10.17966 -10.17748 -10.17190 -10.16465  -1.08738
 Alpha  occ. eigenvalues --   -1.08135  -1.03324  -1.01937  -0.98398  -0.97579
 Alpha  occ. eigenvalues --   -0.95551  -0.94356  -0.90893  -0.85656  -0.82377
 Alpha  occ. eigenvalues --   -0.81912  -0.81430  -0.81104  -0.80856  -0.80557
 Alpha  occ. eigenvalues --   -0.79941  -0.79829  -0.79607  -0.79323  -0.77902
 Alpha  occ. eigenvalues --   -0.76858  -0.76515  -0.75898  -0.75131  -0.74838
 Alpha  occ. eigenvalues --   -0.73901  -0.73607  -0.73017  -0.71772  -0.70522
 Alpha  occ. eigenvalues --   -0.69967  -0.68707  -0.68615  -0.68266  -0.67142
 Alpha  occ. eigenvalues --   -0.66993  -0.66141  -0.66077  -0.65771  -0.65276
 Alpha  occ. eigenvalues --   -0.64853  -0.63354  -0.62278  -0.61989  -0.61554
 Alpha  occ. eigenvalues --   -0.60901  -0.58780  -0.58390  -0.58252  -0.57425
 Alpha  occ. eigenvalues --   -0.56754  -0.56519  -0.55803  -0.55764  -0.54836
 Alpha  occ. eigenvalues --   -0.54472  -0.53888  -0.53463  -0.53132  -0.53056
 Alpha  occ. eigenvalues --   -0.52172  -0.51848  -0.51322  -0.50719  -0.50335
 Alpha  occ. eigenvalues --   -0.50058  -0.49525  -0.49334  -0.49026  -0.48778
 Alpha  occ. eigenvalues --   -0.47983  -0.47813  -0.47615  -0.47282  -0.47175
 Alpha  occ. eigenvalues --   -0.46595  -0.46585  -0.46250  -0.46179  -0.45753
 Alpha  occ. eigenvalues --   -0.45542  -0.45117  -0.45034  -0.44889  -0.44573
 Alpha  occ. eigenvalues --   -0.44269  -0.44045  -0.43893  -0.43696  -0.43552
 Alpha  occ. eigenvalues --   -0.43397  -0.43099  -0.42976  -0.42671  -0.42571
 Alpha  occ. eigenvalues --   -0.42385  -0.42131  -0.42051  -0.41797  -0.41514
 Alpha  occ. eigenvalues --   -0.41196  -0.41148  -0.40853  -0.40550  -0.40292
 Alpha  occ. eigenvalues --   -0.40259  -0.40101  -0.39965  -0.39629  -0.39475
 Alpha  occ. eigenvalues --   -0.39306  -0.39170  -0.39087  -0.38918  -0.38656
 Alpha  occ. eigenvalues --   -0.38482  -0.38207  -0.37832  -0.37594  -0.37271
 Alpha  occ. eigenvalues --   -0.37204  -0.37086  -0.36876  -0.36518  -0.36363
 Alpha  occ. eigenvalues --   -0.36290  -0.35981  -0.35936  -0.35697  -0.35645
 Alpha  occ. eigenvalues --   -0.35306  -0.35153  -0.35037  -0.34843  -0.34685
 Alpha  occ. eigenvalues --   -0.34655  -0.34506  -0.34215  -0.33916  -0.33498
 Alpha  occ. eigenvalues --   -0.32972  -0.32957  -0.32883  -0.32747  -0.32596
 Alpha  occ. eigenvalues --   -0.32381  -0.32199  -0.32050  -0.31942  -0.31616
 Alpha  occ. eigenvalues --   -0.31414  -0.30986  -0.30954  -0.30565  -0.29853
 Alpha  occ. eigenvalues --   -0.29245  -0.28971  -0.28723  -0.27898  -0.27870
 Alpha  occ. eigenvalues --   -0.27488  -0.27438  -0.26728  -0.25820  -0.25251
 Alpha  occ. eigenvalues --   -0.25115  -0.23722  -0.22983  -0.22478  -0.20315
 Alpha  occ. eigenvalues --   -0.18921
 Alpha virt. eigenvalues --   -0.10422  -0.08103  -0.04850  -0.02857  -0.00962
 Alpha virt. eigenvalues --   -0.00716  -0.00466   0.00290   0.01822   0.03227
 Alpha virt. eigenvalues --    0.03625   0.03867   0.04128   0.04398   0.04548

 Mulliken charges:
               1
     1  C    0.058005
     2  C   -0.056706
     3  C   -0.019748
     4  C   -0.076837
     5  N   -0.125601
     6  C   -0.076804
     7  C   -0.176585
     8  C    0.051495
     9  C   -0.057940
    10  C    0.131655
    11  C    0.157969
    12  C    0.010924
    13  C    0.200927
    14  O   -0.277414
    15  O   -0.331299
    16  N   -0.058703
    17  C    0.126566
    18  C   -0.055937
    19  C    0.027119
    20  C    0.082775
    21  C   -0.107862
    22  C   -0.074334
    23  C   -0.036522
    24  N   -0.327432
    25  C    0.117366
    26  C   -0.171961
    27  C   -0.049485
    28  C    0.079372
    29  C    0.043104
    30  C    0.099427
    31  C    0.032950
    32  N   -0.215215
    33  C    0.079020
    34  C   -0.063719
    35  C    0.023527
    36  C    0.126710
    37  C    0.018984
    38  C    0.063328
    39  O   -0.145952
    40  C   -0.047773
    41  C    0.234750
    42  O   -0.174352
    43  O   -0.346061
    44  C    0.133349
    45  C    0.327630
    46  C   -0.142187
    47  C   -0.156567
    48  C    0.030405
    49  C   -0.026717
    50  C    0.035865
    51  C    0.038130
    52  C   -0.001341
    53  C   -0.026904
    54  C    0.034447
    55  C    0.160636
    56  C   -0.056989
    57  C   -0.108959
    58  C    0.005308
    59  C    0.053114
    60  C    0.020144
    61  C   -0.026146
    62  C   -0.166110
    63  C    0.014052
    64  C    0.205774
    65  H   -0.061059
    66  H   -0.058888
    67  H   -0.014980
    68  H    0.023276
    69  H   -0.028666
    70  H   -0.010623
    71  H   -0.005429
    72  H    0.003339
    73  H   -0.019090
    74  H    0.015094
    75  H    0.035877
    76  H    0.058233
    77  H    0.061379
    78  H    0.053023
    79  H    0.056465
    80  H    0.012010
    81  H    0.029809
    82  H    0.035624
    83  H    0.066417
    84  H    0.034083
    85  H    0.028413
    86  H   -0.003921
    87  H   -0.021908
    88  H    0.027144
    89  H   -0.000677
    90  H   -0.004264
    91  H    0.025505
    92  H    0.041961
    93  H    0.017967
    94  H    0.069031
    95  H    0.039806
    96  H    0.033481
    97  H    0.054767
    98  H    0.008466
    99  H    0.015765
   100  H    0.013576
   101  H    0.016911
   102  H    0.033569
   103  H    0.055165
   104  H    0.011526
   105  H   -0.002337
   106  H    0.029587
   107  H    0.007597
   108  H   -0.013804
   109  H   -0.034766
   110  H   -0.045289
   111  H    0.018605
   112  H    0.023821
   113  H    0.010793
   114  H   -0.011245
   115  H   -0.026465
   116  H   -0.081339
   117  H    0.010573
   118  H   -0.005439
   119  H    0.011349
   120  H    0.009139
   121  H    0.007793
   122  H    0.029240
   123  H    0.003047
   124  H   -0.015639
   125  H    0.004877
   126  H   -0.033481
   127  H    0.009545
   128  H   -0.013712
   129  H    0.007893
   130  H   -0.010222
   131  H   -0.010632
   132  H    0.015888
   133  H    0.038293
   134  H   -0.047469
   135  H   -0.022715
   136  H    0.024158
   137  H    0.158164
   138  H    0.167353
 Sum of Mulliken charges =   0.00000

 Dipole moment (field-independent basis, Debye):
    X=              1.2873    Y=              4.0989    Z=              1.0797  Tot=              4.4299
 Quadrupole moment (field-independent basis, Debye-Ang):
   XX=           -344.7105   YY=           -378.8693   ZZ=           -395.5640
   XY=            -22.6409   XZ=             17.3191   YZ=             -0.9220

 Normal termination of Gaussian 09 at Wed Jul 31 03:20:32 2019.
