 Gaussian 09, Revision D.01,
 Gaussian 09:  ES64L-G09RevD.01 24-Apr-2013

 --------------------------
 # td=(NStates=1) B3LYP/SVP
 --------------------------

 --
 TD
 --
 Symbolic Z-matrix:
 Charge =  0 Multiplicity = 1

                         Standard orientation:
 ---------------------------------------------------------------------
 Center     Atomic      Atomic             Coordinates (Angstroms)
 Number     Number       Type             X           Y           Z
 ---------------------------------------------------------------------
      1          6           0       -5.116529   -1.921876    0.599848
      2          6           0       -4.729755    2.831632    1.389270
      3          6           0       -9.425538    3.286233   -0.226190
      4          6           0       -9.814968   -1.517289   -0.843656
      5          7           0       -5.111592    0.508114    0.891844
      6          6           0       -4.401810   -0.740112    0.957687
      7          6           0       -3.003836   -0.484415    1.343144
      8          6           0       -2.963327    1.046867    1.810424
      9          6           0       -4.409017    1.456629    1.319917
     10          6           0       -2.737567    1.163577    3.327087
     11          6           0       -2.032064   -0.832618    0.174250
     12          6           0       -0.584243   -0.697181    0.531811
     13          6           0        0.402029   -0.959538   -0.636623
     14          8           0        0.047937   -1.357518   -1.744606
     15          8           0        1.688328   -0.684903   -0.215791
     16          7           0       -7.113508    2.689231    0.496467
     17          6           0       -5.979296    3.401043    0.951442
     18          6           0       -6.296084    4.783822    0.859481
     19          6           0       -7.581853    4.892070    0.421818
     20          6           0       -8.063773    3.485649    0.081953
     21          6           0       -5.365830    5.872730    1.329644
     22          6           0       -8.305114    6.177248    0.231872
     23          6           0       -9.209233    6.371298   -0.739478
     24          7           0       -9.222443    0.818699   -0.483418
     25          6           0       -9.964633    1.975392   -0.533254
     26          6           0      -11.280543    1.792757   -1.033236
     27          6           0      -11.420860    0.451847   -1.091061
     28          6           0      -10.177203   -0.175433   -0.760813
     29          6           0      -12.374644    2.832265   -0.983914
     30          6           0      -12.646637   -0.451534   -1.552511
     31          6           0      -12.782050   -0.458620   -3.075657
     32          7           0       -7.493402   -1.242493   -0.148897
     33          6           0       -8.562229   -2.035580   -0.559404
     34          6           0       -8.134861   -3.460836   -0.627003
     35          6           0       -6.834169   -3.368560   -0.052523
     36          6           0       -6.421947   -2.079735    0.171415
     37          6           0       -8.803083   -4.693379   -1.042794
     38          6           0       -5.628695   -4.241570    0.094762
     39          8           0       -5.533416   -5.452245   -0.085692
     40          6           0       -4.492184   -3.279998    0.511263
     41          6           0       -3.834695   -3.744331    1.819101
     42          8           0       -3.966683   -3.101256    2.889659
     43          8           0       -3.027119   -4.774573    1.605073
     44          6           0       -2.544479   -5.411358    2.749445
     45          6           0        2.776125   -0.986039   -1.194784
     46          6           0        3.972536   -0.538224   -0.585021
     47          6           0        4.988884    0.104336   -1.137584
     48          6           0        4.913473    0.582651   -2.547790
     49          6           0        6.311118    0.398328   -0.464501
     50          6           0        7.362723   -0.463800   -0.988290
     51          6           0        8.716661   -0.289532   -0.225441
     52          6           0        9.953247   -0.846965   -0.816957
     53          6           0        9.957913   -2.356855   -1.370099
     54          6           0       11.233385   -0.436540    0.010965
     55          6           0       12.672532   -0.548022   -0.637830
     56          6           0       13.823173   -0.118543    0.200049
     57          6           0       15.234772   -0.125194   -0.496380
     58          6           0       15.612085   -1.514188   -0.612515
     59          6           0       16.156320    0.689287    0.482745
     60          6           0       17.600195    0.807643   -0.156590
     61          6           0       18.581843    1.600230    0.740542
     62          6           0       20.112144    1.570506    0.223302
     63          6           0       20.276907    2.230655   -1.097992
     64          6           0       20.894500    2.316648    1.327292
     65          1           0       -3.919718    3.641624    1.671839
     66          1           0      -10.058752    4.206024   -0.310506
     67          1           0      -10.479981   -2.255549   -1.130920
     68          1           0       -2.745010   -1.151908    2.011260
     69          1           0       -2.164839    1.654988    1.178264
     70          1           0       -1.621613    0.788950    3.447992
     71          1           0       -2.764013    2.281572    3.606035
     72          1           0       -3.526511    0.818278    3.875018
     73          1           0       -2.433174   -1.939872   -0.076461
     74          1           0       -2.432136   -0.132258   -0.681595
     75          1           0       -0.575983    0.529025    0.982558
     76          1           0       -0.307651   -1.426162    1.254193
     77          1           0       -4.637294    6.080464    0.641859
     78          1           0       -5.756734    6.864279    1.673358
     79          1           0       -4.662600    5.682193    2.306840
     80          1           0       -8.193264    7.055862    0.712075
     81          1           0       -9.504144    5.527394   -1.444159
     82          1           0       -9.761788    7.387844   -0.889264
     83          1           0      -12.376250    3.228334    0.028153
     84          1           0      -12.474542    3.863408   -1.547969
     85          1           0      -13.344641    2.551147   -1.431600
     86          1           0      -12.551099   -1.355067   -1.190181
     87          1           0      -13.455294   -0.013166   -0.934496
     88          1           0      -13.082821    0.437198   -3.465548
     89          1           0      -11.791076   -0.943863   -3.528882
     90          1           0      -13.631760   -1.160604   -3.260321
     91          1           0       -9.400257   -5.313357   -0.115880
     92          1           0       -9.384891   -4.085664   -1.940781
     93          1           0       -8.090227   -5.434873   -1.812853
     94          1           0       -3.577375   -3.252093   -0.210100
     95          1           0       -2.272777   -6.517445    2.339265
     96          1           0       -1.531750   -4.860645    3.091036
     97          1           0       -3.570194   -5.466822    3.473829
     98          1           0        2.482799   -2.176375   -1.080626
     99          1           0        2.647805   -0.604322   -2.194529
    100          1           0        4.179932   -1.107736    0.405551
    101          1           0        4.967997    1.734387   -2.622025
    102          1           0        5.751628   -0.097701   -2.995989
    103          1           0        3.970668    0.463729   -2.966911
    104          1           0        6.701774    1.460719   -0.739427
    105          1           0        5.994961    0.142589    0.457464
    106          1           0        7.191466   -1.567576   -1.152881
    107          1           0        7.767444    0.105748   -1.923017
    108          1           0        8.884637    0.769034   -0.001822
    109          1           0        8.619593   -0.712704    0.812063
    110          1           0       10.015737   -0.454056   -1.753642
    111          1           0        9.098702   -2.416884   -1.897109
    112          1           0       11.059190   -2.465152   -2.117027
    113          1           0        9.844178   -3.176244   -0.532583
    114          1           0       11.210464    0.578164    0.673648
    115          1           0       11.188717   -1.108772    1.113550
    116          1           0       12.940161   -1.668901   -0.764397
    117          1           0       12.660337    0.003496   -1.688455
    118          1           0       13.805887    0.885951    0.443775
    119          1           0       14.085986   -0.862813    1.128066
    120          1           0       15.102477    0.628571   -1.488698
    121          1           0       14.895033   -2.134519   -1.204641
    122          1           0       16.575560   -1.685276   -1.103331
    123          1           0       15.317232   -2.116285    0.408551
    124          1           0       15.861981    1.664051    0.617650
    125          1           0       16.322832    0.104191    1.458455
    126          1           0       18.125625   -0.106753   -0.260033
    127          1           0       17.580855    1.242264   -1.197724
    128          1           0       18.096985    2.746067    0.715731
    129          1           0       18.591990    1.132467    1.762993
    130          1           0       20.603456    0.702148    0.178059
    131          1           0       19.663168    3.402501   -1.209306
    132          1           0       21.335785    2.560314   -1.234004
    133          1           0       19.880370    1.421802   -1.917364
    134          1           0       20.558268    2.013709    2.344483
    135          1           0       22.021840    2.362174    1.264191
    136          1           0       20.526748    3.305608    1.340024
    137          1           0       -7.159435    1.609105    0.348598
    138          1           0       -7.755331   -0.377720   -0.054317
 ---------------------------------------------------------------------

 SCF Done:  E(RB3LYP) =  -2732.92377386     A.U. after   17 cycles

 Excitation energies and oscillator strengths:

 Excited State   1:      Singlet-A      2.0880 eV  593.78 nm  f=0.1167  <S**2>=0.000
     235 -> 237        0.23008
     235 -> 238        0.30649
     236 -> 237        0.55529
     236 -> 238       -0.20343
 This state for optimization and/or second-order correction.
 Total Energy, E(TD-HF/TD-KS) =  -2732.84703987
 Copying the excited state density for this state as the 1-particle RhoCI density.

 The electronic state is 1-A.
 Alpha  occ. eigenvalues --  -19.19220 -19.17239 -19.12777 -19.12731 -19.11985
 Alpha  occ. eigenvalues --  -14.37542 -14.35745 -14.31706 -14.29431 -10.32366
 Alpha  occ. eigenvalues --  -10.31803 -10.27750 -10.27732 -10.25406 -10.24223
 Alpha  occ. eigenvalues --  -10.23899 -10.23264 -10.23257 -10.23221 -10.23197
 Alpha  occ. eigenvalues --  -10.22254 -10.21889 -10.21738 -10.21524 -10.21316
 Alpha  occ. eigenvalues --  -10.21013 -10.20996 -10.20887 -10.20741 -10.20578
 Alpha  occ. eigenvalues --  -10.20517 -10.20485 -10.20474 -10.20430 -10.20384
 Alpha  occ. eigenvalues --  -10.20292 -10.20260 -10.20225 -10.20121 -10.20076
 Alpha  occ. eigenvalues --  -10.20025 -10.19889 -10.19830 -10.19809 -10.19720
 Alpha  occ. eigenvalues --  -10.19624 -10.19419 -10.19365 -10.19335 -10.19143
 Alpha  occ. eigenvalues --  -10.18769 -10.18769 -10.18620 -10.18520 -10.18515
 Alpha  occ. eigenvalues --  -10.18441 -10.18330 -10.18300 -10.18149 -10.18127
 Alpha  occ. eigenvalues --  -10.18079 -10.18060 -10.17706 -10.17124  -1.11168
 Alpha  occ. eigenvalues --   -1.07118  -1.01629  -0.99835  -0.99685  -0.98496
 Alpha  occ. eigenvalues --   -0.97826  -0.94620  -0.92619  -0.86003  -0.84752
 Alpha  occ. eigenvalues --   -0.82231  -0.81839  -0.81487  -0.81165  -0.80346
 Alpha  occ. eigenvalues --   -0.80133  -0.79739  -0.78906  -0.78503  -0.77912
 Alpha  occ. eigenvalues --   -0.76584  -0.75898  -0.75801  -0.75270  -0.74497
 Alpha  occ. eigenvalues --   -0.73801  -0.73194  -0.72537  -0.72160  -0.70352
 Alpha  occ. eigenvalues --   -0.70187  -0.69178  -0.68709  -0.68536  -0.67220
 Alpha  occ. eigenvalues --   -0.67111  -0.66632  -0.66253  -0.65316  -0.65081
 Alpha  occ. eigenvalues --   -0.63878  -0.62496  -0.62033  -0.61813  -0.60962
 Alpha  occ. eigenvalues --   -0.60232  -0.58578  -0.57972  -0.57651  -0.57050
 Alpha  occ. eigenvalues --   -0.56516  -0.55990  -0.55473  -0.55382  -0.55238
 Alpha  occ. eigenvalues --   -0.55140  -0.54702  -0.54147  -0.53602  -0.52956
 Alpha  occ. eigenvalues --   -0.52729  -0.51911  -0.51064  -0.50885  -0.50611
 Alpha  occ. eigenvalues --   -0.50505  -0.49663  -0.49596  -0.49065  -0.48817
 Alpha  occ. eigenvalues --   -0.48567  -0.47689  -0.47646  -0.47222  -0.46708
 Alpha  occ. eigenvalues --   -0.46619  -0.46231  -0.46079  -0.45854  -0.45721
 Alpha  occ. eigenvalues --   -0.45273  -0.44991  -0.44850  -0.44458  -0.44339
 Alpha  occ. eigenvalues --   -0.44069  -0.43927  -0.43722  -0.43526  -0.43440
 Alpha  occ. eigenvalues --   -0.43244  -0.42924  -0.42798  -0.42771  -0.42408
 Alpha  occ. eigenvalues --   -0.42229  -0.41882  -0.41851  -0.41717  -0.41429
 Alpha  occ. eigenvalues --   -0.41242  -0.41176  -0.40952  -0.40700  -0.40673
 Alpha  occ. eigenvalues --   -0.39842  -0.39759  -0.39607  -0.39426  -0.39347
 Alpha  occ. eigenvalues --   -0.39308  -0.38671  -0.38564  -0.38291  -0.38176
 Alpha  occ. eigenvalues --   -0.37966  -0.37754  -0.37580  -0.37561  -0.37338
 Alpha  occ. eigenvalues --   -0.37255  -0.37116  -0.37042  -0.36850  -0.36467
 Alpha  occ. eigenvalues --   -0.35996  -0.35963  -0.35591  -0.35580  -0.35468
 Alpha  occ. eigenvalues --   -0.35268  -0.35002  -0.34805  -0.34672  -0.34609
 Alpha  occ. eigenvalues --   -0.34510  -0.34419  -0.34147  -0.34072  -0.33503
 Alpha  occ. eigenvalues --   -0.33428  -0.33142  -0.32725  -0.32244  -0.32135
 Alpha  occ. eigenvalues --   -0.31746  -0.31640  -0.31573  -0.31374  -0.31129
 Alpha  occ. eigenvalues --   -0.30999  -0.30668  -0.30554  -0.30339  -0.29861
 Alpha  occ. eigenvalues --   -0.29740  -0.28696  -0.28363  -0.28110  -0.27966
 Alpha  occ. eigenvalues --   -0.27749  -0.26858  -0.26340  -0.25992  -0.25498
 Alpha  occ. eigenvalues --   -0.25363  -0.24704  -0.24284  -0.22444  -0.19546
 Alpha  occ. eigenvalues --   -0.18682
 Alpha virt. eigenvalues --   -0.09738  -0.07911  -0.04654  -0.01640  -0.01569
 Alpha virt. eigenvalues --   -0.00899  -0.00454   0.00681   0.02365   0.03086
 Alpha virt. eigenvalues --    0.03151   0.03466   0.03781   0.03815   0.04102

 Mulliken charges:
               1
     1  C    0.047983
     2  C   -0.088634
     3  C   -0.104720
     4  C   -0.037118
     5  N   -0.138343
     6  C   -0.088496
     7  C    0.155412
     8  C   -0.137578
     9  C   -0.014186
    10  C    0.099053
    11  C   -0.067373
    12  C    0.037094
    13  C    0.211526
    14  O   -0.240518
    15  O   -0.357860
    16  N   -0.071046
    17  C    0.081831
    18  C   -0.060211
    19  C    0.003221
    20  C    0.091015
    21  C    0.063996
    22  C    0.014570
    23  C   -0.105144
    24  N   -0.303141
    25  C    0.074204
    26  C   -0.097948
    27  C   -0.122334
    28  C    0.118217
    29  C    0.024899
    30  C    0.154097
    31  C    0.038388
    32  N    0.042687
    33  C   -0.001689
    34  C   -0.090135
    35  C   -0.021340
    36  C    0.149004
    37  C   -0.081820
    38  C    0.095982
    39  O   -0.181371
    40  C   -0.121928
    41  C    0.207151
    42  O   -0.262456
    43  O   -0.246637
    44  C    0.064206
    45  C    0.231157
    46  C   -0.044719
    47  C   -0.220868
    48  C    0.084400
    49  C    0.218793
    50  C   -0.066995
    51  C    0.020667
    52  C    0.029707
    53  C   -0.031056
    54  C   -0.066691
    55  C    0.053808
    56  C    0.012457
    57  C   -0.158673
    58  C    0.050983
    59  C    0.087880
    60  C    0.007690
    61  C   -0.045248
    62  C   -0.023715
    63  C   -0.057244
    64  C    0.045559
    65  H    0.016924
    66  H    0.007338
    67  H   -0.067062
    68  H   -0.077979
    69  H    0.025561
    70  H    0.038313
    71  H    0.003704
    72  H    0.009577
    73  H    0.019773
    74  H    0.029112
    75  H    0.064890
    76  H    0.017790
    77  H    0.001486
    78  H    0.022414
    79  H    0.028217
    80  H   -0.049285
    81  H    0.046457
    82  H    0.039435
    83  H    0.029840
    84  H    0.006671
    85  H    0.013900
    86  H   -0.061525
    87  H   -0.000221
    88  H   -0.001327
    89  H    0.035604
    90  H    0.006802
    91  H    0.094571
    92  H    0.045474
    93  H    0.078273
    94  H    0.098518
    95  H    0.061554
    96  H    0.063680
    97  H    0.077210
    98  H    0.038286
    99  H    0.023238
   100  H   -0.003004
   101  H    0.028938
   102  H    0.054686
   103  H   -0.026348
   104  H    0.018801
   105  H   -0.041082
   106  H    0.030481
   107  H    0.013138
   108  H   -0.012894
   109  H   -0.016397
   110  H   -0.043264
   111  H   -0.010000
   112  H    0.047483
   113  H    0.023624
   114  H    0.010588
   115  H   -0.004818
   116  H    0.011068
   117  H    0.016125
   118  H   -0.039295
   119  H    0.013466
   120  H    0.013480
   121  H   -0.000185
   122  H    0.016035
   123  H    0.013842
   124  H   -0.024675
   125  H    0.003428
   126  H   -0.017837
   127  H    0.000803
   128  H    0.018347
   129  H    0.008582
   130  H   -0.030092
   131  H    0.018405
   132  H    0.019364
   133  H    0.038697
   134  H   -0.008356
   135  H    0.014634
   136  H   -0.026264
   137  H    0.200236
   138  H    0.022644
 Sum of Mulliken charges =   0.00000

 Dipole moment (field-independent basis, Debye):
    X=              3.2107    Y=              3.6379    Z=              0.4268  Tot=              4.8708
 Quadrupole moment (field-independent basis, Debye-Ang):
   XX=           -349.5314   YY=           -377.8867   ZZ=           -402.2901
   XY=            -26.5351   XZ=              1.2132   YZ=             -3.2392

 Normal termination of Gaussian 09 at Sun Aug  4 15:18:33 2019.
