 Gaussian 09, Revision D.01,
 Gaussian 09:  ES64L-G09RevD.01 24-Apr-2013

 --------------------------
 # td=(NStates=1) B3LYP/SVP
 --------------------------

 --
 TD
 --
 Symbolic Z-matrix:
 Charge =  0 Multiplicity = 1

                         Standard orientation:
 ---------------------------------------------------------------------
 Center     Atomic      Atomic             Coordinates (Angstroms)
 Number     Number       Type             X           Y           Z
 ---------------------------------------------------------------------
      1          6           0       -5.183924   -1.861471    0.354216
      2          6           0       -4.732981    2.773923    1.495927
      3          6           0       -9.284476    3.253176   -0.259570
      4          6           0       -9.815890   -1.469069   -0.917950
      5          7           0       -5.308347    0.486940    0.868873
      6          6           0       -4.558306   -0.587186    0.727941
      7          6           0       -3.031606   -0.513915    1.185650
      8          6           0       -3.133789    0.901577    1.791847
      9          6           0       -4.416597    1.447716    1.388631
     10          6           0       -2.861997    1.027497    3.334335
     11          6           0       -2.020608   -0.740928   -0.033680
     12          6           0       -0.591474   -0.862414    0.527123
     13          6           0        0.457905   -1.166717   -0.506330
     14          8           0        0.151664   -1.552408   -1.653959
     15          8           0        1.663934   -1.014234   -0.223611
     16          7           0       -7.069319    2.787868    0.474563
     17          6           0       -5.906830    3.389553    1.023881
     18          6           0       -6.219437    4.760559    1.043109
     19          6           0       -7.507187    4.955303    0.439467
     20          6           0       -8.053753    3.611768    0.182050
     21          6           0       -5.118381    5.789345    1.425237
     22          6           0       -8.156608    6.298583    0.282566
     23          6           0       -8.889110    6.583725   -0.935725
     24          7           0       -9.296079    0.814666   -0.508982
     25          6           0       -9.896473    2.048959   -0.481506
     26          6           0      -11.303450    1.862387   -0.891643
     27          6           0      -11.405919    0.585165   -1.074348
     28          6           0      -10.097824   -0.104307   -0.797715
     29          6           0      -12.285285    3.085194   -0.878015
     30          6           0      -12.615894   -0.293685   -1.602127
     31          6           0      -12.782346   -0.423481   -2.996739
     32          7           0       -7.556570   -1.215738   -0.219027
     33          6           0       -8.576027   -1.928545   -0.635433
     34          6           0       -8.178063   -3.324552   -0.715228
     35          6           0       -6.862615   -3.368811   -0.237360
     36          6           0       -6.381078   -2.043103    0.045711
     37          6           0       -8.965474   -4.533821   -1.141323
     38          6           0       -5.648099   -4.296566   -0.061222
     39          8           0       -5.605861   -5.505590   -0.068867
     40          6           0       -4.547804   -3.228444    0.377841
     41          6           0       -3.940970   -3.803849    1.759822
     42          8           0       -4.200312   -3.552855    2.933007
     43          8           0       -2.904000   -4.681992    1.491354
     44          6           0       -2.521677   -5.291998    2.640767
     45          6           0        2.652765   -1.205669   -1.168735
     46          6           0        4.033469   -0.836219   -0.479266
     47          6           0        5.082990   -0.129069   -1.097844
     48          6           0        4.940238    0.420108   -2.441216
     49          6           0        6.212996    0.167996   -0.258067
     50          6           0        7.507834   -0.546541   -0.860051
     51          6           0        8.762046   -0.231700   -0.030597
     52          6           0       10.119462   -0.782313   -0.662576
     53          6           0       10.045736   -2.319188   -1.014236
     54          6           0       11.284426   -0.259768    0.263348
     55          6           0       12.563466   -0.650506   -0.547426
     56          6           0       13.821677   -0.008966    0.205311
     57          6           0       15.256476   -0.226757   -0.242962
     58          6           0       15.601519   -1.757448   -0.128986
     59          6           0       16.192004    0.755383    0.432269
     60          6           0       17.603013    0.804048   -0.270315
     61          6           0       18.426011    1.766888    0.451745
     62          6           0       19.942232    1.778139    0.115671
     63          6           0       20.239526    2.050516   -1.423719
     64          6           0       20.812680    2.756120    0.966309
     65          1           0       -3.976398    3.680673    1.960302
     66          1           0       -9.951873    4.134362   -0.268077
     67          1           0      -10.659369   -2.021638   -1.274689
     68          1           0       -2.711177   -1.124201    2.073764
     69          1           0       -2.287353    1.646580    1.186274
     70          1           0       -1.957431    0.566467    3.727970
     71          1           0       -2.502590    1.944411    3.821398
     72          1           0       -3.632540    0.242417    3.784927
     73          1           0       -2.378709   -1.704466   -0.543751
     74          1           0       -1.936873    0.147857   -1.046261
     75          1           0       -0.238112    0.047808    1.084606
     76          1           0       -0.623520   -1.766958    1.201194
     77          1           0       -4.415430    5.810288    0.705691
     78          1           0       -5.584043    6.871704    1.388725
     79          1           0       -4.789542    5.503516    2.559852
     80          1           0       -7.998239    7.080527    0.949575
     81          1           0       -8.866732    5.923347   -1.763904
     82          1           0       -9.379989    7.544483   -0.993072
     83          1           0      -12.460210    3.613531    0.098491
     84          1           0      -12.318762    4.012186   -1.323505
     85          1           0      -13.175337    2.439384   -1.187238
     86          1           0      -12.670456   -1.285563   -0.998649
     87          1           0      -13.599849    0.259386   -1.138813
     88          1           0      -13.131539    0.593628   -3.610804
     89          1           0      -11.834184   -0.644880   -3.477606
     90          1           0      -13.668048   -1.107994   -3.220228
     91          1           0      -10.069322   -4.447768   -0.586468
     92          1           0       -9.253827   -4.450405   -2.205720
     93          1           0       -8.255468   -5.455435   -0.747797
     94          1           0       -3.560834   -3.351088   -0.391664
     95          1           0       -1.753629   -6.150514    2.399454
     96          1           0       -1.851616   -4.661714    3.211958
     97          1           0       -3.408920   -5.836846    3.241037
     98          1           0        2.798138   -2.120415   -1.547630
     99          1           0        2.264742   -0.473624   -2.028574
    100          1           0        4.043449   -0.984159    0.638711
    101          1           0        5.068340    1.519595   -2.647499
    102          1           0        5.640360   -0.168438   -3.223160
    103          1           0        3.938404    0.054265   -2.923458
    104          1           0        6.381029    1.317388   -0.433858
    105          1           0        6.123235    0.130056    0.967115
    106          1           0        7.175003   -1.608330   -1.037877
    107          1           0        7.507178   -0.080678   -1.918036
    108          1           0        8.974244    0.974952   -0.030742
    109          1           0        8.941251   -0.736682    0.831238
    110          1           0       10.311982   -0.421346   -1.705925
    111          1           0        9.012180   -2.528067   -1.321957
    112          1           0       10.904083   -2.491342   -1.799805
    113          1           0       10.279222   -3.010802   -0.234282
    114          1           0       11.428348    0.900517    0.136742
    115          1           0       11.183431   -0.526850    1.246950
    116          1           0       12.763168   -1.709680   -0.473279
    117          1           0       12.500391   -0.258658   -1.647026
    118          1           0       13.725600    1.180006    0.241557
    119          1           0       13.692277   -0.421979    1.249662
    120          1           0       15.068327   -0.116637   -1.454161
    121          1           0       14.684460   -2.199023   -0.797942
    122          1           0       16.617792   -1.928742   -0.571565
    123          1           0       15.520621   -1.868204    0.882212
    124          1           0       15.993534    1.796478    0.437469
    125          1           0       16.409786    0.413551    1.481384
    126          1           0       18.286234   -0.126118   -0.313897
    127          1           0       17.501259    1.231942   -1.311686
    128          1           0       18.059134    2.843681    0.376283
    129          1           0       18.380282    1.603812    1.551743
    130          1           0       20.183566    0.777945    0.445738
    131          1           0       19.897784    2.996887   -1.674470
    132          1           0       21.202632    1.902636   -1.643546
    133          1           0       19.585770    1.443773   -2.086301
    134          1           0       20.795006    2.546758    2.133270
    135          1           0       21.801539    2.696514    0.615825
    136          1           0       20.519077    3.857337    0.583207
    137          1           0       -7.086496    1.662833    0.557472
    138          1           0       -7.804739   -0.243474   -0.311444
 ---------------------------------------------------------------------

 SCF Done:  E(RB3LYP) =  -2732.95232262     A.U. after   16 cycles

 Excitation energies and oscillator strengths:

 Excited State   1:      Singlet-A      2.0555 eV  603.18 nm  f=0.2388  <S**2>=0.000
     235 -> 238        0.23657
     236 -> 237        0.66439
 This state for optimization and/or second-order correction.
 Total Energy, E(TD-HF/TD-KS) =  -2732.87678371
 Copying the excited state density for this state as the 1-particle RhoCI density.

 The electronic state is 1-A.
 Alpha  occ. eigenvalues --  -19.19314 -19.18468 -19.14124 -19.13807 -19.10274
 Alpha  occ. eigenvalues --  -14.36735 -14.35414 -14.34251 -14.29308 -10.33133
 Alpha  occ. eigenvalues --  -10.31048 -10.29756 -10.25518 -10.24977 -10.24703
 Alpha  occ. eigenvalues --  -10.24628 -10.23185 -10.23101 -10.22987 -10.22931
 Alpha  occ. eigenvalues --  -10.22612 -10.22567 -10.22451 -10.22115 -10.22058
 Alpha  occ. eigenvalues --  -10.21804 -10.21717 -10.21141 -10.21043 -10.20919
 Alpha  occ. eigenvalues --  -10.20797 -10.20796 -10.20671 -10.20539 -10.20448
 Alpha  occ. eigenvalues --  -10.20419 -10.20393 -10.20284 -10.20202 -10.20137
 Alpha  occ. eigenvalues --  -10.19918 -10.19788 -10.19729 -10.19642 -10.19498
 Alpha  occ. eigenvalues --  -10.19273 -10.19266 -10.19233 -10.19215 -10.19168
 Alpha  occ. eigenvalues --  -10.19106 -10.19006 -10.18848 -10.18830 -10.18777
 Alpha  occ. eigenvalues --  -10.18723 -10.18689 -10.18624 -10.18483 -10.18427
 Alpha  occ. eigenvalues --  -10.18378 -10.18128 -10.17497 -10.16604  -1.14412
 Alpha  occ. eigenvalues --   -1.10902  -1.04256  -1.00966  -0.98558  -0.98355
 Alpha  occ. eigenvalues --   -0.97487  -0.95927  -0.95405  -0.87286  -0.82808
 Alpha  occ. eigenvalues --   -0.81836  -0.81425  -0.81217  -0.80577  -0.80258
 Alpha  occ. eigenvalues --   -0.79679  -0.79350  -0.79269  -0.79148  -0.78621
 Alpha  occ. eigenvalues --   -0.76859  -0.75801  -0.75536  -0.74876  -0.74259
 Alpha  occ. eigenvalues --   -0.73852  -0.73686  -0.71979  -0.71342  -0.70104
 Alpha  occ. eigenvalues --   -0.69574  -0.69112  -0.68623  -0.68266  -0.67870
 Alpha  occ. eigenvalues --   -0.67697  -0.66969  -0.66608  -0.66021  -0.65347
 Alpha  occ. eigenvalues --   -0.65171  -0.62843  -0.61652  -0.61314  -0.60806
 Alpha  occ. eigenvalues --   -0.59660  -0.59297  -0.58980  -0.58147  -0.57871
 Alpha  occ. eigenvalues --   -0.57112  -0.56654  -0.56013  -0.55591  -0.54945
 Alpha  occ. eigenvalues --   -0.54935  -0.54253  -0.53524  -0.53260  -0.52891
 Alpha  occ. eigenvalues --   -0.52794  -0.52478  -0.52042  -0.51887  -0.50765
 Alpha  occ. eigenvalues --   -0.50174  -0.49826  -0.49325  -0.48926  -0.48563
 Alpha  occ. eigenvalues --   -0.48198  -0.48164  -0.47999  -0.47760  -0.47229
 Alpha  occ. eigenvalues --   -0.46848  -0.46692  -0.46460  -0.46245  -0.45996
 Alpha  occ. eigenvalues --   -0.45756  -0.45411  -0.45076  -0.44788  -0.44504
 Alpha  occ. eigenvalues --   -0.44421  -0.44052  -0.43752  -0.43614  -0.43373
 Alpha  occ. eigenvalues --   -0.43281  -0.43142  -0.43103  -0.42854  -0.42330
 Alpha  occ. eigenvalues --   -0.42076  -0.41975  -0.41827  -0.41460  -0.41285
 Alpha  occ. eigenvalues --   -0.41142  -0.40976  -0.40720  -0.40616  -0.40449
 Alpha  occ. eigenvalues --   -0.40307  -0.40192  -0.39748  -0.39674  -0.39420
 Alpha  occ. eigenvalues --   -0.39066  -0.38900  -0.38833  -0.38714  -0.38625
 Alpha  occ. eigenvalues --   -0.38345  -0.38257  -0.38098  -0.37709  -0.37518
 Alpha  occ. eigenvalues --   -0.37436  -0.37302  -0.37128  -0.37076  -0.36898
 Alpha  occ. eigenvalues --   -0.36603  -0.36425  -0.36205  -0.35989  -0.35678
 Alpha  occ. eigenvalues --   -0.35658  -0.35484  -0.35328  -0.35214  -0.35110
 Alpha  occ. eigenvalues --   -0.34432  -0.34090  -0.33882  -0.33764  -0.33636
 Alpha  occ. eigenvalues --   -0.33488  -0.33257  -0.32413  -0.32301  -0.31844
 Alpha  occ. eigenvalues --   -0.31641  -0.31234  -0.30996  -0.30973  -0.30696
 Alpha  occ. eigenvalues --   -0.30640  -0.30581  -0.30548  -0.30154  -0.29948
 Alpha  occ. eigenvalues --   -0.29745  -0.29468  -0.29071  -0.28795  -0.28490
 Alpha  occ. eigenvalues --   -0.27979  -0.26989  -0.26267  -0.26182  -0.25927
 Alpha  occ. eigenvalues --   -0.25150  -0.24273  -0.23580  -0.22806  -0.20650
 Alpha  occ. eigenvalues --   -0.18463
 Alpha virt. eigenvalues --   -0.09991  -0.07647  -0.05061  -0.02802  -0.01495
 Alpha virt. eigenvalues --   -0.01373   0.00080   0.00160   0.01353   0.03073
 Alpha virt. eigenvalues --    0.03379   0.03818   0.04026   0.04293   0.04427

 Mulliken charges:
               1
     1  C    0.054243
     2  C   -0.114016
     3  C   -0.061989
     4  C   -0.107544
     5  N   -0.159311
     6  C   -0.064545
     7  C   -0.029817
     8  C   -0.086917
     9  C    0.083854
    10  C    0.051906
    11  C   -0.029098
    12  C    0.046845
    13  C    0.116661
    14  O   -0.304977
    15  O   -0.191280
    16  N   -0.113136
    17  C    0.052147
    18  C   -0.147207
    19  C    0.013960
    20  C    0.071903
    21  C    0.063981
    22  C   -0.047757
    23  C   -0.033138
    24  N   -0.168229
    25  C    0.027611
    26  C   -0.056249
    27  C   -0.099779
    28  C   -0.026048
    29  C    0.065874
    30  C   -0.019447
    31  C    0.017517
    32  N   -0.048594
    33  C    0.130329
    34  C   -0.160311
    35  C   -0.045357
    36  C    0.174319
    37  C    0.021289
    38  C    0.143520
    39  O   -0.150244
    40  C   -0.187779
    41  C    0.230760
    42  O   -0.228400
    43  O   -0.273451
    44  C    0.130855
    45  C    0.253806
    46  C   -0.132903
    47  C   -0.114844
    48  C    0.015396
    49  C    0.020951
    50  C   -0.037798
    51  C    0.092284
    52  C   -0.135175
    53  C    0.007278
    54  C    0.052500
    55  C   -0.000116
    56  C   -0.044775
    57  C   -0.099331
    58  C    0.035089
    59  C    0.087782
    60  C    0.005454
    61  C   -0.015162
    62  C   -0.104054
    63  C    0.089334
    64  C    0.013865
    65  H    0.032032
    66  H   -0.018176
    67  H   -0.039999
    68  H    0.029621
    69  H    0.023850
    70  H   -0.011539
    71  H    0.018394
    72  H    0.045676
    73  H    0.036565
    74  H    0.052999
    75  H    0.036752
    76  H    0.039044
    77  H    0.016527
    78  H    0.020314
    79  H    0.059653
    80  H   -0.007491
    81  H    0.030525
    82  H    0.023380
    83  H    0.013527
    84  H   -0.003386
    85  H    0.023768
    86  H    0.022905
    87  H    0.007781
    88  H    0.018064
    89  H    0.012258
    90  H    0.026394
    91  H    0.045295
    92  H    0.040880
    93  H    0.090661
    94  H    0.107070
    95  H    0.017912
    96  H    0.009883
    97  H    0.057149
    98  H    0.006687
    99  H    0.048609
   100  H    0.016728
   101  H    0.047116
   102  H    0.032459
   103  H    0.013523
   104  H    0.001580
   105  H    0.029459
   106  H    0.024122
   107  H    0.012555
   108  H    0.024239
   109  H   -0.022320
   110  H   -0.012200
   111  H    0.013148
   112  H    0.027680
   113  H   -0.005899
   114  H    0.012159
   115  H   -0.014728
   116  H    0.003853
   117  H    0.022615
   118  H    0.003386
   119  H   -0.013696
   120  H   -0.008321
   121  H    0.038379
   122  H    0.028409
   123  H   -0.013815
   124  H   -0.009978
   125  H   -0.000440
   126  H    0.008371
   127  H    0.007857
   128  H   -0.015854
   129  H   -0.020781
   130  H   -0.015578
   131  H   -0.016517
   132  H   -0.014286
   133  H   -0.000491
   134  H    0.033001
   135  H   -0.008292
   136  H    0.012233
   137  H    0.203808
   138  H    0.110401
 Sum of Mulliken charges =   0.00000

 Dipole moment (field-independent basis, Debye):
    X=              3.6554    Y=              3.8875    Z=              0.6451  Tot=              5.3750
 Quadrupole moment (field-independent basis, Debye-Ang):
   XX=           -366.2983   YY=           -393.3376   ZZ=           -397.0139
   XY=            -16.8889   XZ=             10.1711   YZ=             -0.4670

 Normal termination of Gaussian 09 at Fri Aug  2 10:10:05 2019.
