 Gaussian 09, Revision D.01,
 Gaussian 09:  ES64L-G09RevD.01 24-Apr-2013

 --------------------------
 # td=(NStates=1) B3LYP/SVP
 --------------------------

 --
 TD
 --
 Symbolic Z-matrix:
 Charge =  0 Multiplicity = 1

                         Standard orientation:
 ---------------------------------------------------------------------
 Center     Atomic      Atomic             Coordinates (Angstroms)
 Number     Number       Type             X           Y           Z
 ---------------------------------------------------------------------
      1          6           0       -5.176453   -1.900443    0.441227
      2          6           0       -4.785852    2.792478    1.507108
      3          6           0       -9.273840    3.244374   -0.308338
      4          6           0       -9.901001   -1.535050   -0.983309
      5          7           0       -5.199213    0.463792    0.810876
      6          6           0       -4.538963   -0.690740    0.887421
      7          6           0       -3.057569   -0.488351    1.303874
      8          6           0       -3.049154    0.903498    1.875068
      9          6           0       -4.400906    1.459477    1.359177
     10          6           0       -3.007143    0.960743    3.352340
     11          6           0       -2.004065   -0.737368    0.195405
     12          6           0       -0.506701   -0.533121    0.495472
     13          6           0        0.420136   -0.959022   -0.448090
     14          8           0        0.197349   -1.611533   -1.491126
     15          8           0        1.673933   -0.533707   -0.224344
     16          7           0       -7.003658    2.769814    0.422713
     17          6           0       -5.963572    3.391368    1.032266
     18          6           0       -6.333169    4.741235    1.170897
     19          6           0       -7.597548    4.927197    0.597686
     20          6           0       -8.046320    3.606028    0.133053
     21          6           0       -5.533907    5.771520    1.773751
     22          6           0       -8.313882    6.113854    0.318887
     23          6           0       -9.040876    6.454119   -0.779290
     24          7           0       -9.155305    0.775309   -0.511453
     25          6           0       -9.818316    1.941985   -0.568499
     26          6           0      -11.291239    1.785069   -0.981196
     27          6           0      -11.444491    0.452761   -1.057671
     28          6           0      -10.139456   -0.191089   -0.883948
     29          6           0      -12.214915    2.875050   -1.199888
     30          6           0      -12.723613   -0.299023   -1.553200
     31          6           0      -12.840320   -0.627017   -3.096876
     32          7           0       -7.578288   -1.267815   -0.237379
     33          6           0       -8.575838   -2.046945   -0.638178
     34          6           0       -8.216111   -3.355216   -0.656886
     35          6           0       -6.884413   -3.451262   -0.270535
     36          6           0       -6.475119   -2.072222   -0.016536
     37          6           0       -9.059354   -4.681693   -0.960897
     38          6           0       -5.759267   -4.275430   -0.038049
     39          8           0       -5.611709   -5.520272   -0.035122
     40          6           0       -4.500242   -3.292886    0.350875
     41          6           0       -3.848240   -3.687365    1.843462
     42          8           0       -4.273856   -3.246880    2.866387
     43          8           0       -2.979605   -4.750352    1.578002
     44          6           0       -2.438580   -5.346399    2.752303
     45          6           0        2.690393   -1.037386   -1.065655
     46          6           0        4.014546   -0.566005   -0.621664
     47          6           0        4.861555    0.297480   -1.334062
     48          6           0        4.834053    0.701735   -2.766416
     49          6           0        6.258491    0.590965   -0.668962
     50          6           0        7.490481   -0.174693   -1.106617
     51          6           0        8.771602   -0.059692   -0.221895
     52          6           0       10.125030   -0.626153   -0.838114
     53          6           0        9.956830   -2.060503   -1.138764
     54          6           0       11.403795   -0.307666    0.110255
     55          6           0       12.689486   -0.609535   -0.371047
     56          6           0       13.811548    0.025402    0.390416
     57          6           0       15.215041   -0.252560   -0.206878
     58          6           0       15.555429   -1.767552   -0.135610
     59          6           0       16.328125    0.597641    0.527719
     60          6           0       17.687739    0.575164   -0.246107
     61          6           0       18.703212    1.392282    0.526100
     62          6           0       20.199319    1.490905    0.032645
     63          6           0       20.381949    2.109525   -1.370146
     64          6           0       21.090123    2.262811    1.028137
     65          1           0       -3.869314    3.413177    1.800997
     66          1           0       -9.976436    4.138790   -0.655073
     67          1           0      -10.621927   -2.328654   -1.091482
     68          1           0       -2.820584   -1.101124    2.323379
     69          1           0       -2.218547    1.298817    1.378417
     70          1           0       -2.288409    0.590074    3.914477
     71          1           0       -3.031285    2.056492    3.568900
     72          1           0       -3.811516    0.738814    3.937785
     73          1           0       -1.963956   -1.650474   -0.384597
     74          1           0       -2.226809   -0.174823   -0.595018
     75          1           0       -0.269252    0.523539    0.850923
     76          1           0       -0.207613   -1.051811    1.524685
     77          1           0       -4.697339    6.050216    1.191665
     78          1           0       -5.939764    6.879139    2.019979
     79          1           0       -5.197325    5.366081    2.746851
     80          1           0       -7.918558    6.908812    1.006733
     81          1           0       -9.033978    5.779732   -1.598276
     82          1           0       -9.385905    7.524810   -0.669533
     83          1           0      -12.350139    3.823920   -0.505041
     84          1           0      -12.038163    3.424498   -2.210979
     85          1           0      -13.171720    2.549119   -1.493487
     86          1           0      -12.963405   -1.284967   -1.153975
     87          1           0      -13.537480    0.467604   -1.285404
     88          1           0      -12.733765    0.198272   -3.851696
     89          1           0      -12.006962   -1.529084   -3.419030
     90          1           0      -13.992670   -1.090709   -3.378457
     91          1           0       -9.772958   -4.988316   -0.270585
     92          1           0       -9.505079   -4.829111   -1.941901
     93          1           0       -8.507929   -5.725053   -0.922430
     94          1           0       -3.668891   -3.459806   -0.416714
     95          1           0       -1.918435   -6.135719    2.354535
     96          1           0       -1.681663   -4.773670    3.256276
     97          1           0       -3.215580   -5.392486    3.524431
     98          1           0        2.636369   -2.216430   -1.015724
     99          1           0        2.537420   -0.668513   -2.174298
    100          1           0        4.429669   -0.879031    0.405353
    101          1           0        5.167490    1.789083   -3.120718
    102          1           0        5.572475   -0.218165   -3.349087
    103          1           0        3.792796    0.453920   -3.347597
    104          1           0        6.507314    1.556268   -0.612699
    105          1           0        6.312409    0.313697    0.493624
    106          1           0        7.276891   -1.211175   -1.531118
    107          1           0        7.659282    0.356810   -2.140217
    108          1           0        8.850515    1.118331   -0.155733
    109          1           0        8.416345   -0.423639    0.790586
    110          1           0       10.507823   -0.037213   -1.675106
    111          1           0        9.199956   -2.360044   -1.859058
    112          1           0       10.810515   -2.511968   -1.221671
    113          1           0        9.716084   -2.425532   -0.065895
    114          1           0       11.231644    0.816409    0.213283
    115          1           0       11.183630   -0.794791    1.030781
    116          1           0       12.786880   -1.624548   -0.291479
    117          1           0       12.823752   -0.301584   -1.424948
    118          1           0       13.617876    1.189472    0.623494
    119          1           0       13.692006   -0.174454    1.520427
    120          1           0       15.041827   -0.071357   -1.363896
    121          1           0       14.820295   -2.305308   -0.630699
    122          1           0       16.433304   -1.856120   -0.701189
    123          1           0       15.506358   -2.211496    0.848705
    124          1           0       15.846414    1.695396    0.690313
    125          1           0       16.424485    0.275485    1.575718
    126          1           0       18.017037   -0.563508   -0.297863
    127          1           0       17.644001    1.010165   -1.228274
    128          1           0       18.122487    2.358305    0.577155
    129          1           0       18.851845    1.116143    1.613157
    130          1           0       20.560443    0.322367   -0.055923
    131          1           0       20.497691    3.209796   -1.462295
    132          1           0       21.318957    1.535413   -1.831337
    133          1           0       19.388116    1.817608   -1.922713
    134          1           0       21.284988    1.591888    1.938768
    135          1           0       22.043723    2.291898    0.547249
    136          1           0       20.933189    3.379144    1.332629
    137          1           0       -6.953447    1.787652    0.001669
    138          1           0       -7.831823   -0.225920   -0.056729
 ---------------------------------------------------------------------

 SCF Done:  E(RB3LYP) =  -2733.07780206     A.U. after   17 cycles

 Excitation energies and oscillator strengths:

 Excited State   1:      Singlet-A      2.0260 eV  611.97 nm  f=0.2928  <S**2>=0.000
     235 -> 237       -0.12758
     235 -> 238        0.23173
     236 -> 237        0.65188
 This state for optimization and/or second-order correction.
 Total Energy, E(TD-HF/TD-KS) =  -2733.00334834
 Copying the excited state density for this state as the 1-particle RhoCI density.

 The electronic state is 1-A.
 Alpha  occ. eigenvalues --  -19.17702 -19.17540 -19.13996 -19.11649 -19.10770
 Alpha  occ. eigenvalues --  -14.37275 -14.36082 -14.32772 -14.31682 -10.32098
 Alpha  occ. eigenvalues --  -10.31295 -10.26947 -10.25610 -10.24071 -10.23377
 Alpha  occ. eigenvalues --  -10.23327 -10.23243 -10.23156 -10.23138 -10.23023
 Alpha  occ. eigenvalues --  -10.22874 -10.22408 -10.21969 -10.21935 -10.21827
 Alpha  occ. eigenvalues --  -10.21697 -10.21471 -10.21094 -10.20876 -10.20846
 Alpha  occ. eigenvalues --  -10.20556 -10.20422 -10.20405 -10.20370 -10.20343
 Alpha  occ. eigenvalues --  -10.20315 -10.20311 -10.20244 -10.20229 -10.20140
 Alpha  occ. eigenvalues --  -10.20038 -10.19997 -10.19995 -10.19868 -10.19787
 Alpha  occ. eigenvalues --  -10.19682 -10.19613 -10.19466 -10.19355 -10.19287
 Alpha  occ. eigenvalues --  -10.19245 -10.19215 -10.19087 -10.18952 -10.18934
 Alpha  occ. eigenvalues --  -10.18911 -10.18602 -10.18448 -10.18182 -10.17601
 Alpha  occ. eigenvalues --  -10.17033 -10.16907 -10.16731 -10.16502  -1.09801
 Alpha  occ. eigenvalues --   -1.08343  -1.02029  -0.99338  -0.98893  -0.98678
 Alpha  occ. eigenvalues --   -0.98493  -0.94452  -0.93386  -0.83708  -0.82804
 Alpha  occ. eigenvalues --   -0.82652  -0.82471  -0.81533  -0.81421  -0.80426
 Alpha  occ. eigenvalues --   -0.80008  -0.79893  -0.79294  -0.79028  -0.78484
 Alpha  occ. eigenvalues --   -0.77126  -0.76639  -0.75567  -0.74821  -0.74233
 Alpha  occ. eigenvalues --   -0.73690  -0.73141  -0.72784  -0.71763  -0.70932
 Alpha  occ. eigenvalues --   -0.70543  -0.69445  -0.68706  -0.67676  -0.67482
 Alpha  occ. eigenvalues --   -0.67086  -0.66815  -0.66451  -0.66401  -0.65861
 Alpha  occ. eigenvalues --   -0.64365  -0.63404  -0.62754  -0.61508  -0.61187
 Alpha  occ. eigenvalues --   -0.60435  -0.58706  -0.58559  -0.58161  -0.57212
 Alpha  occ. eigenvalues --   -0.56848  -0.56257  -0.55904  -0.55795  -0.55375
 Alpha  occ. eigenvalues --   -0.54995  -0.54778  -0.53742  -0.53461  -0.53434
 Alpha  occ. eigenvalues --   -0.53002  -0.51970  -0.51468  -0.51163  -0.50311
 Alpha  occ. eigenvalues --   -0.49824  -0.49784  -0.49414  -0.48946  -0.48378
 Alpha  occ. eigenvalues --   -0.48037  -0.47615  -0.47180  -0.46979  -0.46846
 Alpha  occ. eigenvalues --   -0.46651  -0.46348  -0.46100  -0.45879  -0.45702
 Alpha  occ. eigenvalues --   -0.45645  -0.45499  -0.45214  -0.45135  -0.44713
 Alpha  occ. eigenvalues --   -0.44374  -0.43860  -0.43669  -0.43348  -0.43237
 Alpha  occ. eigenvalues --   -0.42921  -0.42862  -0.42807  -0.42591  -0.42376
 Alpha  occ. eigenvalues --   -0.42287  -0.42011  -0.41943  -0.41857  -0.41573
 Alpha  occ. eigenvalues --   -0.41472  -0.41241  -0.40999  -0.40919  -0.40566
 Alpha  occ. eigenvalues --   -0.40334  -0.40282  -0.39957  -0.39648  -0.39299
 Alpha  occ. eigenvalues --   -0.39147  -0.38894  -0.38727  -0.38408  -0.38115
 Alpha  occ. eigenvalues --   -0.37982  -0.37958  -0.37716  -0.37604  -0.37596
 Alpha  occ. eigenvalues --   -0.37264  -0.36998  -0.36882  -0.36798  -0.36624
 Alpha  occ. eigenvalues --   -0.36478  -0.36459  -0.36242  -0.35911  -0.35677
 Alpha  occ. eigenvalues --   -0.35599  -0.35501  -0.35349  -0.34946  -0.34794
 Alpha  occ. eigenvalues --   -0.34359  -0.34317  -0.33783  -0.33697  -0.33689
 Alpha  occ. eigenvalues --   -0.33009  -0.32927  -0.32496  -0.32463  -0.32151
 Alpha  occ. eigenvalues --   -0.32110  -0.31879  -0.31503  -0.31305  -0.31073
 Alpha  occ. eigenvalues --   -0.30996  -0.30497  -0.30130  -0.30092  -0.29831
 Alpha  occ. eigenvalues --   -0.29533  -0.29409  -0.28672  -0.28388  -0.28241
 Alpha  occ. eigenvalues --   -0.27759  -0.27630  -0.27475  -0.26765  -0.26143
 Alpha  occ. eigenvalues --   -0.24313  -0.24030  -0.23629  -0.23518  -0.20787
 Alpha  occ. eigenvalues --   -0.18450
 Alpha virt. eigenvalues --   -0.10599  -0.07629  -0.04667  -0.02364  -0.02153
 Alpha virt. eigenvalues --   -0.01295  -0.00450   0.00655   0.02261   0.03420
 Alpha virt. eigenvalues --    0.03658   0.03951   0.03972   0.04705   0.04993

 Mulliken charges:
               1
     1  C    0.035360
     2  C   -0.087216
     3  C   -0.115101
     4  C   -0.074707
     5  N   -0.172530
     6  C   -0.059979
     7  C   -0.071144
     8  C    0.051919
     9  C   -0.066384
    10  C    0.187986
    11  C    0.155462
    12  C   -0.009399
    13  C    0.172488
    14  O   -0.278468
    15  O   -0.291703
    16  N   -0.074936
    17  C    0.126037
    18  C   -0.077068
    19  C    0.032324
    20  C    0.060155
    21  C    0.049373
    22  C   -0.084991
    23  C   -0.000093
    24  N   -0.274515
    25  C    0.050531
    26  C   -0.087108
    27  C   -0.065755
    28  C    0.143867
    29  C    0.066598
    30  C    0.066951
    31  C   -0.116805
    32  N   -0.039539
    33  C   -0.000352
    34  C   -0.114407
    35  C    0.079655
    36  C    0.057762
    37  C    0.058418
    38  C    0.052942
    39  O   -0.214026
    40  C   -0.121447
    41  C    0.228638
    42  O   -0.188498
    43  O   -0.318104
    44  C    0.232174
    45  C    0.242075
    46  C   -0.094326
    47  C   -0.075748
    48  C   -0.085148
    49  C    0.076014
    50  C   -0.045435
    51  C    0.000244
    52  C   -0.083127
    53  C    0.150042
    54  C   -0.010055
    55  C    0.162686
    56  C   -0.052839
    57  C   -0.089625
    58  C    0.112713
    59  C   -0.003469
    60  C    0.047098
    61  C   -0.002039
    62  C   -0.121081
    63  C   -0.022353
    64  C    0.027595
    65  H    0.011444
    66  H    0.013494
    67  H   -0.014913
    68  H    0.029972
    69  H   -0.037655
    70  H   -0.028495
    71  H   -0.022522
    72  H   -0.018249
    73  H    0.010616
    74  H   -0.041965
    75  H    0.038872
    76  H    0.047758
    77  H    0.017076
    78  H    0.033032
    79  H    0.029178
    80  H   -0.004676
    81  H    0.029820
    82  H    0.043693
    83  H    0.051679
    84  H    0.015964
    85  H   -0.022607
    86  H    0.013454
    87  H    0.020735
    88  H    0.030087
    89  H    0.038350
    90  H    0.031217
    91  H    0.005395
    92  H    0.014798
    93  H    0.032084
    94  H    0.070526
    95  H    0.015036
    96  H   -0.004680
    97  H    0.032652
    98  H    0.035198
    99  H    0.029453
   100  H    0.016379
   101  H    0.063159
   102  H    0.062017
   103  H    0.041571
   104  H   -0.037455
   105  H   -0.013304
   106  H    0.007942
   107  H   -0.010526
   108  H    0.004957
   109  H    0.015574
   110  H   -0.017225
   111  H    0.026328
   112  H   -0.062530
   113  H   -0.017009
   114  H   -0.007306
   115  H   -0.023471
   116  H   -0.025629
   117  H   -0.017523
   118  H   -0.012610
   119  H   -0.018293
   120  H    0.003255
   121  H   -0.030073
   122  H   -0.008023
   123  H   -0.000560
   124  H    0.006655
   125  H   -0.000160
   126  H    0.014239
   127  H    0.002121
   128  H   -0.009695
   129  H   -0.005323
   130  H    0.013849
   131  H    0.024159
   132  H    0.030156
   133  H    0.011389
   134  H    0.011023
   135  H   -0.012173
   136  H    0.032487
   137  H    0.177769
   138  H    0.180454
 Sum of Mulliken charges =   0.00000

 Dipole moment (field-independent basis, Debye):
    X=              2.4320    Y=              5.7360    Z=              0.7440  Tot=              6.2745
 Quadrupole moment (field-independent basis, Debye-Ang):
   XX=           -343.8969   YY=           -388.3005   ZZ=           -392.0304
   XY=            -35.7059   XZ=             10.7486   YZ=             -5.1391

 Normal termination of Gaussian 09 at Sat Aug  3 22:54:40 2019.
