 Gaussian 09, Revision D.01,
 Gaussian 09:  ES64L-G09RevD.01 24-Apr-2013

 --------------------------
 # td=(NStates=1) B3LYP/SVP
 --------------------------

 --
 TD
 --
 Symbolic Z-matrix:
 Charge =  0 Multiplicity = 1

                         Standard orientation:
 ---------------------------------------------------------------------
 Center     Atomic      Atomic             Coordinates (Angstroms)
 Number     Number       Type             X           Y           Z
 ---------------------------------------------------------------------
      1          6           0       -5.199951   -1.955070    0.521087
      2          6           0       -4.514935    2.683636    1.667258
      3          6           0       -9.077752    3.462642   -0.317313
      4          6           0       -9.793721   -1.151620   -1.081643
      5          7           0       -5.188289    0.310209    0.978297
      6          6           0       -4.513884   -0.884598    1.008518
      7          6           0       -3.120112   -0.641862    1.460183
      8          6           0       -3.068772    0.697188    2.066650
      9          6           0       -4.366647    1.239755    1.568717
     10          6           0       -3.144683    0.802932    3.558827
     11          6           0       -2.143093   -0.983659    0.244182
     12          6           0       -0.715129   -0.834866    0.642302
     13          6           0        0.343442   -1.179919   -0.440125
     14          8           0        0.015213   -1.729548   -1.509529
     15          8           0        1.540659   -0.759205   -0.197618
     16          7           0       -6.832179    2.711353    0.600779
     17          6           0       -5.683948    3.354045    1.189974
     18          6           0       -5.998862    4.773753    1.215175
     19          6           0       -7.193991    4.978657    0.570353
     20          6           0       -7.721927    3.632106    0.161788
     21          6           0       -5.115377    5.842709    1.858393
     22          6           0       -7.848631    6.238565    0.446842
     23          6           0       -8.687616    6.763445   -0.496217
     24          7           0       -9.021132    1.119082   -0.623460
     25          6           0       -9.627514    2.290397   -0.794215
     26          6           0      -11.058556    2.219005   -1.159455
     27          6           0      -11.240504    0.887726   -1.396466
     28          6           0       -9.999183    0.207584   -1.050430
     29          6           0      -12.006283    3.336962   -1.458044
     30          6           0      -12.459660    0.187245   -1.923781
     31          6           0      -12.491078   -0.062571   -3.515096
     32          7           0       -7.564889   -1.202510   -0.151780
     33          6           0       -8.613199   -1.869540   -0.768898
     34          6           0       -8.275248   -3.293416   -0.730710
     35          6           0       -7.065714   -3.356280   -0.211630
     36          6           0       -6.494906   -2.114831    0.108000
     37          6           0       -9.200798   -4.445909   -1.222760
     38          6           0       -6.031836   -4.310785    0.089219
     39          8           0       -5.993463   -5.524013   -0.088115
     40          6           0       -4.766739   -3.518676    0.517398
     41          6           0       -4.268551   -4.074795    1.747304
     42          8           0       -4.467038   -3.642548    2.852146
     43          8           0       -3.500301   -5.210624    1.672984
     44          6           0       -2.973504   -5.657483    2.832050
     45          6           0        2.613473   -1.130962   -1.116130
     46          6           0        3.950311   -0.840506   -0.373338
     47          6           0        4.980376   -0.215070   -0.973127
     48          6           0        4.748640    0.621224   -2.254133
     49          6           0        6.311997    0.050311   -0.353025
     50          6           0        7.466322   -0.680688   -1.018128
     51          6           0        8.805003   -0.338486   -0.215072
     52          6           0       10.044642   -0.823694   -1.135285
     53          6           0       10.130034   -2.285174   -1.328586
     54          6           0       11.307930   -0.485335   -0.249404
     55          6           0       12.753157   -0.616344   -0.911834
     56          6           0       13.779576    0.144344   -0.018778
     57          6           0       15.280245   -0.034677   -0.547820
     58          6           0       15.636013   -1.530786   -0.740983
     59          6           0       16.243462    0.676932    0.386736
     60          6           0       17.685800    0.903878   -0.175407
     61          6           0       18.470776    1.754495    0.672768
     62          6           0       20.103856    1.698184    0.405209
     63          6           0       20.241645    2.078935   -1.089175
     64          6           0       20.841079    2.636744    1.419465
     65          1           0       -3.912959    3.263338    2.262753
     66          1           0       -9.489286    4.422542   -0.488120
     67          1           0      -10.409469   -1.587734   -1.831072
     68          1           0       -2.764474   -1.486580    2.140235
     69          1           0       -2.429298    1.338761    1.719392
     70          1           0       -2.203828    0.631705    4.070828
     71          1           0       -3.371125    1.823080    3.914542
     72          1           0       -4.036742    0.277652    4.128182
     73          1           0       -2.494555   -2.108389    0.102557
     74          1           0       -2.508186   -0.414645   -0.550629
     75          1           0       -0.010964    0.068748    0.952038
     76          1           0       -0.538320   -1.810971    1.376303
     77          1           0       -4.230448    6.237676    1.251558
     78          1           0       -5.789897    6.727118    2.212917
     79          1           0       -4.703420    5.436226    2.760696
     80          1           0       -7.654207    7.243180    1.109941
     81          1           0       -9.046010    6.080765   -1.383314
     82          1           0       -8.953513    7.790469   -0.333020
     83          1           0      -12.081962    3.971756   -0.458286
     84          1           0      -11.509793    3.946966   -2.166887
     85          1           0      -13.022275    3.033517   -1.669883
     86          1           0      -12.859266   -0.776863   -1.363532
     87          1           0      -13.490960    0.846075   -1.839626
     88          1           0      -12.593958    0.923172   -4.042812
     89          1           0      -11.678169   -0.755186   -3.664344
     90          1           0      -13.361668   -0.456586   -3.880387
     91          1           0      -10.189854   -4.393383   -0.782370
     92          1           0       -9.219194   -4.531948   -2.378229
     93          1           0       -8.659523   -5.313963   -1.054471
     94          1           0       -3.826007   -3.548504   -0.265971
     95          1           0       -2.289374   -6.580439    2.600202
     96          1           0       -2.518381   -4.836758    3.449757
     97          1           0       -3.656209   -5.910495    3.695414
     98          1           0        2.526758   -2.228591   -1.386484
     99          1           0        2.374712   -0.519346   -2.072505
    100          1           0        4.086902   -1.728445    0.388532
    101          1           0        5.167049    1.624697   -2.142243
    102          1           0        5.311402    0.153507   -3.025223
    103          1           0        3.664373    0.674967   -2.707777
    104          1           0        6.673392    1.179296   -0.438850
    105          1           0        6.086271   -0.438299    0.533069
    106          1           0        7.195064   -1.854186   -1.065909
    107          1           0        7.521092   -0.169096   -2.102355
    108          1           0        8.815973    0.736107   -0.107052
    109          1           0        8.682129   -0.986162    0.730692
    110          1           0       10.106588   -0.245010   -1.952064
    111          1           0        9.324956   -2.531205   -1.912262
    112          1           0       11.062365   -2.638987   -1.813775
    113          1           0       10.077072   -2.811264   -0.371153
    114          1           0       11.222770    0.586786    0.161967
    115          1           0       11.308466   -0.969004    0.726846
    116          1           0       13.185720   -1.722185   -1.160624
    117          1           0       12.800037   -0.198464   -1.907752
    118          1           0       13.424150    1.115734   -0.112130
    119          1           0       13.762556   -0.302639    0.980666
    120          1           0       15.321023    0.216672   -1.652536
    121          1           0       15.021697   -2.067881   -1.741171
    122          1           0       16.907573   -1.769159   -1.020101
    123          1           0       15.286839   -2.051653    0.193731
    124          1           0       15.804701    1.623680    0.667894
    125          1           0       16.234918    0.076577    1.372177
    126          1           0       18.311024   -0.082526   -0.276880
    127          1           0       17.660563    1.552577   -0.987787
    128          1           0       18.267289    2.842069    0.512073
    129          1           0       18.223241    1.403884    1.641119
    130          1           0       20.633546    0.960273    0.443884
    131          1           0       19.831258    3.001854   -1.466848
    132          1           0       21.363594    1.661701   -1.295992
    133          1           0       19.689620    1.391093   -1.800063
    134          1           0       20.750145    2.267888    2.382537
    135          1           0       21.928084    2.845662    1.066537
    136          1           0       20.411897    3.726677    1.436549
    137          1           0       -7.033935    1.615329    0.596728
    138          1           0       -7.537572   -0.207447   -0.123960
 ---------------------------------------------------------------------

 SCF Done:  E(RB3LYP) =  -2733.01220190     A.U. after   17 cycles

 Excitation energies and oscillator strengths:

 Excited State   1:      Singlet-A      1.9995 eV  620.06 nm  f=0.1942  <S**2>=0.000
     235 -> 238        0.29736
     236 -> 237        0.63873
 This state for optimization and/or second-order correction.
 Total Energy, E(TD-HF/TD-KS) =  -2732.93871996
 Copying the excited state density for this state as the 1-particle RhoCI density.

 The electronic state is 1-A.
 Alpha  occ. eigenvalues --  -19.18582 -19.16893 -19.12098 -19.11866 -19.10394
 Alpha  occ. eigenvalues --  -14.37810 -14.36247 -14.32959 -14.30081 -10.31015
 Alpha  occ. eigenvalues --  -10.30804 -10.27788 -10.26441 -10.24704 -10.24460
 Alpha  occ. eigenvalues --  -10.23779 -10.23513 -10.23443 -10.23427 -10.23120
 Alpha  occ. eigenvalues --  -10.22642 -10.22564 -10.21449 -10.21358 -10.21289
 Alpha  occ. eigenvalues --  -10.21218 -10.21196 -10.21180 -10.21110 -10.21063
 Alpha  occ. eigenvalues --  -10.20974 -10.20950 -10.20924 -10.20907 -10.20837
 Alpha  occ. eigenvalues --  -10.20549 -10.20511 -10.20233 -10.20154 -10.20140
 Alpha  occ. eigenvalues --  -10.19704 -10.19655 -10.19571 -10.19435 -10.19370
 Alpha  occ. eigenvalues --  -10.19353 -10.19314 -10.19297 -10.18907 -10.18895
 Alpha  occ. eigenvalues --  -10.18768 -10.18712 -10.18703 -10.18662 -10.18654
 Alpha  occ. eigenvalues --  -10.18587 -10.18483 -10.18266 -10.18154 -10.18096
 Alpha  occ. eigenvalues --  -10.17828 -10.17537 -10.17508 -10.16903  -1.10655
 Alpha  occ. eigenvalues --   -1.10376  -1.02118  -1.00567  -0.98020  -0.97301
 Alpha  occ. eigenvalues --   -0.96672  -0.95095  -0.93740  -0.85457  -0.83342
 Alpha  occ. eigenvalues --   -0.82115  -0.81938  -0.81641  -0.81137  -0.80980
 Alpha  occ. eigenvalues --   -0.80155  -0.79616  -0.79406  -0.79119  -0.78194
 Alpha  occ. eigenvalues --   -0.77154  -0.76007  -0.75757  -0.75372  -0.74175
 Alpha  occ. eigenvalues --   -0.73726  -0.73450  -0.72763  -0.72199  -0.70648
 Alpha  occ. eigenvalues --   -0.70182  -0.69365  -0.68912  -0.68556  -0.67788
 Alpha  occ. eigenvalues --   -0.67211  -0.66842  -0.66234  -0.65771  -0.65477
 Alpha  occ. eigenvalues --   -0.64783  -0.63178  -0.62683  -0.61807  -0.61419
 Alpha  occ. eigenvalues --   -0.60403  -0.59669  -0.58699  -0.58060  -0.57523
 Alpha  occ. eigenvalues --   -0.57269  -0.56759  -0.56347  -0.56232  -0.55679
 Alpha  occ. eigenvalues --   -0.55499  -0.54822  -0.54280  -0.52914  -0.52791
 Alpha  occ. eigenvalues --   -0.52654  -0.52310  -0.52092  -0.50800  -0.50381
 Alpha  occ. eigenvalues --   -0.50070  -0.49827  -0.49018  -0.48820  -0.48538
 Alpha  occ. eigenvalues --   -0.48483  -0.47697  -0.47450  -0.47135  -0.47007
 Alpha  occ. eigenvalues --   -0.46689  -0.46488  -0.46163  -0.46017  -0.45773
 Alpha  occ. eigenvalues --   -0.45748  -0.45436  -0.45227  -0.44853  -0.44580
 Alpha  occ. eigenvalues --   -0.44474  -0.44265  -0.44017  -0.43758  -0.43588
 Alpha  occ. eigenvalues --   -0.43523  -0.43206  -0.42811  -0.42736  -0.42689
 Alpha  occ. eigenvalues --   -0.42595  -0.42101  -0.41876  -0.41799  -0.41685
 Alpha  occ. eigenvalues --   -0.41481  -0.41272  -0.40859  -0.40715  -0.40693
 Alpha  occ. eigenvalues --   -0.40527  -0.40282  -0.39876  -0.39681  -0.39178
 Alpha  occ. eigenvalues --   -0.38894  -0.38710  -0.38605  -0.38415  -0.38271
 Alpha  occ. eigenvalues --   -0.38188  -0.38025  -0.37832  -0.37539  -0.37350
 Alpha  occ. eigenvalues --   -0.37275  -0.37228  -0.37091  -0.36611  -0.36419
 Alpha  occ. eigenvalues --   -0.36323  -0.36251  -0.36041  -0.35912  -0.35667
 Alpha  occ. eigenvalues --   -0.35567  -0.35345  -0.35066  -0.34827  -0.34681
 Alpha  occ. eigenvalues --   -0.34341  -0.34237  -0.34178  -0.34048  -0.33885
 Alpha  occ. eigenvalues --   -0.33693  -0.33361  -0.33120  -0.32921  -0.32555
 Alpha  occ. eigenvalues --   -0.32375  -0.32264  -0.32131  -0.31672  -0.31628
 Alpha  occ. eigenvalues --   -0.31056  -0.30943  -0.30619  -0.30053  -0.29847
 Alpha  occ. eigenvalues --   -0.29031  -0.28408  -0.28218  -0.28050  -0.27593
 Alpha  occ. eigenvalues --   -0.27516  -0.27461  -0.26872  -0.26629  -0.26470
 Alpha  occ. eigenvalues --   -0.25067  -0.25005  -0.23928  -0.23130  -0.20039
 Alpha  occ. eigenvalues --   -0.18822
 Alpha virt. eigenvalues --   -0.10443  -0.07951  -0.04963  -0.02052  -0.01877
 Alpha virt. eigenvalues --   -0.00047   0.00134   0.00566   0.01652   0.03334
 Alpha virt. eigenvalues --    0.03375   0.03690   0.03760   0.04012   0.04767

 Mulliken charges:
               1
     1  C    0.079027
     2  C   -0.023233
     3  C   -0.044212
     4  C   -0.040869
     5  N   -0.208829
     6  C   -0.076195
     7  C   -0.019424
     8  C    0.167390
     9  C   -0.043743
    10  C    0.051349
    11  C    0.062736
    12  C   -0.011508
    13  C    0.136246
    14  O   -0.287942
    15  O   -0.274136
    16  N   -0.144780
    17  C    0.103244
    18  C   -0.122309
    19  C    0.095265
    20  C    0.074232
    21  C    0.071672
    22  C   -0.148777
    23  C   -0.066514
    24  N   -0.250083
    25  C    0.087034
    26  C   -0.159541
    27  C    0.014899
    28  C    0.038823
    29  C    0.124980
    30  C   -0.094274
    31  C    0.051323
    32  N   -0.089409
    33  C    0.039015
    34  C   -0.185671
    35  C    0.087506
    36  C    0.074908
    37  C    0.143561
    38  C    0.070862
    39  O   -0.174376
    40  C   -0.132909
    41  C    0.203601
    42  O   -0.225581
    43  O   -0.264039
    44  C    0.153285
    45  C    0.177923
    46  C   -0.070883
    47  C   -0.146111
    48  C    0.059893
    49  C    0.130802
    50  C   -0.118632
    51  C    0.042486
    52  C   -0.007137
    53  C    0.115125
    54  C   -0.001262
    55  C   -0.012340
    56  C    0.057612
    57  C   -0.080075
    58  C   -0.115441
    59  C    0.062948
    60  C    0.077900
    61  C    0.009607
    62  C    0.025413
    63  C   -0.036198
    64  C    0.019176
    65  H   -0.051014
    66  H   -0.057875
    67  H   -0.010637
    68  H   -0.003146
    69  H   -0.077345
    70  H    0.006989
    71  H   -0.011039
    72  H    0.038867
    73  H    0.034363
    74  H    0.002225
    75  H    0.065695
    76  H    0.050896
    77  H    0.047923
    78  H    0.031715
    79  H    0.009776
    80  H    0.028441
    81  H    0.045616
    82  H    0.022603
    83  H    0.029348
    84  H    0.022457
    85  H    0.012330
    86  H    0.031441
    87  H    0.006743
    88  H    0.015058
    89  H    0.018105
    90  H   -0.015628
    91  H    0.037904
    92  H    0.030645
    93  H   -0.000125
    94  H    0.105726
    95  H    0.046298
    96  H    0.000975
    97  H    0.008270
    98  H    0.047489
    99  H    0.042164
   100  H    0.025706
   101  H    0.014266
   102  H    0.012074
   103  H    0.027508
   104  H    0.030688
   105  H   -0.029465
   106  H    0.033583
   107  H    0.009696
   108  H   -0.000954
   109  H    0.019397
   110  H   -0.045911
   111  H   -0.021306
   112  H    0.011336
   113  H   -0.004879
   114  H   -0.023170
   115  H   -0.020377
   116  H    0.014007
   117  H   -0.019045
   118  H   -0.009258
   119  H    0.000155
   120  H   -0.005172
   121  H    0.039943
   122  H    0.041342
   123  H    0.018141
   124  H   -0.017478
   125  H   -0.003146
   126  H    0.025070
   127  H   -0.025357
   128  H   -0.000124
   129  H   -0.025075
   130  H   -0.090976
   131  H    0.007977
   132  H    0.013976
   133  H    0.010234
   134  H    0.001529
   135  H    0.012849
   136  H    0.003091
   137  H    0.211279
   138  H    0.111186
 Sum of Mulliken charges =   0.00000

 Dipole moment (field-independent basis, Debye):
    X=              3.3773    Y=              5.7690    Z=              0.1749  Tot=              6.6872
 Quadrupole moment (field-independent basis, Debye-Ang):
   XX=           -362.2207   YY=           -393.6901   ZZ=           -393.7459
   XY=            -32.4559   XZ=             12.3217   YZ=              1.7594

 Normal termination of Gaussian 09 at Thu Aug  1 14:38:17 2019.
