 Gaussian 09, Revision D.01,
 Gaussian 09:  ES64L-G09RevD.01 24-Apr-2013

 --------------------------
 # td=(NStates=1) B3LYP/SVP
 --------------------------

 --
 TD
 --
 Symbolic Z-matrix:
 Charge =  0 Multiplicity = 1

                         Standard orientation:
 ---------------------------------------------------------------------
 Center     Atomic      Atomic             Coordinates (Angstroms)
 Number     Number       Type             X           Y           Z
 ---------------------------------------------------------------------
      1          6           0       -5.066867   -1.949343    0.455039
      2          6           0       -4.832500    2.831010    1.211485
      3          6           0       -9.495485    3.164316   -0.238296
      4          6           0       -9.807601   -1.681316   -0.726650
      5          7           0       -5.167071    0.461524    0.777576
      6          6           0       -4.448795   -0.680265    0.760199
      7          6           0       -3.057242   -0.486004    1.166553
      8          6           0       -3.115428    1.009038    1.770714
      9          6           0       -4.396459    1.510690    1.161744
     10          6           0       -2.926491    1.213622    3.327853
     11          6           0       -2.090578   -0.625007    0.032858
     12          6           0       -0.680002   -0.687537    0.418424
     13          6           0        0.367215   -0.734640   -0.763006
     14          8           0        0.121150   -0.971060   -1.880597
     15          8           0        1.642317   -0.489045   -0.346682
     16          7           0       -7.132972    2.678781    0.339024
     17          6           0       -5.988255    3.425369    0.829335
     18          6           0       -6.345120    4.844888    0.953585
     19          6           0       -7.696112    4.872763    0.451385
     20          6           0       -8.273594    3.501124    0.047465
     21          6           0       -5.451822    5.793650    1.466522
     22          6           0       -8.501339    6.197658    0.429444
     23          6           0       -9.438031    6.494592   -0.548339
     24          7           0       -9.244101    0.689182   -0.358720
     25          6           0       -9.916674    1.869126   -0.522377
     26          6           0      -11.342793    1.657274   -0.791145
     27          6           0      -11.474079    0.273564   -1.143885
     28          6           0      -10.181289   -0.300804   -0.748794
     29          6           0      -12.238858    2.706612   -1.182019
     30          6           0      -12.779817   -0.433396   -1.398992
     31          6           0      -12.787365   -0.836928   -2.880524
     32          7           0       -7.470411   -1.372145   -0.126244
     33          6           0       -8.563832   -2.220366   -0.607701
     34          6           0       -8.104812   -3.562019   -0.593371
     35          6           0       -6.736796   -3.453972   -0.155261
     36          6           0       -6.422772   -2.152317    0.136258
     37          6           0       -8.793262   -4.757995   -0.894442
     38          6           0       -5.580973   -4.378156    0.103067
     39          8           0       -5.328178   -5.511780    0.024740
     40          6           0       -4.394010   -3.193492    0.414474
     41          6           0       -3.721805   -3.648578    1.680871
     42          8           0       -3.977043   -3.299199    2.810489
     43          8           0       -2.786794   -4.614407    1.420023
     44          6           0       -2.293801   -5.287962    2.641687
     45          6           0        2.656214   -0.720755   -1.277552
     46          6           0        3.970581   -0.519421   -0.628868
     47          6           0        4.990192    0.284850   -1.012598
     48          6           0        4.887784    1.153029   -2.253566
     49          6           0        6.259011    0.490922   -0.263864
     50          6           0        7.470216   -0.129508   -1.003297
     51          6           0        8.797946   -0.092215   -0.096812
     52          6           0        9.986014   -0.639594   -0.750033
     53          6           0        9.891906   -2.142609   -0.982486
     54          6           0       11.331481   -0.274967   -0.005837
     55          6           0       12.652356   -0.587678   -0.685481
     56          6           0       13.829472   -0.052462    0.133608
     57          6           0       15.190641   -0.395172   -0.381304
     58          6           0       15.557929   -1.889412   -0.136800
     59          6           0       16.280558    0.603261    0.199759
     60          6           0       17.705697    0.668744   -0.220930
     61          6           0       18.643148    1.590767    0.548442
     62          6           0       20.147540    1.404405    0.268499
     63          6           0       20.510496    1.956918   -1.164995
     64          6           0       21.013574    2.176051    1.305327
     65          1           0       -3.915405    3.359327    1.629407
     66          1           0      -10.144282    3.993597   -0.586948
     67          1           0      -10.413482   -2.452528   -1.032565
     68          1           0       -2.759139   -1.205095    1.924820
     69          1           0       -2.236045    1.556069    1.278590
     70          1           0       -1.703743    0.850839    3.498553
     71          1           0       -2.992293    2.248022    3.710190
     72          1           0       -3.543106    0.569091    4.036968
     73          1           0       -2.448549   -1.300057   -0.503068
     74          1           0       -2.481813    0.242423   -0.780847
     75          1           0       -0.511891    0.181342    0.863259
     76          1           0       -0.534459   -1.583357    1.124138
     77          1           0       -4.749100    6.222847    0.699848
     78          1           0       -6.224243    6.705857    2.076334
     79          1           0       -5.177061    5.305375    2.369874
     80          1           0       -8.121115    6.907978    1.293063
     81          1           0       -9.466978    5.775062   -1.298574
     82          1           0       -9.954794    7.441158   -0.706862
     83          1           0      -12.631129    3.274294   -0.354717
     84          1           0      -12.039866    3.346319   -1.995300
     85          1           0      -13.220903    2.300757   -1.368639
     86          1           0      -12.797891   -1.364421   -0.883082
     87          1           0      -13.687041    0.106105   -1.275618
     88          1           0      -12.537723    0.082910   -3.507179
     89          1           0      -11.999458   -1.480385   -3.219833
     90          1           0      -13.745996   -1.337928   -3.075361
     91          1           0       -9.749394   -4.948084   -0.500443
     92          1           0       -9.163813   -4.717586   -2.119241
     93          1           0       -8.153042   -5.631338   -0.678510
     94          1           0       -3.428665   -3.329789   -0.336264
     95          1           0       -1.370540   -5.932077    2.387084
     96          1           0       -2.123424   -4.351269    3.545967
     97          1           0       -3.188840   -5.678663    3.135299
     98          1           0        2.677765   -1.787083   -1.729531
     99          1           0        2.679147    0.002716   -2.136462
    100          1           0        4.235768   -1.174044    0.303712
    101          1           0        5.539555    2.213374   -2.119323
    102          1           0        5.423866    0.691628   -3.059779
    103          1           0        3.867551    1.450991   -2.550874
    104          1           0        6.428684    1.425047   -0.221763
    105          1           0        6.191814   -0.181739    0.761103
    106          1           0        7.350879   -1.151092   -1.019216
    107          1           0        7.871141    0.298193   -1.963106
    108          1           0        8.866334    0.884038    0.185071
    109          1           0        8.633633   -0.901131    0.879773
    110          1           0       10.191373   -0.282274   -1.694748
    111          1           0        8.825019   -2.417552   -1.350135
    112          1           0       10.565837   -2.706301   -1.553257
    113          1           0        9.389840   -2.605052   -0.003943
    114          1           0       11.308503    0.854327   -0.023248
    115          1           0       11.157705   -0.690892    1.024390
    116          1           0       12.387262   -1.659141   -0.694739
    117          1           0       12.651794   -0.044709   -1.816302
    118          1           0       13.802263    0.798580    0.321093
    119          1           0       13.719170   -0.618844    1.075899
    120          1           0       15.113297   -0.177664   -1.587925
    121          1           0       14.935094   -2.498735   -0.955126
    122          1           0       16.603138   -2.327185   -0.288546
    123          1           0       15.150350   -2.138246    0.992850
    124          1           0       16.018989    1.908128   -0.099787
    125          1           0       15.996034    0.523050    1.266875
    126          1           0       18.026570   -0.458080    0.067354
    127          1           0       17.707715    0.667247   -1.349559
    128          1           0       18.343115    2.705114    0.186018
    129          1           0       18.456603    1.538105    1.684875
    130          1           0       20.461280    0.438080    0.216890
    131          1           0       20.183949    3.148343   -1.318630
    132          1           0       21.530369    1.951005   -1.420786
    133          1           0       20.186679    1.511980   -2.104329
    134          1           0       20.941689    1.929292    2.370697
    135          1           0       22.035717    1.815842    1.157523
    136          1           0       21.003127    3.399621    1.039309
    137          1           0       -7.035103    1.801332    0.309550
    138          1           0       -7.649898   -0.492634    0.090351
 ---------------------------------------------------------------------

 SCF Done:  E(RB3LYP) =  -2732.87466454     A.U. after   17 cycles

 Excitation energies and oscillator strengths:

 Excited State   1:      Singlet-A      2.0553 eV  603.23 nm  f=0.0769  <S**2>=0.000
     235 -> 237        0.10709
     235 -> 238        0.38774
     236 -> 237        0.57103
 This state for optimization and/or second-order correction.
 Total Energy, E(TD-HF/TD-KS) =  -2732.79913200
 Copying the excited state density for this state as the 1-particle RhoCI density.

 The electronic state is 1-A.
 Alpha  occ. eigenvalues --  -19.17644 -19.17097 -19.14137 -19.12926 -19.11806
 Alpha  occ. eigenvalues --  -14.35521 -14.35473 -14.32017 -14.29886 -10.31676
 Alpha  occ. eigenvalues --  -10.30570 -10.29126 -10.25842 -10.25036 -10.24614
 Alpha  occ. eigenvalues --  -10.24267 -10.23110 -10.22987 -10.22973 -10.22946
 Alpha  occ. eigenvalues --  -10.22422 -10.22383 -10.22055 -10.21961 -10.21876
 Alpha  occ. eigenvalues --  -10.21624 -10.21465 -10.21304 -10.20897 -10.20832
 Alpha  occ. eigenvalues --  -10.20715 -10.20408 -10.20401 -10.20381 -10.20060
 Alpha  occ. eigenvalues --  -10.20057 -10.19952 -10.19900 -10.19834 -10.19793
 Alpha  occ. eigenvalues --  -10.19791 -10.19756 -10.19688 -10.19534 -10.19403
 Alpha  occ. eigenvalues --  -10.19362 -10.19321 -10.19082 -10.19072 -10.19014
 Alpha  occ. eigenvalues --  -10.18963 -10.18904 -10.18771 -10.18656 -10.18611
 Alpha  occ. eigenvalues --  -10.18590 -10.18556 -10.18383 -10.18152 -10.18113
 Alpha  occ. eigenvalues --  -10.17993 -10.17879 -10.17308 -10.16280  -1.10857
 Alpha  occ. eigenvalues --   -1.08088  -1.06556  -1.02467  -0.99288  -0.98040
 Alpha  occ. eigenvalues --   -0.95731  -0.94549  -0.91634  -0.85182  -0.83188
 Alpha  occ. eigenvalues --   -0.82777  -0.82571  -0.82182  -0.82094  -0.81143
 Alpha  occ. eigenvalues --   -0.81031  -0.79866  -0.79510  -0.79385  -0.77380
 Alpha  occ. eigenvalues --   -0.77107  -0.76336  -0.76029  -0.75467  -0.75130
 Alpha  occ. eigenvalues --   -0.73764  -0.73326  -0.72494  -0.71673  -0.71345
 Alpha  occ. eigenvalues --   -0.70781  -0.69078  -0.68251  -0.67772  -0.67411
 Alpha  occ. eigenvalues --   -0.66912  -0.66850  -0.66055  -0.65882  -0.65721
 Alpha  occ. eigenvalues --   -0.64731  -0.63447  -0.62493  -0.62100  -0.61501
 Alpha  occ. eigenvalues --   -0.61284  -0.59162  -0.58865  -0.58312  -0.57344
 Alpha  occ. eigenvalues --   -0.57057  -0.56744  -0.55748  -0.55724  -0.55447
 Alpha  occ. eigenvalues --   -0.55103  -0.54404  -0.53627  -0.53435  -0.53376
 Alpha  occ. eigenvalues --   -0.52735  -0.52134  -0.51238  -0.50928  -0.50632
 Alpha  occ. eigenvalues --   -0.50063  -0.49763  -0.49106  -0.48984  -0.48724
 Alpha  occ. eigenvalues --   -0.48469  -0.48164  -0.47845  -0.47601  -0.47531
 Alpha  occ. eigenvalues --   -0.47242  -0.47038  -0.46971  -0.46528  -0.46371
 Alpha  occ. eigenvalues --   -0.45730  -0.45674  -0.45591  -0.45356  -0.45061
 Alpha  occ. eigenvalues --   -0.44972  -0.44652  -0.44550  -0.43963  -0.43779
 Alpha  occ. eigenvalues --   -0.43763  -0.43681  -0.43147  -0.42855  -0.42636
 Alpha  occ. eigenvalues --   -0.42463  -0.42213  -0.41950  -0.41597  -0.41477
 Alpha  occ. eigenvalues --   -0.41414  -0.41189  -0.40973  -0.40766  -0.40695
 Alpha  occ. eigenvalues --   -0.40662  -0.40280  -0.40046  -0.39675  -0.39455
 Alpha  occ. eigenvalues --   -0.39379  -0.39208  -0.39069  -0.38779  -0.38666
 Alpha  occ. eigenvalues --   -0.38411  -0.38041  -0.37848  -0.37708  -0.37514
 Alpha  occ. eigenvalues --   -0.37358  -0.37017  -0.36802  -0.36780  -0.36697
 Alpha  occ. eigenvalues --   -0.36287  -0.36119  -0.35911  -0.35628  -0.35593
 Alpha  occ. eigenvalues --   -0.35280  -0.35241  -0.35202  -0.35075  -0.34594
 Alpha  occ. eigenvalues --   -0.34455  -0.34344  -0.34023  -0.33874  -0.33582
 Alpha  occ. eigenvalues --   -0.33496  -0.33170  -0.33018  -0.32839  -0.32566
 Alpha  occ. eigenvalues --   -0.32453  -0.32112  -0.31705  -0.31353  -0.31230
 Alpha  occ. eigenvalues --   -0.31067  -0.30451  -0.30133  -0.29664  -0.29448
 Alpha  occ. eigenvalues --   -0.29171  -0.28859  -0.28440  -0.27813  -0.27454
 Alpha  occ. eigenvalues --   -0.27191  -0.26891  -0.26583  -0.26004  -0.25884
 Alpha  occ. eigenvalues --   -0.24971  -0.24422  -0.23794  -0.21723  -0.20026
 Alpha  occ. eigenvalues --   -0.19231
 Alpha virt. eigenvalues --   -0.10095  -0.08890  -0.04358  -0.02082  -0.00347
 Alpha virt. eigenvalues --    0.00325   0.00673   0.00891   0.01419   0.02284
 Alpha virt. eigenvalues --    0.02903   0.03662   0.03694   0.03795   0.04532

 Mulliken charges:
               1
     1  C    0.121474
     2  C   -0.059739
     3  C   -0.082903
     4  C   -0.012918
     5  N   -0.155430
     6  C   -0.070560
     7  C   -0.061356
     8  C   -0.013087
     9  C   -0.081731
    10  C   -0.003083
    11  C    0.109102
    12  C    0.177702
    13  C    0.147237
    14  O   -0.177264
    15  O   -0.299979
    16  N   -0.063239
    17  C    0.164802
    18  C   -0.102754
    19  C   -0.050914
    20  C    0.204362
    21  C    0.053214
    22  C   -0.059672
    23  C   -0.004478
    24  N   -0.263304
    25  C    0.052614
    26  C   -0.168480
    27  C   -0.086006
    28  C    0.093592
    29  C    0.166604
    30  C    0.150503
    31  C   -0.029322
    32  N    0.017601
    33  C    0.047542
    34  C   -0.053064
    35  C   -0.091814
    36  C    0.086906
    37  C    0.040903
    38  C    0.118573
    39  O   -0.089257
    40  C   -0.223878
    41  C    0.184112
    42  O   -0.234831
    43  O   -0.325963
    44  C    0.116739
    45  C    0.278561
    46  C   -0.132060
    47  C   -0.150194
    48  C    0.014849
    49  C    0.193896
    50  C    0.005839
    51  C   -0.003368
    52  C    0.009194
    53  C    0.002732
    54  C   -0.028027
    55  C   -0.010028
    56  C    0.263225
    57  C   -0.092576
    58  C   -0.050640
    59  C   -0.070865
    60  C    0.046428
    61  C    0.026108
    62  C   -0.014520
    63  C   -0.023448
    64  C    0.003399
    65  H   -0.012296
    66  H   -0.010542
    67  H   -0.066808
    68  H    0.002086
    69  H    0.006512
    70  H    0.027710
    71  H    0.025063
    72  H    0.050481
    73  H   -0.105933
    74  H    0.003205
    75  H   -0.031370
    76  H    0.052780
    77  H    0.076394
    78  H    0.023595
    79  H    0.031225
    80  H    0.028468
    81  H    0.022863
    82  H    0.035842
    83  H   -0.012034
    84  H    0.019613
    85  H   -0.036000
    86  H   -0.010598
    87  H   -0.002145
    88  H    0.014355
    89  H    0.000888
    90  H    0.007268
    91  H    0.015441
    92  H    0.041605
    93  H    0.047568
    94  H    0.087881
    95  H    0.071747
    96  H    0.050848
    97  H    0.036273
    98  H    0.034498
    99  H    0.002312
   100  H   -0.004863
   101  H    0.013975
   102  H    0.027273
   103  H    0.039950
   104  H   -0.063198
   105  H    0.019370
   106  H   -0.023922
   107  H    0.016300
   108  H   -0.031964
   109  H    0.010112
   110  H   -0.045952
   111  H   -0.007049
   112  H    0.025332
   113  H   -0.013651
   114  H   -0.015382
   115  H    0.004907
   116  H    0.006480
   117  H    0.014437
   118  H   -0.145129
   119  H   -0.019283
   120  H   -0.001065
   121  H    0.032599
   122  H    0.038350
   123  H    0.025810
   124  H   -0.020406
   125  H   -0.000785
   126  H   -0.013650
   127  H    0.016014
   128  H    0.010377
   129  H    0.010930
   130  H   -0.025649
   131  H    0.011568
   132  H   -0.014490
   133  H    0.003387
   134  H    0.011210
   135  H   -0.004613
   136  H    0.034749
   137  H    0.026600
   138  H    0.065464
 Sum of Mulliken charges =   0.00000

 Dipole moment (field-independent basis, Debye):
    X=              1.0233    Y=              3.1484    Z=              0.2510  Tot=              3.3200
 Quadrupole moment (field-independent basis, Debye-Ang):
   XX=           -340.1366   YY=           -378.2876   ZZ=           -397.7305
   XY=            -24.6510   XZ=              5.1843   YZ=              0.0049

 Normal termination of Gaussian 09 at Fri Aug  2 21:59:24 2019.
