 Gaussian 09, Revision D.01,
 Gaussian 09:  ES64L-G09RevD.01 24-Apr-2013

 --------------------------
 # td=(NStates=1) B3LYP/SVP
 --------------------------

 --
 TD
 --
 Symbolic Z-matrix:
 Charge =  0 Multiplicity = 1

                         Standard orientation:
 ---------------------------------------------------------------------
 Center     Atomic      Atomic             Coordinates (Angstroms)
 Number     Number       Type             X           Y           Z
 ---------------------------------------------------------------------
      1          6           0       -5.159764   -1.951226    0.290869
      2          6           0       -4.638965    2.662692    1.555291
      3          6           0       -9.280145    3.521461   -0.270356
      4          6           0      -10.014088   -1.333951   -0.812582
      5          7           0       -5.248836    0.404041    0.830866
      6          6           0       -4.479982   -0.803140    0.772187
      7          6           0       -2.971852   -0.647504    1.182692
      8          6           0       -2.981039    0.783990    1.819221
      9          6           0       -4.336394    1.305862    1.324039
     10          6           0       -2.870828    0.585713    3.334239
     11          6           0       -2.100015   -0.782368   -0.147025
     12          6           0       -0.558771   -0.777458    0.324632
     13          6           0        0.464426   -1.189005   -0.699116
     14          8           0        0.190816   -1.557998   -1.829133
     15          8           0        1.629610   -0.922980   -0.274848
     16          7           0       -6.965207    2.782087    0.539784
     17          6           0       -5.790630    3.344862    1.046213
     18          6           0       -6.062574    4.779445    1.075458
     19          6           0       -7.363314    5.023863    0.471663
     20          6           0       -7.959685    3.694102    0.145910
     21          6           0       -5.089768    5.714809    1.470093
     22          6           0       -8.041385    6.306769    0.291136
     23          6           0       -8.808664    6.708306   -0.682639
     24          7           0       -9.210908    0.961702   -0.451746
     25          6           0       -9.823889    2.196069   -0.469861
     26          6           0      -11.265746    2.064144   -0.727836
     27          6           0      -11.554620    0.778903   -0.974085
     28          6           0      -10.334302    0.045052   -0.656923
     29          6           0      -12.126349    3.192570   -1.014685
     30          6           0      -12.859349    0.080520   -1.414653
     31          6           0      -12.855443   -0.229665   -2.902454
     32          7           0       -7.636732   -1.236450   -0.156661
     33          6           0       -8.733227   -1.925331   -0.587562
     34          6           0       -8.287176   -3.412995   -0.635982
     35          6           0       -6.956731   -3.367796   -0.403959
     36          6           0       -6.551849   -2.065893   -0.126901
     37          6           0       -9.044477   -4.586558   -1.075489
     38          6           0       -5.756154   -4.265527   -0.123393
     39          8           0       -5.611028   -5.521538   -0.238480
     40          6           0       -4.598801   -3.428930    0.309233
     41          6           0       -4.024898   -3.948087    1.642055
     42          8           0       -4.153813   -3.391745    2.721272
     43          8           0       -3.311154   -5.003073    1.320344
     44          6           0       -2.803394   -5.743347    2.479225
     45          6           0        2.743746   -0.991572   -1.311168
     46          6           0        4.111478   -0.810039   -0.573212
     47          6           0        5.030801    0.060124   -0.888626
     48          6           0        5.077179    0.847943   -2.279174
     49          6           0        6.191734    0.122903   -0.068851
     50          6           0        7.423406   -0.457052   -0.694012
     51          6           0        8.837743   -0.319812    0.054924
     52          6           0       10.077911   -0.862083   -0.642584
     53          6           0       10.105578   -2.394827   -0.849727
     54          6           0       11.307096   -0.515215    0.244801
     55          6           0       12.645053   -0.668606   -0.473971
     56          6           0       13.874239   -0.171932    0.280926
     57          6           0       15.270107   -0.202528   -0.355751
     58          6           0       15.699373   -1.579956   -0.701155
     59          6           0       16.231088    0.662475    0.485772
     60          6           0       17.634259    0.909904   -0.236316
     61          6           0       18.573891    1.709218    0.676986
     62          6           0       20.041597    1.728019    0.010874
     63          6           0       20.109673    2.503405   -1.333351
     64          6           0       20.930691    2.511008    1.006884
     65          1           0       -3.945181    3.273455    2.090487
     66          1           0       -9.841160    4.413821   -0.350373
     67          1           0      -10.868598   -1.996727   -0.948963
     68          1           0       -2.727061   -1.456234    1.902927
     69          1           0       -2.195681    1.390133    1.472229
     70          1           0       -1.910994    0.093674    3.706903
     71          1           0       -3.062888    1.592772    3.939797
     72          1           0       -3.941232    0.100199    3.665998
     73          1           0       -2.281437   -1.837314   -0.471550
     74          1           0       -2.305234   -0.117629   -1.027976
     75          1           0       -0.211652    0.084384    0.861822
     76          1           0       -0.283694   -1.571054    1.175578
     77          1           0       -4.073531    5.804075    0.943102
     78          1           0       -5.290531    6.886690    1.265386
     79          1           0       -4.773917    5.594627    2.586575
     80          1           0       -7.840344    6.923865    1.352723
     81          1           0       -9.057518    5.994556   -1.642264
     82          1           0       -9.117293    7.753051   -0.897514
     83          1           0      -12.555131    3.763656   -0.015995
     84          1           0      -11.533468    4.112555   -1.536694
     85          1           0      -13.061524    3.101552   -1.898932
     86          1           0      -12.995193   -0.748367   -0.851501
     87          1           0      -13.697288    0.702079   -1.123055
     88          1           0      -12.859368    0.551262   -3.689869
     89          1           0      -12.007526   -0.797652   -3.187370
     90          1           0      -13.662670   -0.752454   -3.412844
     91          1           0      -10.002880   -4.539912   -0.302015
     92          1           0       -9.704607   -4.519630   -2.146033
     93          1           0       -8.655728   -5.637037   -1.149701
     94          1           0       -3.786072   -3.451761   -0.599434
     95          1           0       -1.957692   -6.419022    2.172727
     96          1           0       -2.406184   -4.911056    3.158076
     97          1           0       -3.699830   -6.385434    3.045343
     98          1           0        2.562057   -2.094344   -1.680439
     99          1           0        2.325395   -0.255102   -2.072521
    100          1           0        4.133571   -1.461337    0.304328
    101          1           0        5.718520    1.841014   -2.092063
    102          1           0        5.823712    0.248970   -2.712610
    103          1           0        4.122954    0.856556   -2.667639
    104          1           0        6.368070    1.255976    0.356378
    105          1           0        6.141218   -0.493922    0.823418
    106          1           0        6.979933   -1.444139   -0.769993
    107          1           0        7.629705   -0.015460   -1.754132
    108          1           0        8.951304    0.791934    0.080870
    109          1           0        8.875624   -0.800229    0.975259
    110          1           0       10.042916   -0.344502   -1.562707
    111          1           0        9.363339   -2.644225   -1.603774
    112          1           0       11.136811   -2.446152   -1.325384
    113          1           0        9.742477   -3.047029    0.041038
    114          1           0       11.280422    0.621816    0.671651
    115          1           0       11.286631   -1.157656    1.103178
    116          1           0       12.912578   -1.688382   -0.817190
    117          1           0       12.588118   -0.253266   -1.501600
    118          1           0       13.637973    0.969975    0.703948
    119          1           0       14.217733   -0.876969    1.081289
    120          1           0       15.043491    0.203060   -1.464051
    121          1           0       14.917173   -2.156942   -1.345116
    122          1           0       16.644827   -1.465429   -1.039397
    123          1           0       15.447265   -2.276797    0.251380
    124          1           0       15.607107    1.682471    0.817963
    125          1           0       16.326374   -0.049904    1.292487
    126          1           0       18.135977   -0.150128   -0.586603
    127          1           0       17.247014    1.280117   -1.290003
    128          1           0       18.203552    2.590531    0.828107
    129          1           0       18.767291    1.123036    1.641590
    130          1           0       20.381980    0.724400    0.101146
    131          1           0       19.708251    3.660850   -1.202581
    132          1           0       21.115142    2.638401   -1.655276
    133          1           0       19.699097    2.042836   -2.313870
    134          1           0       20.784993    2.295182    2.054529
    135          1           0       22.088909    2.530473    0.778486
    136          1           0       20.806618    3.649568    0.934928
    137          1           0       -7.056594    1.704987    0.533564
    138          1           0       -7.700890   -0.256708    0.093349
 ---------------------------------------------------------------------

 SCF Done:  E(RB3LYP) =  -2733.05145554     A.U. after   17 cycles

 Excitation energies and oscillator strengths:

 Excited State   1:      Singlet-A      1.9660 eV  630.63 nm  f=0.1538  <S**2>=0.000
     235 -> 238        0.31514
     236 -> 237        0.63048
 This state for optimization and/or second-order correction.
 Total Energy, E(TD-HF/TD-KS) =  -2732.97920478
 Copying the excited state density for this state as the 1-particle RhoCI density.

 The electronic state is 1-A.
 Alpha  occ. eigenvalues --  -19.19129 -19.17495 -19.13161 -19.11728 -19.10429
 Alpha  occ. eigenvalues --  -14.37230 -14.36898 -14.33141 -14.30315 -10.32469
 Alpha  occ. eigenvalues --  -10.30033 -10.28069 -10.26780 -10.26719 -10.24234
 Alpha  occ. eigenvalues --  -10.24123 -10.23877 -10.23414 -10.23400 -10.23023
 Alpha  occ. eigenvalues --  -10.22096 -10.21941 -10.21837 -10.21598 -10.21549
 Alpha  occ. eigenvalues --  -10.21529 -10.21504 -10.21086 -10.20964 -10.20902
 Alpha  occ. eigenvalues --  -10.20884 -10.20765 -10.20765 -10.20722 -10.20528
 Alpha  occ. eigenvalues --  -10.20525 -10.20511 -10.20436 -10.20422 -10.20287
 Alpha  occ. eigenvalues --  -10.20156 -10.19923 -10.19818 -10.19814 -10.19671
 Alpha  occ. eigenvalues --  -10.19661 -10.19653 -10.19542 -10.19316 -10.19272
 Alpha  occ. eigenvalues --  -10.19136 -10.19041 -10.18935 -10.18859 -10.18825
 Alpha  occ. eigenvalues --  -10.18810 -10.18635 -10.18625 -10.18546 -10.18459
 Alpha  occ. eigenvalues --  -10.18401 -10.18260 -10.17878 -10.17421  -1.10650
 Alpha  occ. eigenvalues --   -1.10523  -1.01235  -0.99596  -0.98951  -0.98277
 Alpha  occ. eigenvalues --   -0.95638  -0.92369  -0.91123  -0.84457  -0.84123
 Alpha  occ. eigenvalues --   -0.82438  -0.81261  -0.80985  -0.80435  -0.79977
 Alpha  occ. eigenvalues --   -0.79742  -0.79647  -0.79041  -0.78089  -0.77609
 Alpha  occ. eigenvalues --   -0.76614  -0.75723  -0.75443  -0.74712  -0.74307
 Alpha  occ. eigenvalues --   -0.73280  -0.72911  -0.72299  -0.71455  -0.69784
 Alpha  occ. eigenvalues --   -0.69630  -0.69072  -0.68553  -0.67927  -0.67409
 Alpha  occ. eigenvalues --   -0.66773  -0.66478  -0.66033  -0.65558  -0.64791
 Alpha  occ. eigenvalues --   -0.63221  -0.62495  -0.62325  -0.61609  -0.61272
 Alpha  occ. eigenvalues --   -0.60739  -0.58992  -0.58281  -0.57549  -0.57192
 Alpha  occ. eigenvalues --   -0.56393  -0.56356  -0.56063  -0.55511  -0.55156
 Alpha  occ. eigenvalues --   -0.54755  -0.54364  -0.53347  -0.53091  -0.52548
 Alpha  occ. eigenvalues --   -0.52001  -0.51818  -0.50849  -0.50576  -0.50422
 Alpha  occ. eigenvalues --   -0.49880  -0.49297  -0.49034  -0.48670  -0.48414
 Alpha  occ. eigenvalues --   -0.48051  -0.47999  -0.47701  -0.47386  -0.46947
 Alpha  occ. eigenvalues --   -0.46651  -0.46324  -0.45933  -0.45570  -0.45440
 Alpha  occ. eigenvalues --   -0.44889  -0.44752  -0.44595  -0.44586  -0.44505
 Alpha  occ. eigenvalues --   -0.44106  -0.43782  -0.43477  -0.43436  -0.43320
 Alpha  occ. eigenvalues --   -0.43250  -0.43128  -0.42900  -0.42765  -0.42464
 Alpha  occ. eigenvalues --   -0.42312  -0.42214  -0.41991  -0.41618  -0.41417
 Alpha  occ. eigenvalues --   -0.41178  -0.41090  -0.40594  -0.40484  -0.40392
 Alpha  occ. eigenvalues --   -0.40100  -0.39841  -0.39659  -0.39376  -0.39169
 Alpha  occ. eigenvalues --   -0.38919  -0.38603  -0.38390  -0.38313  -0.37672
 Alpha  occ. eigenvalues --   -0.37655  -0.37485  -0.37356  -0.37271  -0.36978
 Alpha  occ. eigenvalues --   -0.36856  -0.36562  -0.36371  -0.36187  -0.36158
 Alpha  occ. eigenvalues --   -0.35911  -0.35756  -0.35488  -0.35359  -0.35267
 Alpha  occ. eigenvalues --   -0.34858  -0.34781  -0.34498  -0.34474  -0.34437
 Alpha  occ. eigenvalues --   -0.34276  -0.33825  -0.33711  -0.33659  -0.33562
 Alpha  occ. eigenvalues --   -0.33434  -0.33236  -0.33037  -0.32709  -0.32699
 Alpha  occ. eigenvalues --   -0.32600  -0.32362  -0.32121  -0.31643  -0.31229
 Alpha  occ. eigenvalues --   -0.31094  -0.31032  -0.30879  -0.30304  -0.30185
 Alpha  occ. eigenvalues --   -0.29773  -0.28744  -0.28717  -0.28475  -0.28093
 Alpha  occ. eigenvalues --   -0.27660  -0.27136  -0.26612  -0.26191  -0.25466
 Alpha  occ. eigenvalues --   -0.25439  -0.24618  -0.23325  -0.22664  -0.19438
 Alpha  occ. eigenvalues --   -0.18467
 Alpha virt. eigenvalues --   -0.10024  -0.07840  -0.04814  -0.02016  -0.00628
 Alpha virt. eigenvalues --   -0.00328   0.00140   0.01101   0.02109   0.03483
 Alpha virt. eigenvalues --    0.03776   0.04087   0.04242   0.04281   0.04817

 Mulliken charges:
               1
     1  C   -0.032388
     2  C   -0.055680
     3  C   -0.089999
     4  C   -0.039013
     5  N   -0.233725
     6  C   -0.047055
     7  C   -0.033763
     8  C    0.041290
     9  C    0.028237
    10  C   -0.026335
    11  C    0.095773
    12  C   -0.018124
    13  C    0.146420
    14  O   -0.271040
    15  O   -0.290321
    16  N   -0.150331
    17  C    0.118907
    18  C   -0.047735
    19  C   -0.035636
    20  C    0.152758
    21  C   -0.054440
    22  C   -0.035335
    23  C   -0.099839
    24  N   -0.311713
    25  C    0.113676
    26  C   -0.070514
    27  C   -0.105316
    28  C    0.043687
    29  C   -0.078522
    30  C    0.201986
    31  C    0.013520
    32  N   -0.002279
    33  C    0.053387
    34  C   -0.106198
    35  C    0.012427
    36  C    0.088373
    37  C   -0.045350
    38  C    0.087405
    39  O   -0.224028
    40  C   -0.054759
    41  C    0.224155
    42  O   -0.229307
    43  O   -0.262710
    44  C    0.105714
    45  C    0.183596
    46  C   -0.078392
    47  C   -0.129227
    48  C    0.128160
    49  C    0.074894
    50  C   -0.041759
    51  C    0.082150
    52  C   -0.073149
    53  C    0.031396
    54  C    0.027060
    55  C    0.048493
    56  C   -0.024893
    57  C   -0.130104
    58  C    0.045349
    59  C    0.030259
    60  C   -0.074057
    61  C    0.128984
    62  C   -0.057506
    63  C   -0.000872
    64  C   -0.012259
    65  H   -0.034832
    66  H   -0.028778
    67  H   -0.016857
    68  H    0.020412
    69  H   -0.020087
    70  H    0.047105
    71  H    0.015211
    72  H    0.048222
    73  H    0.013419
    74  H    0.040947
    75  H    0.011318
    76  H    0.024456
    77  H    0.035800
    78  H    0.025809
    79  H    0.038114
    80  H    0.050074
    81  H    0.057677
    82  H    0.039730
    83  H    0.039960
    84  H    0.034536
    85  H    0.048591
    86  H   -0.030629
    87  H   -0.011096
    88  H   -0.003482
    89  H   -0.007030
    90  H   -0.008893
    91  H    0.038918
    92  H    0.048876
    93  H    0.062088
    94  H    0.110103
    95  H    0.054161
    96  H    0.054194
    97  H    0.073519
    98  H    0.051513
    99  H    0.051935
   100  H    0.000719
   101  H    0.027950
   102  H    0.018341
   103  H    0.010564
   104  H    0.011268
   105  H   -0.014409
   106  H   -0.009486
   107  H    0.006641
   108  H   -0.000721
   109  H   -0.027628
   110  H   -0.029190
   111  H   -0.003636
   112  H    0.020627
   113  H    0.027812
   114  H    0.008921
   115  H   -0.010003
   116  H   -0.013083
   117  H   -0.019049
   118  H    0.009812
   119  H   -0.010928
   120  H   -0.016890
   121  H    0.023649
   122  H   -0.008045
   123  H   -0.006129
   124  H    0.031497
   125  H   -0.010774
   126  H    0.017355
   127  H    0.024694
   128  H   -0.048428
   129  H    0.010885
   130  H   -0.003730
   131  H    0.027873
   132  H   -0.002607
   133  H    0.021374
   134  H    0.000996
   135  H    0.009625
   136  H   -0.002255
   137  H    0.181953
   138  H    0.135048
 Sum of Mulliken charges =   0.00000

 Dipole moment (field-independent basis, Debye):
    X=              4.8017    Y=              2.9613    Z=              1.1006  Tot=              5.7478
 Quadrupole moment (field-independent basis, Debye-Ang):
   XX=           -351.0602   YY=           -381.7657   ZZ=           -397.7235
   XY=            -16.7035   XZ=              4.9417   YZ=             -7.4989

 Normal termination of Gaussian 09 at Thu Aug  1 15:52:18 2019.
