 Gaussian 09, Revision D.01,
 Gaussian 09:  ES64L-G09RevD.01 24-Apr-2013

 --------------------------
 # td=(NStates=1) B3LYP/SVP
 --------------------------

 --
 TD
 --
 Symbolic Z-matrix:
 Charge =  0 Multiplicity = 1

                         Standard orientation:
 ---------------------------------------------------------------------
 Center     Atomic      Atomic             Coordinates (Angstroms)
 Number     Number       Type             X           Y           Z
 ---------------------------------------------------------------------
      1          6           0       -5.096933   -1.838401    0.453624
      2          6           0       -4.723721    2.896518    1.483044
      3          6           0       -9.289478    3.240600   -0.289190
      4          6           0       -9.747544   -1.511910   -0.926617
      5          7           0       -5.176569    0.584050    0.857328
      6          6           0       -4.495375   -0.691639    0.850894
      7          6           0       -2.999159   -0.484911    1.347017
      8          6           0       -3.115016    0.947601    1.895715
      9          6           0       -4.450398    1.455061    1.346923
     10          6           0       -2.926301    0.979143    3.394400
     11          6           0       -2.043160   -0.811748    0.167461
     12          6           0       -0.626430   -0.928553    0.535800
     13          6           0        0.453439   -1.019883   -0.631878
     14          8           0        0.008883   -1.195580   -1.746929
     15          8           0        1.749114   -0.875291   -0.188391
     16          7           0       -7.096792    2.763104    0.435813
     17          6           0       -6.031927    3.404795    1.065634
     18          6           0       -6.370012    4.839912    1.066219
     19          6           0       -7.566193    4.986008    0.495244
     20          6           0       -8.030919    3.569940    0.056882
     21          6           0       -5.324376    5.831548    1.452272
     22          6           0       -8.168209    6.270797    0.295148
     23          6           0       -9.188455    6.567571   -0.554423
     24          7           0       -9.169091    0.770613   -0.577042
     25          6           0       -9.879998    1.963719   -0.623166
     26          6           0      -11.264005    1.759796   -0.948993
     27          6           0      -11.424889    0.432453   -1.161368
     28          6           0      -10.073501   -0.179261   -0.891241
     29          6           0      -12.328167    2.968959   -1.103219
     30          6           0      -12.633986   -0.288682   -1.610975
     31          6           0      -12.680900   -0.469371   -3.106308
     32          7           0       -7.545167   -1.372086   -0.173833
     33          6           0       -8.562805   -2.082625   -0.605758
     34          6           0       -8.102501   -3.465854   -0.664113
     35          6           0       -6.745759   -3.382427   -0.262049
     36          6           0       -6.428011   -2.057509    0.118895
     37          6           0       -8.888757   -4.631795   -1.137289
     38          6           0       -5.605081   -4.327416   -0.093144
     39          8           0       -5.482705   -5.561511   -0.129775
     40          6           0       -4.507193   -3.264866    0.521085
     41          6           0       -3.857595   -3.683523    1.884916
     42          8           0       -4.082388   -3.173540    2.882114
     43          8           0       -3.177726   -4.840026    1.721296
     44          6           0       -2.653536   -5.446303    2.927967
     45          6           0        2.701069   -1.201733   -1.057969
     46          6           0        3.979911   -0.722482   -0.490709
     47          6           0        4.973380    0.006362   -1.155456
     48          6           0        4.778722    0.490072   -2.659827
     49          6           0        6.185406    0.441435   -0.458621
     50          6           0        7.385196   -0.367363   -1.013744
     51          6           0        8.748887   -0.112498   -0.257799
     52          6           0       10.069600   -0.672250   -0.832044
     53          6           0        9.990529   -2.274415   -0.903904
     54          6           0       11.236884   -0.105192   -0.028517
     55          6           0       12.638633   -0.517868   -0.671448
     56          6           0       13.903977    0.034847    0.181894
     57          6           0       15.318762   -0.214315   -0.421710
     58          6           0       15.687668   -1.709472   -0.410907
     59          6           0       16.234376    0.657771    0.389109
     60          6           0       17.658072    0.670999   -0.216769
     61          6           0       18.589466    1.591787    0.604497
     62          6           0       20.035808    1.634689    0.128977
     63          6           0       20.331616    2.140908   -1.204501
     64          6           0       20.937856    2.339911    1.285744
     65          1           0       -4.094089    3.527410    1.999969
     66          1           0       -9.879032    4.265800   -0.484771
     67          1           0      -10.583172   -2.295207   -1.232158
     68          1           0       -2.731140   -1.209484    2.005726
     69          1           0       -2.311095    1.465236    1.415776
     70          1           0       -1.926018    0.528299    3.686107
     71          1           0       -2.926272    2.065688    3.646541
     72          1           0       -3.892045    0.546222    3.731457
     73          1           0       -2.201335   -1.720103   -0.339875
     74          1           0       -2.082185   -0.250507   -0.868456
     75          1           0        0.045536    0.036706    1.095624
     76          1           0       -0.240739   -1.551758    1.308994
     77          1           0       -4.497251    5.872955    0.906417
     78          1           0       -5.597150    6.896463    1.389220
     79          1           0       -5.181224    5.724958    2.572180
     80          1           0       -8.126211    7.114901    1.057038
     81          1           0       -9.398261    5.941751   -1.582292
     82          1           0       -9.542770    7.685906   -0.536432
     83          1           0      -12.398120    3.524530   -0.006131
     84          1           0      -12.159366    3.766077   -1.912437
     85          1           0      -13.267984    2.498869   -1.388325
     86          1           0      -12.556255   -1.217299   -1.280837
     87          1           0      -13.432338    0.192953   -1.188513
     88          1           0      -12.412260    0.311564   -3.848864
     89          1           0      -12.058590   -1.278029   -3.323677
     90          1           0      -13.570149   -1.146231   -3.607561
     91          1           0       -9.629316   -4.953869   -0.439862
     92          1           0       -9.340208   -4.230328   -2.016755
     93          1           0       -8.003802   -5.608796   -1.199249
     94          1           0       -3.622041   -3.406326   -0.034479
     95          1           0       -2.004906   -6.424754    2.786950
     96          1           0       -2.159597   -4.501480    3.414791
     97          1           0       -3.495668   -5.770286    3.498872
     98          1           0        2.694208   -2.263593   -1.114513
     99          1           0        2.494413   -0.814808   -2.097604
    100          1           0        4.293262   -0.781118    0.622266
    101          1           0        4.868358    1.654818   -2.610906
    102          1           0        5.698942    0.078722   -3.197886
    103          1           0        3.683558    0.378117   -3.015820
    104          1           0        6.405677    1.517273   -0.842754
    105          1           0        6.169404    0.371504    0.655779
    106          1           0        7.190851   -1.594336   -1.004112
    107          1           0        7.644606   -0.173716   -1.996093
    108          1           0        8.720916    0.912259    0.005642
    109          1           0        8.553511   -0.555469    0.688118
    110          1           0       10.000918   -0.123276   -1.932816
    111          1           0        8.843481   -2.756429   -1.282747
    112          1           0       10.619896   -2.777545   -1.533463
    113          1           0       10.189658   -2.401909    0.258079
    114          1           0       11.180638    1.037714   -0.043049
    115          1           0       11.249027   -0.604695    1.116290
    116          1           0       12.842680   -1.525811   -0.865950
    117          1           0       12.617212   -0.219787   -1.652126
    118          1           0       13.906339    1.012736    0.126180
    119          1           0       13.698143   -0.452064    0.929407
    120          1           0       15.317950    0.255167   -1.522801
    121          1           0       15.238023   -2.058232   -1.284301
    122          1           0       16.646236   -1.867013   -0.861489
    123          1           0       15.637608   -2.166297    0.613891
    124          1           0       15.704416    1.677659    0.626706
    125          1           0       16.198788    0.269495    1.572299
    126          1           0       18.051966   -0.376339   -0.429763
    127          1           0       17.523934    0.992420   -1.327398
    128          1           0       18.166420    2.729222    0.419438
    129          1           0       18.563018    1.355614    1.617326
    130          1           0       20.524352    0.666623    0.245806
    131          1           0       19.608586    3.216238   -1.316462
    132          1           0       21.482586    2.366971   -1.373738
    133          1           0       19.771023    1.711261   -1.973668
    134          1           0       20.645325    1.773819    2.282737
    135          1           0       21.996922    2.312691    1.075147
    136          1           0       20.423944    3.429257    1.499357
    137          1           0       -7.446946    1.795666    0.393836
    138          1           0       -7.606687   -0.410458   -0.130449
 ---------------------------------------------------------------------

 SCF Done:  E(RB3LYP) =  -2732.93946565     A.U. after   16 cycles

 Excitation energies and oscillator strengths:

 Excited State   1:      Singlet-A      2.1764 eV  569.67 nm  f=0.1803  <S**2>=0.000
     235 -> 237       -0.15600
     235 -> 238        0.24725
     236 -> 237        0.61458
     236 -> 238        0.18187
 This state for optimization and/or second-order correction.
 Total Energy, E(TD-HF/TD-KS) =  -2732.85948408
 Copying the excited state density for this state as the 1-particle RhoCI density.

 The electronic state is 1-A.
 Alpha  occ. eigenvalues --  -19.18489 -19.16921 -19.13327 -19.12751 -19.12717
 Alpha  occ. eigenvalues --  -14.37343 -14.36532 -14.31804 -14.30287 -10.32379
 Alpha  occ. eigenvalues --  -10.31074 -10.28554 -10.25533 -10.25049 -10.24196
 Alpha  occ. eigenvalues --  -10.23496 -10.23050 -10.23044 -10.22551 -10.22332
 Alpha  occ. eigenvalues --  -10.21907 -10.21343 -10.21309 -10.21212 -10.21129
 Alpha  occ. eigenvalues --  -10.21109 -10.21107 -10.20953 -10.20946 -10.20843
 Alpha  occ. eigenvalues --  -10.20717 -10.20570 -10.20562 -10.20467 -10.20456
 Alpha  occ. eigenvalues --  -10.20429 -10.20384 -10.20357 -10.20122 -10.19797
 Alpha  occ. eigenvalues --  -10.19756 -10.19655 -10.19623 -10.19610 -10.19531
 Alpha  occ. eigenvalues --  -10.19475 -10.19422 -10.19387 -10.19382 -10.19208
 Alpha  occ. eigenvalues --  -10.19146 -10.18928 -10.18885 -10.18877 -10.18843
 Alpha  occ. eigenvalues --  -10.18828 -10.18733 -10.18652 -10.18580 -10.17686
 Alpha  occ. eigenvalues --  -10.17478 -10.17361 -10.16906 -10.15339  -1.11155
 Alpha  occ. eigenvalues --   -1.10921  -1.02663  -1.02532  -1.01180  -1.00523
 Alpha  occ. eigenvalues --   -0.99933  -0.95226  -0.93454  -0.84990  -0.83139
 Alpha  occ. eigenvalues --   -0.82121  -0.81853  -0.81457  -0.80821  -0.80354
 Alpha  occ. eigenvalues --   -0.80345  -0.79906  -0.79654  -0.79095  -0.77854
 Alpha  occ. eigenvalues --   -0.76539  -0.75676  -0.75254  -0.74796  -0.74370
 Alpha  occ. eigenvalues --   -0.73179  -0.72889  -0.72675  -0.71559  -0.71382
 Alpha  occ. eigenvalues --   -0.70024  -0.69051  -0.68386  -0.68211  -0.67271
 Alpha  occ. eigenvalues --   -0.67169  -0.66854  -0.65948  -0.65658  -0.65433
 Alpha  occ. eigenvalues --   -0.64344  -0.63172  -0.62919  -0.62779  -0.61757
 Alpha  occ. eigenvalues --   -0.61223  -0.59156  -0.58825  -0.58469  -0.57810
 Alpha  occ. eigenvalues --   -0.57442  -0.57275  -0.56833  -0.56155  -0.55111
 Alpha  occ. eigenvalues --   -0.54896  -0.54614  -0.53846  -0.53457  -0.52753
 Alpha  occ. eigenvalues --   -0.52339  -0.51752  -0.51105  -0.50922  -0.50590
 Alpha  occ. eigenvalues --   -0.50275  -0.50027  -0.49556  -0.49085  -0.48590
 Alpha  occ. eigenvalues --   -0.48205  -0.47844  -0.47718  -0.47531  -0.46873
 Alpha  occ. eigenvalues --   -0.46657  -0.46407  -0.46024  -0.45922  -0.45723
 Alpha  occ. eigenvalues --   -0.45660  -0.45441  -0.45036  -0.45002  -0.44871
 Alpha  occ. eigenvalues --   -0.44807  -0.44643  -0.44054  -0.43848  -0.43624
 Alpha  occ. eigenvalues --   -0.43429  -0.43353  -0.43262  -0.42786  -0.42754
 Alpha  occ. eigenvalues --   -0.42248  -0.41929  -0.41843  -0.41727  -0.41547
 Alpha  occ. eigenvalues --   -0.41462  -0.41149  -0.41004  -0.40747  -0.40314
 Alpha  occ. eigenvalues --   -0.40132  -0.40052  -0.39961  -0.39733  -0.39493
 Alpha  occ. eigenvalues --   -0.39463  -0.39284  -0.38981  -0.38868  -0.38479
 Alpha  occ. eigenvalues --   -0.38417  -0.38111  -0.37887  -0.37776  -0.37704
 Alpha  occ. eigenvalues --   -0.37508  -0.36974  -0.36911  -0.36741  -0.36397
 Alpha  occ. eigenvalues --   -0.36317  -0.35752  -0.35489  -0.35368  -0.35313
 Alpha  occ. eigenvalues --   -0.35041  -0.34875  -0.34831  -0.34781  -0.34500
 Alpha  occ. eigenvalues --   -0.34484  -0.34115  -0.34077  -0.33835  -0.33753
 Alpha  occ. eigenvalues --   -0.33234  -0.33195  -0.32874  -0.32838  -0.32277
 Alpha  occ. eigenvalues --   -0.32157  -0.32042  -0.31925  -0.31655  -0.31137
 Alpha  occ. eigenvalues --   -0.30933  -0.30868  -0.30479  -0.30122  -0.30084
 Alpha  occ. eigenvalues --   -0.30055  -0.29004  -0.28663  -0.27978  -0.27887
 Alpha  occ. eigenvalues --   -0.27411  -0.27256  -0.26657  -0.26118  -0.25809
 Alpha  occ. eigenvalues --   -0.24619  -0.24489  -0.23676  -0.23405  -0.20298
 Alpha  occ. eigenvalues --   -0.18707
 Alpha virt. eigenvalues --   -0.09765  -0.07671  -0.04905  -0.01999  -0.00526
 Alpha virt. eigenvalues --    0.00457   0.00968   0.01899   0.02662   0.03763
 Alpha virt. eigenvalues --    0.03829   0.04073   0.04205   0.04455   0.04659

 Mulliken charges:
               1
     1  C    0.060433
     2  C   -0.029590
     3  C   -0.095988
     4  C   -0.124005
     5  N   -0.119003
     6  C   -0.110655
     7  C    0.087874
     8  C    0.013268
     9  C   -0.049859
    10  C    0.073960
    11  C    0.106964
    12  C   -0.078257
    13  C    0.185425
    14  O   -0.225038
    15  O   -0.278761
    16  N    0.004086
    17  C    0.088866
    18  C   -0.129745
    19  C    0.046578
    20  C   -0.014713
    21  C    0.155811
    22  C   -0.084590
    23  C   -0.123733
    24  N   -0.268660
    25  C    0.073640
    26  C   -0.116739
    27  C   -0.151238
    28  C    0.072399
    29  C    0.032777
    30  C    0.275357
    31  C   -0.015951
    32  N    0.089161
    33  C    0.012067
    34  C   -0.123820
    35  C   -0.091476
    36  C    0.081510
    37  C    0.054653
    38  C    0.154212
    39  O   -0.183770
    40  C   -0.059296
    41  C    0.139651
    42  O   -0.152053
    43  O   -0.313687
    44  C    0.148295
    45  C    0.310285
    46  C   -0.109312
    47  C   -0.183490
    48  C    0.012885
    49  C    0.098811
    50  C   -0.050683
    51  C    0.074923
    52  C   -0.089581
    53  C   -0.016679
    54  C   -0.018917
    55  C    0.059413
    56  C    0.226289
    57  C   -0.168857
    58  C    0.136171
    59  C   -0.040532
    60  C    0.021464
    61  C    0.059281
    62  C   -0.082768
    63  C    0.030422
    64  C   -0.042280
    65  H   -0.042872
    66  H    0.018532
    67  H    0.006117
    68  H   -0.046402
    69  H   -0.024451
    70  H    0.035550
    71  H    0.003514
    72  H    0.032375
    73  H   -0.011767
    74  H    0.023196
    75  H    0.019668
    76  H    0.005885
    77  H    0.003547
    78  H   -0.006484
    79  H    0.029925
    80  H    0.033053
    81  H    0.065723
    82  H    0.041761
    83  H    0.050520
    84  H    0.042775
    85  H    0.009460
    86  H   -0.064416
    87  H   -0.018286
    88  H    0.027418
    89  H   -0.027194
    90  H    0.001961
    91  H    0.027232
    92  H    0.030305
    93  H    0.080844
    94  H    0.019366
    95  H    0.064203
    96  H    0.044992
    97  H    0.025865
    98  H   -0.011953
    99  H    0.015394
   100  H    0.000318
   101  H    0.025127
   102  H    0.049256
   103  H    0.039588
   104  H    0.010196
   105  H    0.012597
   106  H    0.018502
   107  H   -0.022821
   108  H   -0.030663
   109  H   -0.038863
   110  H    0.005647
   111  H    0.034272
   112  H    0.010736
   113  H    0.031637
   114  H    0.019758
   115  H    0.021100
   116  H   -0.034101
   117  H   -0.053314
   118  H   -0.048638
   119  H   -0.084428
   120  H   -0.000676
   121  H   -0.023489
   122  H   -0.030349
   123  H    0.032991
   124  H    0.006186
   125  H   -0.008238
   126  H    0.007648
   127  H   -0.004417
   128  H    0.013622
   129  H   -0.020704
   130  H   -0.010350
   131  H   -0.016370
   132  H    0.041515
   133  H   -0.004536
   134  H    0.016053
   135  H    0.021365
   136  H    0.017156
   137  H    0.156769
   138  H    0.091355
 Sum of Mulliken charges =   0.00000

 Dipole moment (field-independent basis, Debye):
    X=              2.5772    Y=              3.5514    Z=              1.2224  Tot=              4.5551
 Quadrupole moment (field-independent basis, Debye-Ang):
   XX=           -355.1914   YY=           -382.3532   ZZ=           -394.7133
   XY=            -33.0078   XZ=             -1.4655   YZ=             -2.5574

 Normal termination of Gaussian 09 at Mon Jul 29 07:03:54 2019.
