 Gaussian 09, Revision D.01,
 Gaussian 09:  ES64L-G09RevD.01 24-Apr-2013

 --------------------------
 # td=(NStates=1) B3LYP/SVP
 --------------------------

 --
 TD
 --
 Symbolic Z-matrix:
 Charge =  0 Multiplicity = 1

                         Standard orientation:
 ---------------------------------------------------------------------
 Center     Atomic      Atomic             Coordinates (Angstroms)
 Number     Number       Type             X           Y           Z
 ---------------------------------------------------------------------
      1          6           0       -5.194625   -1.983266    0.493934
      2          6           0       -4.598316    2.771859    1.366413
      3          6           0       -9.207266    3.436472   -0.292837
      4          6           0       -9.785822   -1.224911   -0.926452
      5          7           0       -5.228577    0.489555    0.868298
      6          6           0       -4.527123   -0.825012    0.899975
      7          6           0       -3.074265   -0.688718    1.248830
      8          6           0       -3.023769    0.799762    1.852380
      9          6           0       -4.386857    1.420695    1.411767
     10          6           0       -3.112825    0.843371    3.440154
     11          6           0       -2.174051   -0.796692    0.123269
     12          6           0       -0.629766   -0.865772    0.568674
     13          6           0        0.349927   -1.234718   -0.645142
     14          8           0        0.057203   -1.832226   -1.623243
     15          8           0        1.641466   -0.799164   -0.301660
     16          7           0       -6.966232    2.824234    0.463767
     17          6           0       -5.916767    3.432819    1.042486
     18          6           0       -6.153182    4.812213    1.193170
     19          6           0       -7.393318    4.950247    0.596033
     20          6           0       -7.905412    3.779344    0.086754
     21          6           0       -5.121453    5.797922    1.413808
     22          6           0       -8.137905    6.230725    0.464981
     23          6           0       -8.908546    6.666451   -0.494732
     24          7           0       -9.152618    0.985070   -0.516800
     25          6           0       -9.706123    2.212493   -0.571414
     26          6           0      -11.179813    2.054192   -1.020029
     27          6           0      -11.279020    0.694845   -1.150575
     28          6           0      -10.081006    0.077625   -0.867470
     29          6           0      -12.247053    3.133493   -1.046847
     30          6           0      -12.439105   -0.174102   -1.664124
     31          6           0      -12.439264   -0.282834   -3.194047
     32          7           0       -7.511845   -1.196088   -0.360465
     33          6           0       -8.607097   -1.928116   -0.719209
     34          6           0       -8.305006   -3.332829   -0.638294
     35          6           0       -6.943682   -3.375924   -0.285906
     36          6           0       -6.576966   -2.122087    0.156627
     37          6           0       -9.142912   -4.520539   -1.068911
     38          6           0       -5.859450   -4.329103    0.079111
     39          8           0       -5.828575   -5.563072    0.063389
     40          6           0       -4.706804   -3.434532    0.487260
     41          6           0       -4.011693   -3.882578    1.772131
     42          8           0       -4.399849   -3.379498    2.785657
     43          8           0       -3.158990   -4.830048    1.513449
     44          6           0       -2.512438   -5.436801    2.667721
     45          6           0        2.612899   -1.173931   -1.266084
     46          6           0        3.973829   -0.784908   -0.551753
     47          6           0        4.935188   -0.248418   -1.243211
     48          6           0        5.027705    0.145057   -2.757330
     49          6           0        6.273656    0.145386   -0.539391
     50          6           0        7.479458   -0.413457   -1.049314
     51          6           0        8.830163   -0.192930   -0.244513
     52          6           0       10.140399   -0.850909   -0.633797
     53          6           0       10.057730   -2.394358   -0.577105
     54          6           0       11.360208   -0.223954    0.076604
     55          6           0       12.609926   -0.486698   -0.474245
     56          6           0       13.854474   -0.047470    0.324999
     57          6           0       15.300176   -0.210719   -0.336403
     58          6           0       15.621958   -1.686259   -0.496463
     59          6           0       16.244285    0.618963    0.432432
     60          6           0       17.607036    0.772951   -0.220524
     61          6           0       18.601415    1.590657    0.713781
     62          6           0       20.063887    1.851131   -0.017681
     63          6           0       19.958433    2.658140   -1.259101
     64          6           0       20.897314    2.441877    1.051221
     65          1           0       -3.929249    3.412006    1.630631
     66          1           0       -9.869006    4.337264   -0.375878
     67          1           0      -10.780519   -1.770516   -1.230665
     68          1           0       -2.700421   -1.361429    1.973097
     69          1           0       -2.183043    1.345103    1.244167
     70          1           0       -1.987207    0.746794    3.593649
     71          1           0       -3.387572    1.993348    3.838569
     72          1           0       -3.772210    0.061717    3.708396
     73          1           0       -2.181689   -1.741451   -0.302230
     74          1           0       -2.414366   -0.173656   -0.612885
     75          1           0       -0.218371    0.276174    0.811738
     76          1           0       -0.483762   -1.483078    1.507247
     77          1           0       -4.257855    5.429065    0.903113
     78          1           0       -5.207393    6.943159    1.293220
     79          1           0       -4.955404    5.890883    2.660316
     80          1           0       -7.728322    6.701950    1.386989
     81          1           0       -8.864995    5.960870   -1.277903
     82          1           0       -9.496483    7.584462   -0.632374
     83          1           0      -12.338409    3.679746    0.032930
     84          1           0      -11.912238    3.757410   -1.675514
     85          1           0      -13.422675    2.803980   -1.253268
     86          1           0      -12.148917   -1.194884   -1.318031
     87          1           0      -13.386893    0.320399   -1.314166
     88          1           0      -12.359654    0.538480   -3.763647
     89          1           0      -11.695660   -1.150815   -3.563127
     90          1           0      -13.506802   -0.718489   -3.503619
     91          1           0      -10.183184   -4.136371   -0.711357
     92          1           0       -9.335379   -4.567991   -2.054399
     93          1           0       -8.775626   -5.392308   -0.723995
     94          1           0       -4.054196   -3.533699   -0.519565
     95          1           0       -1.992806   -6.293236    2.507268
     96          1           0       -1.664410   -4.752585    3.163898
     97          1           0       -3.404340   -5.765734    3.477373
     98          1           0        2.696900   -2.274192   -1.390566
     99          1           0        2.367803   -0.667073   -2.156280
    100          1           0        3.876107   -0.900252    0.651161
    101          1           0        5.253535    1.124913   -2.911541
    102          1           0        5.832627   -0.384538   -3.290100
    103          1           0        4.046224   -0.124523   -3.272620
    104          1           0        6.162717    1.319690   -0.405627
    105          1           0        6.314520    0.097379    0.609772
    106          1           0        7.433396   -1.509713   -1.255385
    107          1           0        7.829049   -0.265977   -2.199900
    108          1           0        8.932840    0.912387   -0.036458
    109          1           0        8.720061   -0.413239    0.949971
    110          1           0        9.987789   -0.717901   -1.809976
    111          1           0        9.168540   -2.918198   -1.052376
    112          1           0       11.090683   -2.789861   -0.988845
    113          1           0       10.057307   -2.680082    0.597250
    114          1           0       11.306268    0.937967    0.148449
    115          1           0       11.298553   -0.586252    1.080623
    116          1           0       12.883623   -1.528454   -0.654452
    117          1           0       12.622872   -0.194543   -1.518064
    118          1           0       13.656861    0.995495    0.617020
    119          1           0       13.888487   -0.235213    1.419304
    120          1           0       15.055224    0.428594   -1.275462
    121          1           0       14.855821   -2.269621   -1.413436
    122          1           0       16.634487   -1.900421   -0.824813
    123          1           0       15.663602   -2.268666    0.336089
    124          1           0       16.048666    1.529397    0.514279
    125          1           0       16.329155    0.066040    1.382054
    126          1           0       17.925706   -0.123766   -0.555248
    127          1           0       17.401147    1.222097   -1.067487
    128          1           0       18.121018    2.496432    0.942988
    129          1           0       18.693012    1.025289    1.723204
    130          1           0       20.306143    0.743450   -0.189158
    131          1           0       19.508988    3.640728   -0.870438
    132          1           0       20.931668    2.911661   -1.873210
    133          1           0       19.449632    2.266746   -2.097289
    134          1           0       21.043429    1.593634    1.871461
    135          1           0       21.969242    2.979470    0.691063
    136          1           0       20.431166    3.451294    1.703594
    137          1           0       -7.165243    1.713307    0.273212
    138          1           0       -7.573879   -0.054257   -0.256735
 ---------------------------------------------------------------------

 SCF Done:  E(RB3LYP) =  -2732.88813313     A.U. after   18 cycles

 Excitation energies and oscillator strengths:

 Excited State   1:      Singlet-A      2.0481 eV  605.35 nm  f=0.1730  <S**2>=0.000
     235 -> 237        0.60843
     236 -> 237        0.18762
     236 -> 238       -0.29622
 This state for optimization and/or second-order correction.
 Total Energy, E(TD-HF/TD-KS) =  -2732.81286580
 Copying the excited state density for this state as the 1-particle RhoCI density.

 The electronic state is 1-A.
 Alpha  occ. eigenvalues --  -19.20186 -19.17608 -19.14329 -19.12692 -19.12046
 Alpha  occ. eigenvalues --  -14.36630 -14.36134 -14.32250 -14.30259 -10.32500
 Alpha  occ. eigenvalues --  -10.32040 -10.27902 -10.27011 -10.24315 -10.23645
 Alpha  occ. eigenvalues --  -10.23271 -10.23101 -10.22758 -10.22687 -10.22198
 Alpha  occ. eigenvalues --  -10.21971 -10.21607 -10.21415 -10.21383 -10.21299
 Alpha  occ. eigenvalues --  -10.21124 -10.20797 -10.20389 -10.20330 -10.20272
 Alpha  occ. eigenvalues --  -10.20223 -10.20143 -10.20062 -10.20023 -10.19984
 Alpha  occ. eigenvalues --  -10.19950 -10.19919 -10.19882 -10.19860 -10.19841
 Alpha  occ. eigenvalues --  -10.19681 -10.19660 -10.19656 -10.19556 -10.19503
 Alpha  occ. eigenvalues --  -10.19416 -10.19363 -10.19343 -10.19180 -10.19175
 Alpha  occ. eigenvalues --  -10.19047 -10.18952 -10.18832 -10.18662 -10.18524
 Alpha  occ. eigenvalues --  -10.18456 -10.18370 -10.18122 -10.18062 -10.17834
 Alpha  occ. eigenvalues --  -10.17564 -10.17005 -10.15862 -10.15654  -1.11604
 Alpha  occ. eigenvalues --   -1.09564  -1.02713  -1.02407  -1.01437  -0.98196
 Alpha  occ. eigenvalues --   -0.97150  -0.94580  -0.90953  -0.84993  -0.83044
 Alpha  occ. eigenvalues --   -0.82145  -0.82060  -0.81805  -0.81380  -0.81273
 Alpha  occ. eigenvalues --   -0.79571  -0.79552  -0.79419  -0.78678  -0.77643
 Alpha  occ. eigenvalues --   -0.76543  -0.76093  -0.75611  -0.74950  -0.74393
 Alpha  occ. eigenvalues --   -0.74027  -0.73412  -0.72850  -0.71859  -0.70811
 Alpha  occ. eigenvalues --   -0.70141  -0.69723  -0.68788  -0.68228  -0.68027
 Alpha  occ. eigenvalues --   -0.67355  -0.67070  -0.66299  -0.65992  -0.65324
 Alpha  occ. eigenvalues --   -0.63525  -0.62379  -0.62093  -0.61772  -0.61347
 Alpha  occ. eigenvalues --   -0.61177  -0.59644  -0.58266  -0.57978  -0.57824
 Alpha  occ. eigenvalues --   -0.57167  -0.56836  -0.56506  -0.56301  -0.55718
 Alpha  occ. eigenvalues --   -0.54719  -0.54366  -0.54199  -0.53697  -0.52636
 Alpha  occ. eigenvalues --   -0.52455  -0.51904  -0.51282  -0.50953  -0.50174
 Alpha  occ. eigenvalues --   -0.49775  -0.49739  -0.49560  -0.49236  -0.48714
 Alpha  occ. eigenvalues --   -0.48477  -0.48215  -0.48027  -0.47612  -0.47162
 Alpha  occ. eigenvalues --   -0.46848  -0.46601  -0.46277  -0.45874  -0.45565
 Alpha  occ. eigenvalues --   -0.45288  -0.44976  -0.44840  -0.44590  -0.44565
 Alpha  occ. eigenvalues --   -0.44390  -0.44299  -0.44160  -0.44130  -0.43822
 Alpha  occ. eigenvalues --   -0.43455  -0.43175  -0.43070  -0.42806  -0.42643
 Alpha  occ. eigenvalues --   -0.42332  -0.42235  -0.41941  -0.41811  -0.41714
 Alpha  occ. eigenvalues --   -0.41410  -0.41282  -0.41082  -0.41000  -0.40726
 Alpha  occ. eigenvalues --   -0.40549  -0.40349  -0.40130  -0.40100  -0.39655
 Alpha  occ. eigenvalues --   -0.39572  -0.39480  -0.39094  -0.38952  -0.38903
 Alpha  occ. eigenvalues --   -0.38540  -0.38461  -0.37952  -0.37771  -0.37587
 Alpha  occ. eigenvalues --   -0.37359  -0.36908  -0.36843  -0.36593  -0.36576
 Alpha  occ. eigenvalues --   -0.36368  -0.36003  -0.35892  -0.35865  -0.35608
 Alpha  occ. eigenvalues --   -0.35555  -0.35300  -0.35053  -0.34989  -0.34838
 Alpha  occ. eigenvalues --   -0.34436  -0.34121  -0.33804  -0.33714  -0.33657
 Alpha  occ. eigenvalues --   -0.33298  -0.33237  -0.33022  -0.32538  -0.32320
 Alpha  occ. eigenvalues --   -0.32179  -0.32007  -0.31560  -0.31391  -0.31332
 Alpha  occ. eigenvalues --   -0.30783  -0.30709  -0.30589  -0.29788  -0.28950
 Alpha  occ. eigenvalues --   -0.28763  -0.28734  -0.28366  -0.27907  -0.27595
 Alpha  occ. eigenvalues --   -0.27370  -0.26957  -0.26327  -0.25878  -0.25637
 Alpha  occ. eigenvalues --   -0.25371  -0.24838  -0.23769  -0.22883  -0.19506
 Alpha  occ. eigenvalues --   -0.19087
 Alpha virt. eigenvalues --   -0.10870  -0.06903  -0.04541  -0.01038  -0.00560
 Alpha virt. eigenvalues --    0.00209   0.00747   0.01644   0.01973   0.03222
 Alpha virt. eigenvalues --    0.03366   0.03719   0.04287   0.04566   0.04622

 Mulliken charges:
               1
     1  C   -0.001142
     2  C    0.043658
     3  C   -0.127357
     4  C   -0.090359
     5  N   -0.255830
     6  C   -0.010870
     7  C    0.037285
     8  C   -0.115909
     9  C    0.046740
    10  C    0.043219
    11  C    0.159992
    12  C   -0.093701
    13  C    0.201758
    14  O   -0.187109
    15  O   -0.345830
    16  N   -0.127625
    17  C    0.037170
    18  C   -0.066537
    19  C   -0.049867
    20  C    0.069854
    21  C    0.009471
    22  C   -0.007533
    23  C    0.013290
    24  N   -0.239119
    25  C    0.103128
    26  C   -0.164507
    27  C   -0.073556
    28  C    0.035154
    29  C    0.099482
    30  C    0.078363
    31  C    0.003135
    32  N   -0.152295
    33  C    0.106890
    34  C   -0.166367
    35  C   -0.038979
    36  C    0.081201
    37  C    0.198499
    38  C    0.083740
    39  O   -0.191100
    40  C   -0.048285
    41  C    0.209894
    42  O   -0.208842
    43  O   -0.250803
    44  C    0.139889
    45  C    0.258254
    46  C   -0.147779
    47  C   -0.089938
    48  C    0.107880
    49  C    0.038606
    50  C    0.036859
    51  C   -0.027870
    52  C   -0.088167
    53  C   -0.040044
    54  C    0.089058
    55  C    0.111980
    56  C   -0.008353
    57  C   -0.054195
    58  C    0.054548
    59  C    0.094827
    60  C    0.168088
    61  C   -0.011490
    62  C   -0.053002
    63  C    0.024421
    64  C   -0.068450
    65  H   -0.122407
    66  H   -0.014920
    67  H   -0.018401
    68  H   -0.034780
    69  H    0.022229
    70  H    0.028168
    71  H    0.044843
    72  H    0.046778
    73  H   -0.010689
    74  H   -0.035788
    75  H    0.050008
    76  H    0.054994
    77  H    0.044384
    78  H    0.040590
    79  H    0.028608
    80  H   -0.010108
    81  H    0.015125
    82  H    0.034012
    83  H    0.045304
    84  H   -0.023955
    85  H    0.040794
    86  H    0.009139
    87  H    0.011943
    88  H   -0.008112
    89  H    0.023157
    90  H    0.010043
    91  H    0.018460
    92  H   -0.004985
    93  H    0.012193
    94  H    0.083227
    95  H    0.015489
    96  H    0.048675
    97  H    0.069321
    98  H    0.029887
    99  H    0.009509
   100  H    0.045688
   101  H   -0.000526
   102  H    0.023401
   103  H    0.012112
   104  H    0.009927
   105  H   -0.004687
   106  H   -0.010745
   107  H   -0.001636
   108  H   -0.011826
   109  H   -0.024084
   110  H   -0.005766
   111  H    0.038502
   112  H    0.030517
   113  H    0.009078
   114  H    0.005538
   115  H   -0.017682
   116  H   -0.032084
   117  H   -0.028939
   118  H   -0.049649
   119  H   -0.036107
   120  H   -0.004583
   121  H    0.035772
   122  H   -0.003947
   123  H   -0.015379
   124  H   -0.083720
   125  H   -0.018827
   126  H   -0.063411
   127  H   -0.073733
   128  H   -0.020635
   129  H    0.008950
   130  H    0.011845
   131  H    0.016699
   132  H    0.014415
   133  H    0.001684
   134  H    0.031397
   135  H    0.027678
   136  H    0.021666
   137  H    0.213471
   138  H    0.213364
 Sum of Mulliken charges =   0.00000

 Dipole moment (field-independent basis, Debye):
    X=              2.9231    Y=              3.2674    Z=             -0.2128  Tot=              4.3893
 Quadrupole moment (field-independent basis, Debye-Ang):
   XX=           -363.9764   YY=           -383.3329   ZZ=           -393.9302
   XY=            -29.1807   XZ=              7.7571   YZ=             -4.8955

 Normal termination of Gaussian 09 at Sat Aug  3 15:01:49 2019.
