 Gaussian 09, Revision D.01,
 Gaussian 09:  ES64L-G09RevD.01 24-Apr-2013

 --------------------------
 # td=(NStates=1) B3LYP/SVP
 --------------------------

 --
 TD
 --
 Symbolic Z-matrix:
 Charge =  0 Multiplicity = 1

                         Standard orientation:
 ---------------------------------------------------------------------
 Center     Atomic      Atomic             Coordinates (Angstroms)
 Number     Number       Type             X           Y           Z
 ---------------------------------------------------------------------
      1          6           0       -5.050677   -1.965895    0.465866
      2          6           0       -4.901270    2.727069    1.506356
      3          6           0       -9.453630    3.335154   -0.096422
      4          6           0       -9.743404   -1.488265   -1.019259
      5          7           0       -5.202787    0.417346    0.801690
      6          6           0       -4.508182   -0.688644    0.902069
      7          6           0       -3.100930   -0.584590    1.345338
      8          6           0       -3.133958    0.889544    1.931177
      9          6           0       -4.465838    1.373157    1.438189
     10          6           0       -2.837766    1.025319    3.464797
     11          6           0       -2.157813   -0.746507    0.193778
     12          6           0       -0.613987   -0.601684    0.676385
     13          6           0        0.369665   -0.938257   -0.422490
     14          8           0        0.045074   -1.379112   -1.554379
     15          8           0        1.575436   -0.663527   -0.162967
     16          7           0       -7.000719    2.766104    0.523656
     17          6           0       -6.024576    3.340313    1.098016
     18          6           0       -6.357648    4.754589    1.173026
     19          6           0       -7.614276    4.935480    0.599887
     20          6           0       -8.092124    3.653868    0.211575
     21          6           0       -5.403962    5.831222    1.574165
     22          6           0       -8.312048    6.224058    0.355806
     23          6           0       -9.217535    6.470347   -0.600061
     24          7           0       -9.173445    0.810783   -0.558154
     25          6           0       -9.833260    1.995595   -0.608215
     26          6           0      -11.325225    1.756936   -1.161090
     27          6           0      -11.375699    0.399279   -1.257404
     28          6           0      -10.073974   -0.194415   -0.968399
     29          6           0      -12.273244    2.901160   -1.505412
     30          6           0      -12.556940   -0.308810   -1.762583
     31          6           0      -12.487498   -0.491547   -3.328064
     32          7           0       -7.462912   -1.269308   -0.216583
     33          6           0       -8.556209   -2.035247   -0.588667
     34          6           0       -8.070553   -3.391112   -0.577516
     35          6           0       -6.747342   -3.384237   -0.177173
     36          6           0       -6.387485   -2.015305    0.015570
     37          6           0       -8.929768   -4.622837   -1.022314
     38          6           0       -5.651691   -4.269516   -0.024586
     39          8           0       -5.531581   -5.498005   -0.156861
     40          6           0       -4.474537   -3.320754    0.535846
     41          6           0       -3.961822   -3.771651    1.772736
     42          8           0       -4.340092   -3.409112    2.787983
     43          8           0       -3.039278   -4.780827    1.687342
     44          6           0       -2.517514   -5.244226    2.857680
     45          6           0        2.671038   -1.021413   -1.141445
     46          6           0        3.968245   -0.733754   -0.533777
     47          6           0        4.980609   -0.014062   -1.131342
     48          6           0        4.807261    0.679555   -2.398727
     49          6           0        6.203864    0.246346   -0.491551
     50          6           0        7.486814   -0.327367   -1.045290
     51          6           0        8.771852   -0.187148   -0.149176
     52          6           0       10.175095   -0.669078   -0.885069
     53          6           0       10.093651   -2.181318   -1.008503
     54          6           0       11.311195   -0.255359    0.036248
     55          6           0       12.699434   -0.566210   -0.595568
     56          6           0       13.899022   -0.083567    0.282980
     57          6           0       15.354114   -0.139530   -0.329292
     58          6           0       15.685516   -1.664168   -0.572430
     59          6           0       16.301260    0.603191    0.486177
     60          6           0       17.601085    0.786978   -0.239904
     61          6           0       18.626427    1.606523    0.735510
     62          6           0       20.001567    1.667331    0.127266
     63          6           0       20.006141    2.160183   -1.347117
     64          6           0       21.007223    2.452578    0.998467
     65          1           0       -4.027006    3.095688    1.929394
     66          1           0      -10.006397    4.205600    0.101140
     67          1           0      -10.589256   -2.134037   -1.095126
     68          1           0       -2.877470   -1.142830    2.173107
     69          1           0       -2.293339    1.509180    1.517771
     70          1           0       -1.882062    0.359152    3.429511
     71          1           0       -3.085265    2.179819    3.818255
     72          1           0       -3.545813    0.298237    3.973720
     73          1           0       -2.354066   -1.758515   -0.420331
     74          1           0       -2.482608    0.055830   -0.647505
     75          1           0       -0.362746    0.365681    1.307494
     76          1           0       -0.362307   -1.291672    1.371893
     77          1           0       -4.531873    6.014599    0.784948
     78          1           0       -5.843236    6.774857    1.637973
     79          1           0       -4.782601    5.394895    2.472124
     80          1           0       -8.084016    6.800098    1.105390
     81          1           0       -9.390910    5.721967   -1.456986
     82          1           0       -9.816425    7.556539   -0.600464
     83          1           0      -12.435169    3.633079   -0.665526
     84          1           0      -12.121238    3.575442   -2.148177
     85          1           0      -13.338223    2.437628   -1.638318
     86          1           0      -12.511358   -1.430800   -1.415612
     87          1           0      -13.446118    0.356274   -1.564367
     88          1           0      -12.235619    0.439348   -3.833490
     89          1           0      -11.677458   -1.178195   -3.689576
     90          1           0      -13.354247   -0.933437   -3.842203
     91          1           0       -9.815731   -4.824541   -0.412619
     92          1           0       -8.989611   -4.449971   -2.174286
     93          1           0       -8.196999   -5.407017   -0.849828
     94          1           0       -3.922818   -3.389981   -0.346911
     95          1           0       -1.852620   -6.133965    2.568661
     96          1           0       -1.715305   -4.371561    3.430338
     97          1           0       -3.207513   -5.714962    3.663393
     98          1           0        2.335804   -2.031460   -1.426410
     99          1           0        2.562343   -0.289404   -1.795897
    100          1           0        4.209271   -1.120388    0.405175
    101          1           0        5.030172    1.607993   -2.231578
    102          1           0        5.437049    0.332215   -3.188294
    103          1           0        3.862737    0.709220   -3.076854
    104          1           0        6.367266    1.430174   -0.200603
    105          1           0        6.260068   -0.170817    0.614359
    106          1           0        7.292020   -1.467333   -0.990343
    107          1           0        7.830210   -0.110584   -2.080197
    108          1           0        8.988235    0.895111    0.081054
    109          1           0        8.600741   -0.784636    0.781984
    110          1           0       10.341041   -0.203942   -1.946132
    111          1           0        9.237456   -2.545089   -1.840843
    112          1           0       10.984612   -2.930884   -1.362420
    113          1           0       10.003071   -2.710375   -0.006487
    114          1           0       11.228125    0.824807    0.205698
    115          1           0       10.940161   -0.614165    1.068798
    116          1           0       12.865055   -1.686648   -0.854203
    117          1           0       12.799510   -0.008556   -1.505778
    118          1           0       13.830093    0.953341    0.710805
    119          1           0       14.165765   -0.787924    1.221224
    120          1           0       15.209221    0.341310   -1.281100
    121          1           0       15.069548   -2.140616   -1.524577
    122          1           0       16.850991   -1.600981   -0.824334
    123          1           0       15.760601   -2.275473    0.195361
    124          1           0       15.989494    1.533387    0.412886
    125          1           0       16.377557    0.140362    1.514174
    126          1           0       18.193842   -0.164460   -0.599725
    127          1           0       17.423843    1.451244   -1.264370
    128          1           0       18.118427    2.595346    0.814734
    129          1           0       18.721240    1.237370    1.652269
    130          1           0       20.356120    0.548199    0.125850
    131          1           0       19.577584    3.145850   -1.558866
    132          1           0       21.155395    2.044571   -1.735984
    133          1           0       19.473428    1.559603   -2.051753
    134          1           0       21.009909    1.925679    2.004387
    135          1           0       22.101122    2.176456    0.469804
    136          1           0       20.609344    3.458703    0.993514
    137          1           0       -7.190144    1.708142    0.421378
    138          1           0       -7.490501   -0.273429   -0.270090
 ---------------------------------------------------------------------

 SCF Done:  E(RB3LYP) =  -2732.99565640     A.U. after   16 cycles

 Excitation energies and oscillator strengths:

 Excited State   1:      Singlet-A      2.0318 eV  610.21 nm  f=0.2069  <S**2>=0.000
     235 -> 237       -0.11019
     235 -> 238        0.27752
     236 -> 237        0.63767
 This state for optimization and/or second-order correction.
 Total Energy, E(TD-HF/TD-KS) =  -2732.92098776
 Copying the excited state density for this state as the 1-particle RhoCI density.

 The electronic state is 1-A.
 Alpha  occ. eigenvalues --  -19.17257 -19.16688 -19.12131 -19.12033 -19.09699
 Alpha  occ. eigenvalues --  -14.37231 -14.36679 -14.32296 -14.30983 -10.30485
 Alpha  occ. eigenvalues --  -10.30361 -10.27808 -10.25750 -10.24363 -10.23750
 Alpha  occ. eigenvalues --  -10.23552 -10.23226 -10.22954 -10.22858 -10.22718
 Alpha  occ. eigenvalues --  -10.22705 -10.21811 -10.21792 -10.21777 -10.21170
 Alpha  occ. eigenvalues --  -10.21151 -10.21048 -10.21027 -10.21013 -10.20995
 Alpha  occ. eigenvalues --  -10.20888 -10.20872 -10.20616 -10.20464 -10.20462
 Alpha  occ. eigenvalues --  -10.20238 -10.20235 -10.20191 -10.20131 -10.20119
 Alpha  occ. eigenvalues --  -10.20035 -10.20012 -10.19737 -10.19674 -10.19590
 Alpha  occ. eigenvalues --  -10.19554 -10.19350 -10.19330 -10.19323 -10.19247
 Alpha  occ. eigenvalues --  -10.19180 -10.19091 -10.19090 -10.18827 -10.18421
 Alpha  occ. eigenvalues --  -10.18386 -10.18347 -10.18310 -10.18306 -10.18246
 Alpha  occ. eigenvalues --  -10.18149 -10.18059 -10.17403 -10.17142  -1.11516
 Alpha  occ. eigenvalues --   -1.10204  -1.02882  -1.01087  -0.99652  -0.98986
 Alpha  occ. eigenvalues --   -0.96646  -0.95887  -0.92162  -0.85776  -0.84900
 Alpha  occ. eigenvalues --   -0.82871  -0.82705  -0.81382  -0.80992  -0.80936
 Alpha  occ. eigenvalues --   -0.79866  -0.79737  -0.79709  -0.79419  -0.78829
 Alpha  occ. eigenvalues --   -0.77452  -0.76212  -0.75832  -0.75100  -0.74321
 Alpha  occ. eigenvalues --   -0.73775  -0.73650  -0.72684  -0.71271  -0.70529
 Alpha  occ. eigenvalues --   -0.70270  -0.69506  -0.69116  -0.68578  -0.68058
 Alpha  occ. eigenvalues --   -0.67498  -0.67067  -0.66421  -0.66115  -0.65498
 Alpha  occ. eigenvalues --   -0.63876  -0.63310  -0.62742  -0.62210  -0.61598
 Alpha  occ. eigenvalues --   -0.61538  -0.59150  -0.58749  -0.58420  -0.57355
 Alpha  occ. eigenvalues --   -0.56627  -0.56384  -0.55951  -0.55709  -0.55590
 Alpha  occ. eigenvalues --   -0.55188  -0.54845  -0.54294  -0.54199  -0.54070
 Alpha  occ. eigenvalues --   -0.53871  -0.53270  -0.52733  -0.52323  -0.51602
 Alpha  occ. eigenvalues --   -0.50490  -0.49364  -0.49304  -0.49085  -0.48984
 Alpha  occ. eigenvalues --   -0.48091  -0.47905  -0.47535  -0.47405  -0.47245
 Alpha  occ. eigenvalues --   -0.47014  -0.46746  -0.46533  -0.46105  -0.45696
 Alpha  occ. eigenvalues --   -0.45395  -0.45260  -0.44919  -0.44770  -0.44473
 Alpha  occ. eigenvalues --   -0.44412  -0.44230  -0.43940  -0.43896  -0.43834
 Alpha  occ. eigenvalues --   -0.43559  -0.43470  -0.43299  -0.42993  -0.42961
 Alpha  occ. eigenvalues --   -0.42682  -0.42527  -0.42262  -0.42024  -0.41724
 Alpha  occ. eigenvalues --   -0.41388  -0.41051  -0.40912  -0.40686  -0.40404
 Alpha  occ. eigenvalues --   -0.40137  -0.40062  -0.39671  -0.39439  -0.39348
 Alpha  occ. eigenvalues --   -0.39177  -0.38806  -0.38610  -0.38433  -0.38361
 Alpha  occ. eigenvalues --   -0.38254  -0.38084  -0.37744  -0.37599  -0.37316
 Alpha  occ. eigenvalues --   -0.37212  -0.37150  -0.36767  -0.36745  -0.36562
 Alpha  occ. eigenvalues --   -0.36523  -0.36242  -0.36086  -0.35945  -0.35714
 Alpha  occ. eigenvalues --   -0.35420  -0.35288  -0.35174  -0.35026  -0.34772
 Alpha  occ. eigenvalues --   -0.34526  -0.34439  -0.33995  -0.33639  -0.33587
 Alpha  occ. eigenvalues --   -0.33444  -0.33302  -0.33021  -0.32645  -0.32636
 Alpha  occ. eigenvalues --   -0.32518  -0.32280  -0.32090  -0.31567  -0.31417
 Alpha  occ. eigenvalues --   -0.31376  -0.31119  -0.31081  -0.29908  -0.29340
 Alpha  occ. eigenvalues --   -0.29299  -0.29135  -0.28300  -0.28194  -0.27970
 Alpha  occ. eigenvalues --   -0.27796  -0.26686  -0.26531  -0.26386  -0.25921
 Alpha  occ. eigenvalues --   -0.24899  -0.24679  -0.24228  -0.22909  -0.20015
 Alpha  occ. eigenvalues --   -0.18445
 Alpha virt. eigenvalues --   -0.10139  -0.07374  -0.04540  -0.02332  -0.02270
 Alpha virt. eigenvalues --   -0.00232   0.00787   0.01404   0.02685   0.02735
 Alpha virt. eigenvalues --    0.03384   0.03915   0.04376   0.04516   0.04648

 Mulliken charges:
               1
     1  C   -0.113205
     2  C   -0.056869
     3  C   -0.034588
     4  C   -0.066492
     5  N   -0.132357
     6  C   -0.100566
     7  C    0.073995
     8  C   -0.106041
     9  C   -0.097676
    10  C    0.012482
    11  C   -0.007717
    12  C    0.067580
    13  C    0.144633
    14  O   -0.313220
    15  O   -0.295360
    16  N   -0.058454
    17  C    0.210568
    18  C   -0.132359
    19  C   -0.014318
    20  C    0.032825
    21  C    0.072769
    22  C    0.060532
    23  C   -0.086437
    24  N   -0.275855
    25  C    0.072252
    26  C   -0.124815
    27  C   -0.076852
    28  C    0.096958
    29  C    0.156984
    30  C    0.050243
    31  C   -0.008193
    32  N    0.019153
    33  C    0.075706
    34  C   -0.189834
    35  C    0.015185
    36  C    0.091421
    37  C    0.100509
    38  C   -0.003703
    39  O   -0.191228
    40  C    0.074241
    41  C    0.215573
    42  O   -0.148562
    43  O   -0.273200
    44  C    0.089948
    45  C    0.445860
    46  C   -0.104929
    47  C   -0.084183
    48  C    0.126505
    49  C   -0.002953
    50  C   -0.001098
    51  C   -0.012978
    52  C   -0.091702
    53  C   -0.072157
    54  C    0.038867
    55  C    0.090505
    56  C   -0.026009
    57  C   -0.089457
    58  C    0.027528
    59  C    0.198779
    60  C   -0.143177
    61  C    0.116027
    62  C   -0.142805
    63  C    0.009115
    64  C    0.021605
    65  H   -0.077962
    66  H   -0.018793
    67  H   -0.031841
    68  H   -0.041726
    69  H    0.016357
    70  H    0.031577
    71  H    0.063711
    72  H    0.028715
    73  H    0.056989
    74  H    0.036561
    75  H    0.044328
    76  H   -0.011156
    77  H    0.036143
    78  H   -0.000074
    79  H    0.038699
    80  H   -0.055498
    81  H    0.062217
    82  H    0.055863
    83  H    0.004558
    84  H   -0.041227
    85  H    0.010907
    86  H    0.017773
    87  H    0.020102
    88  H    0.003622
    89  H    0.002371
    90  H    0.010170
    91  H    0.042097
    92  H    0.049248
    93  H    0.026497
    94  H    0.023364
    95  H    0.034405
    96  H    0.019814
    97  H    0.045044
    98  H    0.047392
    99  H   -0.051562
   100  H   -0.042631
   101  H   -0.031085
   102  H    0.007305
   103  H    0.026391
   104  H    0.026697
   105  H    0.002961
   106  H    0.013341
   107  H    0.010049
   108  H    0.004411
   109  H    0.014253
   110  H    0.011503
   111  H    0.033364
   112  H    0.021808
   113  H    0.012292
   114  H   -0.016558
   115  H    0.000804
   116  H    0.023707
   117  H   -0.014728
   118  H   -0.013495
   119  H   -0.007671
   120  H   -0.035867
   121  H    0.040175
   122  H   -0.009434
   123  H   -0.031495
   124  H   -0.057316
   125  H    0.007032
   126  H    0.027815
   127  H    0.022142
   128  H   -0.016524
   129  H   -0.045993
   130  H   -0.001574
   131  H    0.006286
   132  H    0.011478
   133  H    0.002661
   134  H    0.017444
   135  H    0.031970
   136  H    0.018757
   137  H    0.181038
   138  H    0.121000
 Sum of Mulliken charges =   0.00000

 Dipole moment (field-independent basis, Debye):
    X=              3.5142    Y=              6.2502    Z=              0.5875  Tot=              7.1944
 Quadrupole moment (field-independent basis, Debye-Ang):
   XX=           -356.3550   YY=           -391.4020   ZZ=           -395.7626
   XY=            -32.4655   XZ=              9.3458   YZ=             -1.8955

 Normal termination of Gaussian 09 at Mon Aug  5 08:34:34 2019.
