 Gaussian 09, Revision D.01,
 Gaussian 09:  ES64L-G09RevD.01 24-Apr-2013

 --------------------------
 # td=(NStates=1) B3LYP/SVP
 --------------------------

 --
 TD
 --
 Symbolic Z-matrix:
 Charge =  0 Multiplicity = 1

                         Standard orientation:
 ---------------------------------------------------------------------
 Center     Atomic      Atomic             Coordinates (Angstroms)
 Number     Number       Type             X           Y           Z
 ---------------------------------------------------------------------
      1          6           0       -5.086378   -1.944415    0.440905
      2          6           0       -4.680810    2.714125    1.387272
      3          6           0       -9.280615    3.419553   -0.198379
      4          6           0       -9.961170   -1.407998   -0.723205
      5          7           0       -5.096455    0.432554    0.873174
      6          6           0       -4.419988   -0.776342    0.753467
      7          6           0       -2.969639   -0.627335    1.161590
      8          6           0       -3.035891    0.814727    1.782212
      9          6           0       -4.302437    1.442072    1.220770
     10          6           0       -2.951085    0.805306    3.244091
     11          6           0       -2.061144   -0.842178    0.001944
     12          6           0       -0.532359   -0.813535    0.403330
     13          6           0        0.323680   -1.162663   -0.773188
     14          8           0        0.111725   -1.617940   -1.855615
     15          8           0        1.599526   -0.660018   -0.418869
     16          7           0       -6.979775    2.793041    0.418184
     17          6           0       -5.886525    3.300274    0.960881
     18          6           0       -6.135420    4.794896    0.991731
     19          6           0       -7.442132    4.985971    0.520042
     20          6           0       -7.995061    3.702153    0.253718
     21          6           0       -5.103450    5.769057    1.587038
     22          6           0       -8.132935    6.244011    0.402130
     23          6           0       -8.928396    6.550318   -0.549273
     24          7           0       -9.234090    0.858227   -0.322345
     25          6           0       -9.821354    2.096042   -0.408184
     26          6           0      -11.245633    1.935150   -0.820207
     27          6           0      -11.486333    0.609207   -1.006596
     28          6           0      -10.124714   -0.035871   -0.759697
     29          6           0      -12.227613    3.053713   -1.038532
     30          6           0      -12.570500   -0.143023   -1.543682
     31          6           0      -12.611094   -0.337298   -3.085358
     32          7           0       -7.568498   -1.236903   -0.065723
     33          6           0       -8.731228   -2.017457   -0.576426
     34          6           0       -8.246805   -3.411529   -0.553583
     35          6           0       -6.846337   -3.342733   -0.215507
     36          6           0       -6.504119   -2.096634    0.161753
     37          6           0       -9.141073   -4.590770   -0.948486
     38          6           0       -5.742378   -4.294932   -0.083868
     39          8           0       -5.712129   -5.477196   -0.205848
     40          6           0       -4.562937   -3.327126    0.454176
     41          6           0       -4.046051   -3.829219    1.790051
     42          8           0       -4.315326   -3.456904    2.879642
     43          8           0       -3.013396   -4.758646    1.478696
     44          6           0       -2.545559   -5.340692    2.766319
     45          6           0        2.588789   -0.989879   -1.396317
     46          6           0        3.926953   -0.562289   -0.801478
     47          6           0        5.036591    0.078395   -1.287911
     48          6           0        4.920422    0.923649   -2.559962
     49          6           0        6.255441    0.208397   -0.523798
     50          6           0        7.592452   -0.394339   -1.071271
     51          6           0        8.782597   -0.206961   -0.152136
     52          6           0       10.043388   -0.809455   -0.773265
     53          6           0        9.935601   -2.321805   -0.885447
     54          6           0       11.322193   -0.388712    0.115463
     55          6           0       12.645381   -0.736490   -0.552932
     56          6           0       13.767837   -0.054983    0.257948
     57          6           0       15.224705   -0.222458   -0.343617
     58          6           0       15.631163   -1.706124   -0.172169
     59          6           0       16.169548    0.639842    0.410312
     60          6           0       17.674318    0.706749   -0.125979
     61          6           0       18.562014    1.694414    0.702958
     62          6           0       20.069302    1.708348    0.229282
     63          6           0       20.251711    2.172656   -1.147946
     64          6           0       20.874146    2.514736    1.188279
     65          1           0       -3.751657    3.492358    1.636689
     66          1           0       -9.882924    4.181690   -0.520394
     67          1           0      -10.974721   -1.958128   -0.982498
     68          1           0       -2.768546   -1.430243    1.783112
     69          1           0       -2.120416    1.289984    1.253680
     70          1           0       -2.029010    0.154822    3.506371
     71          1           0       -2.882264    1.671153    3.660460
     72          1           0       -3.663409    0.074986    3.577158
     73          1           0       -2.173738   -1.936358   -0.657937
     74          1           0       -2.168124   -0.078994   -0.702847
     75          1           0       -0.199587    0.163079    0.825977
     76          1           0       -0.266646   -1.682331    1.060869
     77          1           0       -4.372135    6.003424    0.781917
     78          1           0       -5.736150    6.707987    1.765335
     79          1           0       -4.759473    5.501627    2.555462
     80          1           0       -7.783398    7.074934    1.092580
     81          1           0       -9.134313    5.891656   -1.293235
     82          1           0       -9.618609    7.467818   -0.445932
     83          1           0      -12.430504    3.574443   -0.205069
     84          1           0      -11.838419    3.514926   -1.844345
     85          1           0      -13.170617    2.609721   -1.362216
     86          1           0      -12.822311   -1.129852   -1.220099
     87          1           0      -13.427818    0.543537   -1.416888
     88          1           0      -12.527220    0.672813   -3.624990
     89          1           0      -11.595647   -0.828074   -3.266956
     90          1           0      -13.401184   -1.002620   -3.489265
     91          1           0      -10.057684   -4.896040   -0.205201
     92          1           0       -9.497404   -4.536748   -1.872165
     93          1           0       -8.571011   -5.543654   -1.015935
     94          1           0       -3.850939   -3.173597   -0.374360
     95          1           0       -1.691590   -5.823232    2.473749
     96          1           0       -2.174767   -4.592351    3.407382
     97          1           0       -3.308217   -6.307650    3.074032
     98          1           0        2.606427   -2.129191   -1.601659
     99          1           0        2.183315   -0.563886   -2.468846
    100          1           0        3.947949   -1.192927    0.144309
    101          1           0        4.798900    1.919165   -2.177793
    102          1           0        5.800031    0.779375   -3.031892
    103          1           0        3.917020    0.502136   -3.017166
    104          1           0        6.505174    1.253819   -0.066901
    105          1           0        6.098568   -0.419306    0.254042
    106          1           0        7.313418   -1.345648   -1.317851
    107          1           0        7.698752    0.074000   -2.160539
    108          1           0        8.914736    0.884991   -0.102191
    109          1           0        8.369976   -0.473915    0.746976
    110          1           0       10.204569   -0.347097   -1.758495
    111          1           0        9.256742   -2.687208   -1.765052
    112          1           0       10.882186   -2.713855   -1.350524
    113          1           0        9.499122   -2.643708    0.012596
    114          1           0       11.212149    0.742302    0.411367
    115          1           0       11.281660   -0.922857    1.041866
    116          1           0       12.671867   -1.747723   -0.787922
    117          1           0       12.718079   -0.173638   -1.516061
    118          1           0       13.515159    0.861194    0.256236
    119          1           0       13.514795   -0.490187    1.253984
    120          1           0       15.148694    0.112429   -1.378160
    121          1           0       14.880014   -2.574464   -0.432912
    122          1           0       16.521934   -1.869563   -0.754861
    123          1           0       15.805221   -1.900156    0.837991
    124          1           0       15.846392    1.712588    0.288404
    125          1           0       16.062193    0.498532    1.466619
    126          1           0       18.136821   -0.447054   -0.043170
    127          1           0       17.569819    0.916895   -1.251324
    128          1           0       18.235297    2.832974    0.394259
    129          1           0       18.688858    1.384285    1.858011
    130          1           0       20.496096    0.695759    0.304958
    131          1           0       19.653370    3.236309   -1.298160
    132          1           0       21.302425    2.270551   -1.385191
    133          1           0       19.724748    1.589294   -2.062189
    134          1           0       20.832320    2.004179    2.271582
    135          1           0       22.012993    2.411794    0.691800
    136          1           0       20.838994    3.499960    1.262611
    137          1           0       -7.067008    1.836450    0.320369
    138          1           0       -7.595212   -0.101592   -0.046199
 ---------------------------------------------------------------------

 SCF Done:  E(RB3LYP) =  -2733.06258813     A.U. after   16 cycles

 Excitation energies and oscillator strengths:

 Excited State   1:      Singlet-A      2.1001 eV  590.38 nm  f=0.1538  <S**2>=0.000
     235 -> 237        0.20167
     235 -> 238        0.30608
     236 -> 237        0.59015
     236 -> 238       -0.12284
 This state for optimization and/or second-order correction.
 Total Energy, E(TD-HF/TD-KS) =  -2732.98541130
 Copying the excited state density for this state as the 1-particle RhoCI density.

 The electronic state is 1-A.
 Alpha  occ. eigenvalues --  -19.16804 -19.16647 -19.14031 -19.13784 -19.12713
 Alpha  occ. eigenvalues --  -14.37651 -14.36040 -14.31537 -14.30733 -10.31722
 Alpha  occ. eigenvalues --  -10.31668 -10.27882 -10.25449 -10.24556 -10.24073
 Alpha  occ. eigenvalues --  -10.24062 -10.23695 -10.22814 -10.22631 -10.22397
 Alpha  occ. eigenvalues --  -10.22205 -10.22080 -10.21304 -10.21263 -10.21088
 Alpha  occ. eigenvalues --  -10.20912 -10.20832 -10.20798 -10.20699 -10.20590
 Alpha  occ. eigenvalues --  -10.20492 -10.20465 -10.20413 -10.20409 -10.20261
 Alpha  occ. eigenvalues --  -10.20164 -10.20049 -10.19624 -10.19454 -10.19441
 Alpha  occ. eigenvalues --  -10.19318 -10.19239 -10.19062 -10.18998 -10.18919
 Alpha  occ. eigenvalues --  -10.18791 -10.18773 -10.18694 -10.18678 -10.18622
 Alpha  occ. eigenvalues --  -10.18387 -10.18299 -10.18286 -10.18229 -10.18048
 Alpha  occ. eigenvalues --  -10.17853 -10.17747 -10.17746 -10.17704 -10.17596
 Alpha  occ. eigenvalues --  -10.17504 -10.17284 -10.17038 -10.16417  -1.08964
 Alpha  occ. eigenvalues --   -1.08352  -1.04184  -1.01099  -1.00275  -1.00184
 Alpha  occ. eigenvalues --   -0.95019  -0.94187  -0.93378  -0.84918  -0.83444
 Alpha  occ. eigenvalues --   -0.82703  -0.81985  -0.81692  -0.80997  -0.80931
 Alpha  occ. eigenvalues --   -0.80619  -0.80073  -0.79593  -0.78575  -0.78016
 Alpha  occ. eigenvalues --   -0.77331  -0.76798  -0.76136  -0.75907  -0.74521
 Alpha  occ. eigenvalues --   -0.73696  -0.72742  -0.72203  -0.71718  -0.71345
 Alpha  occ. eigenvalues --   -0.70283  -0.69412  -0.68663  -0.68381  -0.67797
 Alpha  occ. eigenvalues --   -0.66971  -0.66848  -0.66142  -0.65937  -0.64651
 Alpha  occ. eigenvalues --   -0.64209  -0.63228  -0.62263  -0.61653  -0.61343
 Alpha  occ. eigenvalues --   -0.60385  -0.58921  -0.58615  -0.58324  -0.57631
 Alpha  occ. eigenvalues --   -0.57481  -0.56463  -0.56353  -0.55518  -0.55317
 Alpha  occ. eigenvalues --   -0.54763  -0.54399  -0.54172  -0.53650  -0.52715
 Alpha  occ. eigenvalues --   -0.52419  -0.51867  -0.51583  -0.50892  -0.50392
 Alpha  occ. eigenvalues --   -0.49748  -0.49537  -0.49008  -0.48310  -0.48204
 Alpha  occ. eigenvalues --   -0.47978  -0.47710  -0.47682  -0.47429  -0.46964
 Alpha  occ. eigenvalues --   -0.46853  -0.46834  -0.46740  -0.46499  -0.46293
 Alpha  occ. eigenvalues --   -0.46139  -0.45977  -0.45191  -0.44954  -0.44900
 Alpha  occ. eigenvalues --   -0.44644  -0.44490  -0.44356  -0.44092  -0.43978
 Alpha  occ. eigenvalues --   -0.43701  -0.43441  -0.43374  -0.43227  -0.43182
 Alpha  occ. eigenvalues --   -0.42957  -0.42384  -0.42260  -0.42241  -0.42081
 Alpha  occ. eigenvalues --   -0.42034  -0.41577  -0.41334  -0.41057  -0.40601
 Alpha  occ. eigenvalues --   -0.40401  -0.40090  -0.39945  -0.39879  -0.39615
 Alpha  occ. eigenvalues --   -0.39556  -0.39295  -0.38982  -0.38682  -0.38641
 Alpha  occ. eigenvalues --   -0.38426  -0.38037  -0.37959  -0.37878  -0.37520
 Alpha  occ. eigenvalues --   -0.37370  -0.37357  -0.36815  -0.36641  -0.36586
 Alpha  occ. eigenvalues --   -0.36109  -0.36014  -0.35844  -0.35616  -0.35569
 Alpha  occ. eigenvalues --   -0.35437  -0.35365  -0.35316  -0.35092  -0.35043
 Alpha  occ. eigenvalues --   -0.34865  -0.34729  -0.34599  -0.34197  -0.33867
 Alpha  occ. eigenvalues --   -0.33800  -0.33396  -0.32751  -0.32676  -0.32524
 Alpha  occ. eigenvalues --   -0.32274  -0.32259  -0.31940  -0.31384  -0.31372
 Alpha  occ. eigenvalues --   -0.31322  -0.31253  -0.30678  -0.30376  -0.30256
 Alpha  occ. eigenvalues --   -0.29785  -0.29432  -0.29215  -0.28812  -0.28127
 Alpha  occ. eigenvalues --   -0.27562  -0.26902  -0.26526  -0.25462  -0.25353
 Alpha  occ. eigenvalues --   -0.24811  -0.24687  -0.23842  -0.23276  -0.19853
 Alpha  occ. eigenvalues --   -0.19501
 Alpha virt. eigenvalues --   -0.10657  -0.07648  -0.03975  -0.01622  -0.00518
 Alpha virt. eigenvalues --   -0.00355  -0.00014   0.00775   0.01962   0.03445
 Alpha virt. eigenvalues --    0.03579   0.04021   0.04387   0.04620   0.05105

 Mulliken charges:
               1
     1  C   -0.044648
     2  C   -0.107442
     3  C   -0.074912
     4  C   -0.078107
     5  N   -0.191677
     6  C   -0.091498
     7  C    0.038738
     8  C   -0.044936
     9  C   -0.002944
    10  C    0.216244
    11  C   -0.029586
    12  C    0.041593
    13  C    0.167140
    14  O   -0.194880
    15  O   -0.353980
    16  N    0.040979
    17  C    0.064411
    18  C   -0.189544
    19  C    0.043190
    20  C    0.126572
    21  C    0.119122
    22  C   -0.066786
    23  C    0.000604
    24  N   -0.232265
    25  C    0.068627
    26  C   -0.229430
    27  C   -0.036857
    28  C    0.005891
    29  C    0.258591
    30  C    0.046274
    31  C   -0.029008
    32  N   -0.209389
    33  C    0.126899
    34  C   -0.103576
    35  C   -0.054087
    36  C    0.154012
    37  C    0.091998
    38  C    0.068254
    39  O   -0.125787
    40  C   -0.021646
    41  C    0.254231
    42  O   -0.181184
    43  O   -0.372439
    44  C    0.197006
    45  C    0.147020
    46  C   -0.061619
    47  C   -0.188196
    48  C    0.152355
    49  C    0.110779
    50  C   -0.035450
    51  C    0.122854
    52  C   -0.057679
    53  C    0.038364
    54  C   -0.007034
    55  C    0.058831
    56  C    0.097464
    57  C   -0.011871
    58  C    0.044044
    59  C    0.037623
    60  C   -0.033198
    61  C   -0.014779
    62  C   -0.050775
    63  C   -0.033516
    64  C    0.023871
    65  H    0.030093
    66  H   -0.073443
    67  H    0.023070
    68  H   -0.040788
    69  H   -0.018665
    70  H   -0.002949
    71  H   -0.031090
    72  H    0.009330
    73  H    0.067885
    74  H   -0.012052
    75  H    0.056218
    76  H    0.037411
    77  H    0.045288
    78  H    0.008973
    79  H    0.033025
    80  H    0.011039
    81  H   -0.000711
    82  H    0.034688
    83  H   -0.002751
    84  H   -0.005291
    85  H   -0.017161
    86  H    0.003672
    87  H   -0.006603
    88  H    0.015290
    89  H    0.006908
    90  H    0.028336
    91  H    0.045110
    92  H   -0.008921
    93  H    0.022379
    94  H    0.051668
    95  H   -0.009584
    96  H    0.025986
    97  H    0.066866
    98  H    0.035490
    99  H    0.040189
   100  H   -0.000748
   101  H    0.017450
   102  H   -0.016660
   103  H    0.025955
   104  H    0.012156
   105  H   -0.054247
   106  H   -0.032305
   107  H   -0.007966
   108  H   -0.015713
   109  H   -0.033499
   110  H   -0.014309
   111  H    0.010835
   112  H    0.014139
   113  H    0.006850
   114  H    0.002195
   115  H   -0.020913
   116  H   -0.017255
   117  H   -0.026527
   118  H   -0.079064
   119  H   -0.014487
   120  H   -0.021532
   121  H    0.012085
   122  H    0.006408
   123  H   -0.014468
   124  H   -0.017322
   125  H   -0.016867
   126  H    0.014602
   127  H    0.015554
   128  H    0.020168
   129  H    0.025425
   130  H   -0.005389
   131  H    0.006557
   132  H    0.010325
   133  H    0.026869
   134  H    0.025173
   135  H   -0.000155
   136  H   -0.022953
   137  H    0.094397
   138  H    0.213479
 Sum of Mulliken charges =   0.00000

 Dipole moment (field-independent basis, Debye):
    X=              0.8025    Y=              4.7911    Z=              0.7427  Tot=              4.9143
 Quadrupole moment (field-independent basis, Debye-Ang):
   XX=           -344.2411   YY=           -382.3728   ZZ=           -396.8771
   XY=            -28.9355   XZ=             14.0345   YZ=             -1.6465

 Normal termination of Gaussian 09 at Sat Aug  3 04:29:38 2019.
