 Gaussian 09, Revision D.01,
 Gaussian 09:  ES64L-G09RevD.01 24-Apr-2013

 --------------------------
 # td=(NStates=1) B3LYP/SVP
 --------------------------

 --
 TD
 --
 Symbolic Z-matrix:
 Charge =  0 Multiplicity = 1

                         Standard orientation:
 ---------------------------------------------------------------------
 Center     Atomic      Atomic             Coordinates (Angstroms)
 Number     Number       Type             X           Y           Z
 ---------------------------------------------------------------------
      1          6           0       -5.163745   -1.982443    0.459656
      2          6           0       -4.739062    2.637529    1.647767
      3          6           0       -9.192510    3.479699   -0.379512
      4          6           0       -9.817245   -1.248665   -1.129345
      5          7           0       -5.156386    0.382816    0.822714
      6          6           0       -4.559419   -0.773433    0.854832
      7          6           0       -3.080554   -0.673605    1.280617
      8          6           0       -3.191954    0.731964    1.993633
      9          6           0       -4.343133    1.319043    1.456319
     10          6           0       -3.101490    0.704704    3.456847
     11          6           0       -2.134284   -0.854044    0.195809
     12          6           0       -0.701860   -0.797243    0.784484
     13          6           0        0.375863   -1.114738   -0.364724
     14          8           0        0.068164   -1.668027   -1.353142
     15          8           0        1.645263   -0.802092   -0.114742
     16          7           0       -6.961380    2.856561    0.433428
     17          6           0       -5.904202    3.299533    1.152900
     18          6           0       -6.159414    4.719087    1.373914
     19          6           0       -7.447604    4.943933    0.729244
     20          6           0       -7.887831    3.731314    0.202156
     21          6           0       -5.198649    5.776098    1.978157
     22          6           0       -8.163226    6.268781    0.731528
     23          6           0       -8.933917    6.850078   -0.183472
     24          7           0       -9.087011    1.037950   -0.773145
     25          6           0       -9.788020    2.256227   -0.755089
     26          6           0      -11.203827    2.058271   -1.238194
     27          6           0      -11.341138    0.713629   -1.323510
     28          6           0      -10.018576    0.147648   -0.973948
     29          6           0      -12.061693    3.104304   -1.457445
     30          6           0      -12.557340    0.006197   -2.031359
     31          6           0      -12.621809   -0.068455   -3.538556
     32          7           0       -7.542447   -1.178477   -0.360215
     33          6           0       -8.577807   -1.908252   -0.821196
     34          6           0       -8.222824   -3.262985   -0.887326
     35          6           0       -6.867436   -3.365767   -0.379391
     36          6           0       -6.527149   -2.065473    0.048273
     37          6           0       -8.997322   -4.378607   -1.259814
     38          6           0       -5.787675   -4.337503    0.048401
     39          8           0       -5.759217   -5.578995    0.059716
     40          6           0       -4.565187   -3.403732    0.419948
     41          6           0       -4.006359   -3.891478    1.718167
     42          8           0       -4.157429   -3.476728    2.855780
     43          8           0       -3.261717   -5.096370    1.445730
     44          6           0       -2.691847   -5.750887    2.560361
     45          6           0        2.612078   -1.042496   -1.058978
     46          6           0        3.995274   -0.607740   -0.463453
     47          6           0        4.995957   -0.061038   -1.070445
     48          6           0        5.137254    0.343446   -2.601704
     49          6           0        6.264110    0.051367   -0.283297
     50          6           0        7.543097   -0.584715   -0.820442
     51          6           0        8.671911   -0.527574    0.094583
     52          6           0       10.047124   -0.978763   -0.550164
     53          6           0       10.075449   -2.478664   -0.714430
     54          6           0       11.207005   -0.585227    0.316742
     55          6           0       12.637261   -0.825545   -0.298501
     56          6           0       13.833101    0.017534    0.420471
     57          6           0       15.198209   -0.141795   -0.164573
     58          6           0       15.769000   -1.679595   -0.245114
     59          6           0       16.260861    0.917419    0.344446
     60          6           0       17.560289    0.880091   -0.317662
     61          6           0       18.638195    1.863472    0.296649
     62          6           0       19.966689    1.950228   -0.272776
     63          6           0       19.927727    2.539717   -1.786391
     64          6           0       21.004734    2.740919    0.567728
     65          1           0       -4.050070    3.110447    2.211027
     66          1           0       -9.761280    4.440792   -0.426490
     67          1           0      -10.492816   -1.947739   -1.443220
     68          1           0       -2.834069   -1.575864    2.159800
     69          1           0       -2.217505    1.417064    1.827523
     70          1           0       -2.230633    0.083272    3.932823
     71          1           0       -3.314024    1.696944    3.900978
     72          1           0       -3.995707    0.094798    3.694625
     73          1           0       -2.144951   -1.808116   -0.632761
     74          1           0       -2.264482   -0.191515   -0.606263
     75          1           0       -0.360545    0.029341    1.346506
     76          1           0       -0.594441   -1.592081    1.471066
     77          1           0       -4.323658    5.935188    1.336552
     78          1           0       -5.783015    6.853334    1.994289
     79          1           0       -4.913440    5.424131    3.052131
     80          1           0       -7.929773    6.648348    1.726399
     81          1           0       -8.955806    6.330902   -1.194667
     82          1           0       -9.408175    7.893603    0.186399
     83          1           0      -12.106747    3.720082   -0.498663
     84          1           0      -11.634076    3.664232   -2.265700
     85          1           0      -13.155027    2.637871   -1.530735
     86          1           0      -12.634138   -0.971650   -1.626773
     87          1           0      -13.422788    0.634150   -1.639178
     88          1           0      -13.040232    0.920675   -4.078754
     89          1           0      -11.519787   -0.371165   -3.887762
     90          1           0      -13.320223   -1.006341   -3.918998
     91          1           0      -10.115817   -4.275381   -0.859255
     92          1           0       -8.959033   -4.475371   -2.438306
     93          1           0       -8.727888   -5.432836   -0.933634
     94          1           0       -3.747191   -3.581490   -0.375615
     95          1           0       -2.151827   -6.716708    2.230806
     96          1           0       -2.061527   -5.163445    3.236514
     97          1           0       -3.378821   -6.313763    2.946991
     98          1           0        2.595307   -1.960268   -1.467844
     99          1           0        2.356349   -0.341724   -1.893425
    100          1           0        3.971795   -1.037586    0.438870
    101          1           0        5.463298    1.346618   -2.715089
    102          1           0        5.533205   -0.207899   -3.486887
    103          1           0        4.128318    0.658245   -2.919417
    104          1           0        6.385935    1.179879   -0.208639
    105          1           0        5.994996   -0.198573    0.719972
    106          1           0        7.162213   -1.686828   -1.034750
    107          1           0        7.946466   -0.126115   -1.787926
    108          1           0        8.729452    0.581022    0.472814
    109          1           0        8.399917   -1.072059    1.019476
    110          1           0       10.121041   -0.591620   -1.525592
    111          1           0        9.248658   -2.793216   -1.401081
    112          1           0       10.976537   -2.862935   -1.326366
    113          1           0       10.112309   -2.963709    0.159814
    114          1           0       10.894032    0.492744    0.578146
    115          1           0       11.291105   -1.230829    1.266748
    116          1           0       12.989139   -1.944942   -0.561267
    117          1           0       12.701749   -0.268924   -1.259812
    118          1           0       13.384295    1.037246    0.522240
    119          1           0       14.063345   -0.240379    1.582341
    120          1           0       15.060344    0.125671   -1.257207
    121          1           0       14.853254   -2.444065   -0.558358
    122          1           0       16.658108   -1.794371   -0.831547
    123          1           0       15.922714   -2.104344    0.788764
    124          1           0       15.809183    1.860381    0.136668
    125          1           0       16.372176    0.491989    1.473243
    126          1           0       18.041025   -0.017409   -0.322780
    127          1           0       17.221100    1.104626   -1.379127
    128          1           0       18.222551    2.979501    0.398704
    129          1           0       18.802888    1.546903    1.496786
    130          1           0       20.296858    0.956665   -0.526357
    131          1           0       20.120431    3.725665   -1.733725
    132          1           0       20.930600    2.338827   -2.278897
    133          1           0       19.194358    2.128447   -2.421704
    134          1           0       21.302943    2.154302    1.525558
    135          1           0       22.169174    3.030623    0.260995
    136          1           0       20.474100    3.706770    0.852439
    137          1           0       -7.036168    1.884436    0.128697
    138          1           0       -7.356016   -0.239339   -0.405270
 ---------------------------------------------------------------------

 SCF Done:  E(RB3LYP) =  -2733.05571835     A.U. after   17 cycles

 Excitation energies and oscillator strengths:

 Excited State   1:      Singlet-A      2.0090 eV  617.16 nm  f=0.1975  <S**2>=0.000
     235 -> 237       -0.13960
     235 -> 238       -0.27217
     236 -> 237        0.63178
 This state for optimization and/or second-order correction.
 Total Energy, E(TD-HF/TD-KS) =  -2732.98189032
 Copying the excited state density for this state as the 1-particle RhoCI density.

 The electronic state is 1-A.
 Alpha  occ. eigenvalues --  -19.17703 -19.16211 -19.13485 -19.13071 -19.12289
 Alpha  occ. eigenvalues --  -14.37350 -14.36559 -14.32354 -14.30454 -10.32200
 Alpha  occ. eigenvalues --  -10.31396 -10.29312 -10.24047 -10.23721 -10.23624
 Alpha  occ. eigenvalues --  -10.23574 -10.23084 -10.22900 -10.22829 -10.22513
 Alpha  occ. eigenvalues --  -10.22259 -10.22088 -10.22025 -10.21744 -10.21514
 Alpha  occ. eigenvalues --  -10.21411 -10.21277 -10.20940 -10.20923 -10.20919
 Alpha  occ. eigenvalues --  -10.20742 -10.20699 -10.20452 -10.20327 -10.20258
 Alpha  occ. eigenvalues --  -10.20218 -10.20200 -10.20175 -10.20128 -10.20121
 Alpha  occ. eigenvalues --  -10.19882 -10.19862 -10.19818 -10.19747 -10.19690
 Alpha  occ. eigenvalues --  -10.19681 -10.19609 -10.19429 -10.19402 -10.19386
 Alpha  occ. eigenvalues --  -10.19380 -10.19321 -10.19308 -10.19300 -10.18868
 Alpha  occ. eigenvalues --  -10.18844 -10.18538 -10.18509 -10.18487 -10.18332
 Alpha  occ. eigenvalues --  -10.18257 -10.18186 -10.17902 -10.17045  -1.11778
 Alpha  occ. eigenvalues --   -1.06920  -1.02573  -1.01644  -1.00554  -0.99762
 Alpha  occ. eigenvalues --   -0.98719  -0.95887  -0.94170  -0.85007  -0.83085
 Alpha  occ. eigenvalues --   -0.82046  -0.81740  -0.81474  -0.81303  -0.81103
 Alpha  occ. eigenvalues --   -0.80821  -0.80631  -0.79414  -0.79241  -0.77923
 Alpha  occ. eigenvalues --   -0.77192  -0.76081  -0.75654  -0.75008  -0.74706
 Alpha  occ. eigenvalues --   -0.73950  -0.73358  -0.72505  -0.70789  -0.70669
 Alpha  occ. eigenvalues --   -0.70216  -0.69381  -0.69241  -0.68903  -0.68303
 Alpha  occ. eigenvalues --   -0.66896  -0.66622  -0.66326  -0.66196  -0.65779
 Alpha  occ. eigenvalues --   -0.64190  -0.62782  -0.62287  -0.62047  -0.61597
 Alpha  occ. eigenvalues --   -0.60213  -0.58942  -0.58814  -0.58217  -0.57814
 Alpha  occ. eigenvalues --   -0.56875  -0.56749  -0.56739  -0.56081  -0.55758
 Alpha  occ. eigenvalues --   -0.54805  -0.54665  -0.54627  -0.53591  -0.53325
 Alpha  occ. eigenvalues --   -0.53002  -0.52347  -0.51632  -0.51339  -0.50471
 Alpha  occ. eigenvalues --   -0.50264  -0.49813  -0.49072  -0.48619  -0.48580
 Alpha  occ. eigenvalues --   -0.48049  -0.47914  -0.47531  -0.47160  -0.46694
 Alpha  occ. eigenvalues --   -0.46530  -0.46192  -0.45995  -0.45905  -0.45841
 Alpha  occ. eigenvalues --   -0.45808  -0.45376  -0.45117  -0.45018  -0.44940
 Alpha  occ. eigenvalues --   -0.44773  -0.44571  -0.44489  -0.44318  -0.44016
 Alpha  occ. eigenvalues --   -0.43675  -0.43554  -0.43515  -0.43145  -0.42668
 Alpha  occ. eigenvalues --   -0.42467  -0.42158  -0.41946  -0.41791  -0.41754
 Alpha  occ. eigenvalues --   -0.41378  -0.41286  -0.41081  -0.40960  -0.40690
 Alpha  occ. eigenvalues --   -0.40574  -0.40370  -0.39940  -0.39804  -0.39503
 Alpha  occ. eigenvalues --   -0.39413  -0.39199  -0.39098  -0.38904  -0.38667
 Alpha  occ. eigenvalues --   -0.38472  -0.38242  -0.38150  -0.37918  -0.37605
 Alpha  occ. eigenvalues --   -0.37389  -0.37075  -0.37041  -0.36869  -0.36772
 Alpha  occ. eigenvalues --   -0.36441  -0.36338  -0.36015  -0.35820  -0.35642
 Alpha  occ. eigenvalues --   -0.35450  -0.35301  -0.34832  -0.34518  -0.34232
 Alpha  occ. eigenvalues --   -0.34141  -0.34087  -0.34011  -0.34002  -0.33760
 Alpha  occ. eigenvalues --   -0.33684  -0.32821  -0.32534  -0.32468  -0.31743
 Alpha  occ. eigenvalues --   -0.31588  -0.31517  -0.31383  -0.31217  -0.31114
 Alpha  occ. eigenvalues --   -0.30683  -0.30447  -0.30111  -0.30060  -0.29370
 Alpha  occ. eigenvalues --   -0.29297  -0.29012  -0.28578  -0.28555  -0.28204
 Alpha  occ. eigenvalues --   -0.27900  -0.27395  -0.27247  -0.26526  -0.25821
 Alpha  occ. eigenvalues --   -0.25715  -0.25387  -0.23797  -0.23141  -0.19651
 Alpha  occ. eigenvalues --   -0.19355
 Alpha virt. eigenvalues --   -0.11074  -0.07171  -0.04892  -0.02164  -0.01009
 Alpha virt. eigenvalues --    0.00047   0.00732   0.01194   0.02310   0.03745
 Alpha virt. eigenvalues --    0.03833   0.04173   0.04304   0.04653   0.04853

 Mulliken charges:
               1
     1  C   -0.000611
     2  C   -0.022328
     3  C   -0.081607
     4  C   -0.051332
     5  N   -0.152032
     6  C   -0.060325
     7  C   -0.107882
     8  C   -0.023994
     9  C   -0.012521
    10  C    0.047952
    11  C    0.031873
    12  C    0.098191
    13  C    0.121583
    14  O   -0.208389
    15  O   -0.281847
    16  N    0.056186
    17  C    0.122155
    18  C   -0.154118
    19  C   -0.043890
    20  C   -0.010290
    21  C    0.032158
    22  C   -0.040894
    23  C   -0.041798
    24  N   -0.215117
    25  C    0.071755
    26  C   -0.101612
    27  C   -0.148927
    28  C    0.122419
    29  C    0.090628
    30  C    0.095648
    31  C   -0.074453
    32  N   -0.011540
    33  C    0.046888
    34  C   -0.082646
    35  C   -0.036730
    36  C    0.072140
    37  C   -0.018550
    38  C    0.107623
    39  O   -0.181122
    40  C   -0.020406
    41  C    0.220340
    42  O   -0.216309
    43  O   -0.357773
    44  C    0.253529
    45  C    0.307435
    46  C   -0.087318
    47  C   -0.089553
    48  C    0.083242
    49  C    0.092737
    50  C    0.002359
    51  C    0.015008
    52  C   -0.028262
    53  C    0.055370
    54  C    0.030202
    55  C   -0.027003
    56  C   -0.002637
    57  C   -0.088575
    58  C   -0.026466
    59  C    0.048570
    60  C    0.073094
    61  C   -0.042213
    62  C   -0.023601
    63  C   -0.017119
    64  C   -0.050224
    65  H   -0.088229
    66  H   -0.021942
    67  H   -0.079662
    68  H    0.054970
    69  H    0.009077
    70  H    0.036680
    71  H    0.015434
    72  H    0.007171
    73  H    0.059040
    74  H   -0.017670
    75  H    0.003142
    76  H    0.003918
    77  H    0.043438
    78  H    0.037834
    79  H    0.049613
    80  H    0.009412
    81  H    0.046120
    82  H    0.056005
    83  H    0.036418
    84  H    0.029523
    85  H    0.023758
    86  H   -0.008477
    87  H    0.006209
    88  H    0.041544
    89  H    0.036207
    90  H    0.031927
    91  H    0.042377
    92  H    0.049854
    93  H    0.049923
    94  H    0.089951
    95  H    0.008609
    96  H    0.033191
    97  H   -0.032622
    98  H   -0.004991
    99  H   -0.006169
   100  H   -0.048607
   101  H   -0.015584
   102  H    0.049849
   103  H   -0.019904
   104  H   -0.005021
   105  H   -0.025956
   106  H    0.017170
   107  H    0.005859
   108  H   -0.002966
   109  H   -0.009618
   110  H   -0.029883
   111  H    0.000647
   112  H    0.007252
   113  H   -0.025352
   114  H    0.005586
   115  H    0.011314
   116  H    0.040408
   117  H   -0.005733
   118  H    0.001974
   119  H   -0.007948
   120  H   -0.020743
   121  H    0.017952
   122  H    0.028856
   123  H    0.009159
   124  H   -0.006796
   125  H    0.007389
   126  H   -0.029242
   127  H   -0.000693
   128  H    0.001316
   129  H    0.008131
   130  H   -0.015776
   131  H    0.011971
   132  H    0.000139
   133  H    0.013128
   134  H    0.019790
   135  H    0.033907
   136  H    0.025121
   137  H    0.137531
   138  H    0.106719
 Sum of Mulliken charges =   0.00000

 Dipole moment (field-independent basis, Debye):
    X=              1.6170    Y=              3.7150    Z=             -0.4822  Tot=              4.0803
 Quadrupole moment (field-independent basis, Debye-Ang):
   XX=           -361.1888   YY=           -391.6189   ZZ=           -394.2629
   XY=            -26.8461   XZ=              5.8458   YZ=              2.3472

 Normal termination of Gaussian 09 at Mon Aug  5 08:06:12 2019.
