 Gaussian 09, Revision D.01,
 Gaussian 09:  ES64L-G09RevD.01 24-Apr-2013

 --------------------------
 # td=(NStates=1) B3LYP/SVP
 --------------------------

 --
 TD
 --
 Symbolic Z-matrix:
 Charge =  0 Multiplicity = 1

                         Standard orientation:
 ---------------------------------------------------------------------
 Center     Atomic      Atomic             Coordinates (Angstroms)
 Number     Number       Type             X           Y           Z
 ---------------------------------------------------------------------
      1          6           0       -5.256531   -2.017298    0.343059
      2          6           0       -4.523686    2.614482    1.587181
      3          6           0       -9.041453    3.521582   -0.183831
      4          6           0       -9.886303   -1.198424   -1.153665
      5          7           0       -5.119562    0.322106    0.846827
      6          6           0       -4.473692   -0.874761    0.893185
      7          6           0       -3.013269   -0.773464    1.394881
      8          6           0       -2.960690    0.651656    1.957250
      9          6           0       -4.288258    1.284887    1.440973
     10          6           0       -2.952373    0.548040    3.471887
     11          6           0       -2.106291   -0.992264    0.060007
     12          6           0       -0.588146   -0.982068    0.586936
     13          6           0        0.371727   -1.253044   -0.555227
     14          8           0        0.125896   -1.724494   -1.568962
     15          8           0        1.688254   -0.974290   -0.185094
     16          7           0       -6.806623    2.775363    0.627445
     17          6           0       -5.685468    3.301160    1.095953
     18          6           0       -5.881914    4.729284    1.226487
     19          6           0       -7.142385    5.034511    0.646617
     20          6           0       -7.755476    3.722950    0.383400
     21          6           0       -4.867962    5.698772    1.660302
     22          6           0       -7.828741    6.289521    0.595152
     23          6           0       -8.682111    6.730560   -0.346309
     24          7           0       -9.149066    1.044551   -0.558458
     25          6           0       -9.684064    2.344583   -0.646147
     26          6           0      -11.152110    2.259957   -1.027821
     27          6           0      -11.364174    0.900895   -1.373066
     28          6           0      -10.136849    0.191744   -1.008849
     29          6           0      -11.989339    3.430854   -1.016523
     30          6           0      -12.541064    0.224404   -1.831120
     31          6           0      -12.608249   -0.195856   -3.361412
     32          7           0       -7.539281   -1.211921   -0.399939
     33          6           0       -8.667344   -1.930410   -0.807984
     34          6           0       -8.306893   -3.291763   -0.750170
     35          6           0       -7.028448   -3.374609   -0.239650
     36          6           0       -6.532298   -2.038175   -0.100398
     37          6           0       -9.113774   -4.454024   -1.135283
     38          6           0       -5.989266   -4.371329   -0.116679
     39          8           0       -5.912892   -5.509501   -0.382735
     40          6           0       -4.749411   -3.494278    0.384521
     41          6           0       -4.052705   -3.981326    1.674547
     42          8           0       -4.365021   -3.583124    2.708451
     43          8           0       -3.301548   -5.061181    1.468110
     44          6           0       -2.892573   -5.702317    2.678241
     45          6           0        2.652384   -1.087905   -1.126894
     46          6           0        4.010919   -0.795946   -0.440434
     47          6           0        4.939878    0.117996   -0.987157
     48          6           0        4.837942    0.823741   -2.244530
     49          6           0        6.241241    0.262289   -0.183821
     50          6           0        7.376900   -0.351066   -0.880457
     51          6           0        8.662687   -0.119415   -0.106314
     52          6           0        9.974496   -0.778726   -0.649365
     53          6           0        9.792819   -2.296259   -0.466786
     54          6           0       11.166078   -0.333177    0.109189
     55          6           0       12.566405   -0.669131   -0.521115
     56          6           0       13.733745    0.007378    0.229722
     57          6           0       15.185425   -0.181248   -0.359460
     58          6           0       15.583135   -1.673596   -0.426993
     59          6           0       16.278301    0.731691    0.389069
     60          6           0       17.581279    0.713787   -0.297989
     61          6           0       18.565035    1.600438    0.515672
     62          6           0       19.987229    1.706001   -0.069072
     63          6           0       19.919190    2.204151   -1.578318
     64          6           0       20.927781    2.595934    0.753758
     65          1           0       -3.615377    3.178612    2.032508
     66          1           0       -9.811985    4.385457   -0.256577
     67          1           0      -10.746957   -1.935846   -1.427477
     68          1           0       -2.590329   -1.659614    2.087466
     69          1           0       -2.235057    1.265356    1.207840
     70          1           0       -2.217462    0.131802    3.940937
     71          1           0       -3.084057    1.574940    3.856482
     72          1           0       -3.997603   -0.235344    3.855609
     73          1           0       -2.332041   -2.012008   -0.375850
     74          1           0       -2.299137   -0.234413   -0.734653
     75          1           0       -0.424720   -0.215650    1.359020
     76          1           0       -0.581231   -1.687510    1.519551
     77          1           0       -4.030295    5.744171    0.867215
     78          1           0       -5.223368    6.859803    1.978834
     79          1           0       -4.137875    5.438899    2.534109
     80          1           0       -7.604147    7.066844    1.429615
     81          1           0       -8.792043    6.048917   -1.445939
     82          1           0       -9.194108    7.768884   -0.244426
     83          1           0      -12.031114    3.738577   -0.061163
     84          1           0      -11.804942    4.309458   -1.767804
     85          1           0      -13.038893    3.074433   -1.173278
     86          1           0      -12.922295   -0.634521   -1.294079
     87          1           0      -13.422222    0.932401   -1.784767
     88          1           0      -11.944058    0.646752   -4.155937
     89          1           0      -11.755620   -1.021780   -3.536118
     90          1           0      -13.725008   -0.213253   -3.576845
     91          1           0      -10.251208   -4.398271   -0.444603
     92          1           0       -9.472999   -4.428138   -2.312612
     93          1           0       -8.636367   -5.349363   -1.251189
     94          1           0       -3.799335   -3.602107   -0.390097
     95          1           0       -2.085591   -6.515644    2.577354
     96          1           0       -2.346622   -4.977551    3.203640
     97          1           0       -3.751018   -6.028022    3.257253
     98          1           0        2.843688   -2.110736   -1.581535
     99          1           0        2.653369   -0.685566   -2.126701
    100          1           0        4.181749   -1.201784    0.546698
    101          1           0        4.944935    1.998516   -1.956527
    102          1           0        5.608094    0.570988   -2.810244
    103          1           0        3.842117    0.432956   -2.811510
    104          1           0        6.547433    1.288753   -0.150608
    105          1           0        6.187872   -0.006357    0.772330
    106          1           0        7.133252   -1.410979   -1.049274
    107          1           0        7.487180   -0.070002   -1.978295
    108          1           0        8.761018    0.869197   -0.070684
    109          1           0        8.496704   -0.578149    0.819436
    110          1           0       10.189400   -0.517062   -1.681322
    111          1           0        9.041706   -2.602593   -1.225489
    112          1           0       10.798345   -2.902133   -0.799716
    113          1           0        9.569458   -2.982721    0.484312
    114          1           0       11.247213    0.819706    0.254815
    115          1           0       11.248902   -0.836463    1.123682
    116          1           0       12.651150   -1.599326   -0.628114
    117          1           0       12.703879   -0.192548   -1.664444
    118          1           0       13.529705    1.174004    0.363068
    119          1           0       13.798431   -0.190219    1.250477
    120          1           0       15.219260    0.104920   -1.479450
    121          1           0       14.713100   -2.124222   -0.893996
    122          1           0       16.519401   -2.023164   -1.102871
    123          1           0       15.751893   -2.160977    0.571899
    124          1           0       15.583964    1.597313    0.457615
    125          1           0       16.377048    0.228900    1.463732
    126          1           0       17.811898   -0.447299   -0.311291
    127          1           0       17.615501    1.003178   -1.479839
    128          1           0       18.059681    2.550799    0.664803
    129          1           0       18.438408    1.248643    1.684925
    130          1           0       20.485207    0.785543   -0.094303
    131          1           0       19.372939    3.090547   -1.315166
    132          1           0       20.982408    2.363157   -1.980282
    133          1           0       19.404530    1.588302   -2.303345
    134          1           0       20.908310    2.170540    1.868462
    135          1           0       22.050404    2.729992    0.444591
    136          1           0       20.452509    3.547758    0.717369
    137          1           0       -7.062832    1.682412    0.516016
    138          1           0       -7.487662   -0.098286   -0.423438
 ---------------------------------------------------------------------

 SCF Done:  E(RB3LYP) =  -2732.97352773     A.U. after   17 cycles

 Excitation energies and oscillator strengths:

 Excited State   1:      Singlet-A      2.0082 eV  617.40 nm  f=0.1930  <S**2>=0.000
     235 -> 237       -0.19465
     235 -> 238        0.26576
     236 -> 237        0.60724
     236 -> 238        0.14681
 This state for optimization and/or second-order correction.
 Total Energy, E(TD-HF/TD-KS) =  -2732.89972951
 Copying the excited state density for this state as the 1-particle RhoCI density.

 The electronic state is 1-A.
 Alpha  occ. eigenvalues --  -19.17810 -19.17292 -19.14099 -19.12620 -19.12259
 Alpha  occ. eigenvalues --  -14.38533 -14.36894 -14.32993 -14.30477 -10.32300
 Alpha  occ. eigenvalues --  -10.30923 -10.27778 -10.24537 -10.24432 -10.24292
 Alpha  occ. eigenvalues --  -10.24085 -10.23972 -10.23916 -10.22877 -10.22800
 Alpha  occ. eigenvalues --  -10.22396 -10.22083 -10.22007 -10.21923 -10.21854
 Alpha  occ. eigenvalues --  -10.21698 -10.21674 -10.21616 -10.21520 -10.21504
 Alpha  occ. eigenvalues --  -10.21447 -10.21380 -10.21292 -10.21080 -10.21014
 Alpha  occ. eigenvalues --  -10.20734 -10.20685 -10.20646 -10.20547 -10.20322
 Alpha  occ. eigenvalues --  -10.19681 -10.19670 -10.19598 -10.19588 -10.19526
 Alpha  occ. eigenvalues --  -10.19480 -10.19287 -10.19259 -10.19182 -10.18972
 Alpha  occ. eigenvalues --  -10.18849 -10.18813 -10.18753 -10.18732 -10.18659
 Alpha  occ. eigenvalues --  -10.18631 -10.18562 -10.18446 -10.18411 -10.18319
 Alpha  occ. eigenvalues --  -10.17812 -10.17810 -10.16935 -10.16753  -1.11910
 Alpha  occ. eigenvalues --   -1.11606  -1.05293  -1.03904  -1.02875  -0.99425
 Alpha  occ. eigenvalues --   -0.98374  -0.93460  -0.91651  -0.84193  -0.83203
 Alpha  occ. eigenvalues --   -0.81682  -0.81418  -0.81067  -0.80802  -0.80651
 Alpha  occ. eigenvalues --   -0.80167  -0.79531  -0.79106  -0.78732  -0.77637
 Alpha  occ. eigenvalues --   -0.76879  -0.75977  -0.75266  -0.74894  -0.74504
 Alpha  occ. eigenvalues --   -0.73406  -0.73086  -0.71738  -0.71470  -0.70016
 Alpha  occ. eigenvalues --   -0.69709  -0.68717  -0.68252  -0.67979  -0.67802
 Alpha  occ. eigenvalues --   -0.66758  -0.66251  -0.66039  -0.65677  -0.65082
 Alpha  occ. eigenvalues --   -0.64043  -0.62666  -0.62121  -0.61539  -0.61082
 Alpha  occ. eigenvalues --   -0.60360  -0.59058  -0.58463  -0.58407  -0.57562
 Alpha  occ. eigenvalues --   -0.57361  -0.56730  -0.55979  -0.55925  -0.55454
 Alpha  occ. eigenvalues --   -0.55424  -0.54837  -0.54165  -0.53724  -0.53318
 Alpha  occ. eigenvalues --   -0.52259  -0.51892  -0.51593  -0.50846  -0.50338
 Alpha  occ. eigenvalues --   -0.49597  -0.49350  -0.49182  -0.49129  -0.48789
 Alpha  occ. eigenvalues --   -0.48046  -0.47874  -0.47699  -0.47345  -0.47109
 Alpha  occ. eigenvalues --   -0.46946  -0.46740  -0.46307  -0.46038  -0.45591
 Alpha  occ. eigenvalues --   -0.45524  -0.45301  -0.45092  -0.44900  -0.44664
 Alpha  occ. eigenvalues --   -0.44344  -0.44198  -0.43977  -0.43742  -0.43658
 Alpha  occ. eigenvalues --   -0.43480  -0.43152  -0.42859  -0.42633  -0.42582
 Alpha  occ. eigenvalues --   -0.42350  -0.42060  -0.41741  -0.41573  -0.41278
 Alpha  occ. eigenvalues --   -0.41177  -0.41133  -0.40745  -0.40359  -0.40241
 Alpha  occ. eigenvalues --   -0.40100  -0.39912  -0.39895  -0.39646  -0.39444
 Alpha  occ. eigenvalues --   -0.39308  -0.39217  -0.38908  -0.38759  -0.38626
 Alpha  occ. eigenvalues --   -0.38578  -0.38395  -0.38107  -0.37499  -0.37387
 Alpha  occ. eigenvalues --   -0.36890  -0.36812  -0.36606  -0.36548  -0.36450
 Alpha  occ. eigenvalues --   -0.36282  -0.36151  -0.35785  -0.35465  -0.35392
 Alpha  occ. eigenvalues --   -0.35065  -0.35031  -0.34936  -0.34832  -0.34671
 Alpha  occ. eigenvalues --   -0.34495  -0.34385  -0.34171  -0.34086  -0.34072
 Alpha  occ. eigenvalues --   -0.33806  -0.33655  -0.32448  -0.32335  -0.32266
 Alpha  occ. eigenvalues --   -0.31902  -0.31747  -0.31714  -0.31238  -0.31009
 Alpha  occ. eigenvalues --   -0.30748  -0.30733  -0.30426  -0.30423  -0.30052
 Alpha  occ. eigenvalues --   -0.29552  -0.29438  -0.29017  -0.28571  -0.28416
 Alpha  occ. eigenvalues --   -0.27653  -0.27344  -0.26779  -0.26386  -0.26036
 Alpha  occ. eigenvalues --   -0.25035  -0.23745  -0.22815  -0.22329  -0.19962
 Alpha  occ. eigenvalues --   -0.18704
 Alpha virt. eigenvalues --   -0.10469  -0.07865  -0.04443  -0.01962  -0.00996
 Alpha virt. eigenvalues --   -0.00065   0.00536   0.01329   0.01570   0.03231
 Alpha virt. eigenvalues --    0.03392   0.03566   0.03633   0.04099   0.04190

 Mulliken charges:
               1
     1  C   -0.003134
     2  C   -0.084032
     3  C   -0.087341
     4  C   -0.089127
     5  N   -0.211299
     6  C    0.002091
     7  C   -0.142939
     8  C   -0.001283
     9  C   -0.038199
    10  C    0.090547
    11  C    0.009331
    12  C   -0.026967
    13  C    0.234358
    14  O   -0.140265
    15  O   -0.295846
    16  N   -0.053007
    17  C    0.105353
    18  C   -0.090863
    19  C    0.041193
    20  C    0.088025
    21  C   -0.027032
    22  C   -0.070204
    23  C   -0.115817
    24  N   -0.291920
    25  C    0.018739
    26  C   -0.153275
    27  C   -0.016375
    28  C    0.076058
    29  C    0.144070
    30  C    0.037721
    31  C   -0.108377
    32  N   -0.077319
    33  C    0.061041
    34  C   -0.079189
    35  C   -0.076874
    36  C    0.109516
    37  C    0.026569
    38  C    0.112360
    39  O   -0.111545
    40  C   -0.156449
    41  C    0.150984
    42  O   -0.173175
    43  O   -0.286239
    44  C    0.202209
    45  C    0.289574
    46  C   -0.090066
    47  C   -0.182083
    48  C    0.117768
    49  C    0.182334
    50  C   -0.029961
    51  C    0.145088
    52  C    0.017554
    53  C   -0.076949
    54  C   -0.004207
    55  C    0.081613
    56  C    0.030624
    57  C   -0.110419
    58  C   -0.017638
    59  C    0.004001
    60  C   -0.019312
    61  C    0.001692
    62  C   -0.016324
    63  C   -0.006815
    64  C   -0.006594
    65  H    0.006117
    66  H    0.021413
    67  H    0.013461
    68  H    0.042986
    69  H    0.039489
    70  H   -0.024487
    71  H    0.012733
    72  H    0.058040
    73  H    0.037991
    74  H    0.030011
    75  H    0.010142
    76  H    0.026508
    77  H    0.037676
    78  H    0.050823
    79  H    0.026978
    80  H    0.026797
    81  H    0.067740
    82  H    0.046221
    83  H   -0.007367
    84  H    0.051224
    85  H   -0.008584
    86  H    0.010508
    87  H   -0.012095
    88  H    0.021452
    89  H    0.042762
    90  H    0.051838
    91  H    0.059100
    92  H    0.032983
    93  H    0.008061
    94  H    0.069404
    95  H    0.041584
    96  H   -0.003325
    97  H    0.034643
    98  H   -0.007811
    99  H   -0.033095
   100  H   -0.018078
   101  H    0.040300
   102  H   -0.018964
   103  H    0.025859
   104  H   -0.039619
   105  H   -0.055915
   106  H   -0.022504
   107  H   -0.009089
   108  H   -0.050972
   109  H   -0.024169
   110  H   -0.016666
   111  H    0.013597
   112  H    0.007714
   113  H    0.039532
   114  H    0.000655
   115  H    0.000659
   116  H   -0.062667
   117  H    0.000876
   118  H   -0.003588
   119  H   -0.032265
   120  H   -0.003038
   121  H    0.000039
   122  H    0.029813
   123  H    0.007212
   124  H   -0.000102
   125  H    0.012489
   126  H    0.014014
   127  H    0.022887
   128  H   -0.012708
   129  H   -0.000592
   130  H   -0.021911
   131  H    0.003257
   132  H    0.018263
   133  H    0.022398
   134  H    0.022925
   135  H    0.028308
   136  H   -0.007629
   137  H    0.207596
   138  H    0.188206
 Sum of Mulliken charges =   0.00000

 Dipole moment (field-independent basis, Debye):
    X=              1.0410    Y=              3.6559    Z=              1.7934  Tot=              4.2030
 Quadrupole moment (field-independent basis, Debye-Ang):
   XX=           -378.0177   YY=           -387.1265   ZZ=           -394.7232
   XY=            -27.2578   XZ=              2.5527   YZ=             -4.1336

 Normal termination of Gaussian 09 at Mon Aug  5 06:55:13 2019.
