 Gaussian 09, Revision D.01,
 Gaussian 09:  ES64L-G09RevD.01 24-Apr-2013

 --------------------------
 # td=(NStates=1) B3LYP/SVP
 --------------------------

 --
 TD
 --
 Symbolic Z-matrix:
 Charge =  0 Multiplicity = 1

                         Standard orientation:
 ---------------------------------------------------------------------
 Center     Atomic      Atomic             Coordinates (Angstroms)
 Number     Number       Type             X           Y           Z
 ---------------------------------------------------------------------
      1          6           0       -5.093411   -1.972764    0.432753
      2          6           0       -4.811060    2.777087    1.345074
      3          6           0       -9.405468    3.267021   -0.205103
      4          6           0       -9.718276   -1.441153   -1.129864
      5          7           0       -5.235885    0.521806    0.852140
      6          6           0       -4.586431   -0.692993    0.849025
      7          6           0       -3.060101   -0.564262    1.355799
      8          6           0       -3.101303    0.951374    1.825458
      9          6           0       -4.440253    1.444229    1.296400
     10          6           0       -2.855462    1.049983    3.326790
     11          6           0       -2.060533   -0.850300    0.160988
     12          6           0       -0.602160   -0.807193    0.580930
     13          6           0        0.378759   -1.022446   -0.533513
     14          8           0        0.072213   -1.296247   -1.681317
     15          8           0        1.716504   -0.815198   -0.102986
     16          7           0       -7.193481    2.821604    0.563324
     17          6           0       -5.992814    3.387766    1.031401
     18          6           0       -6.343411    4.799809    0.938677
     19          6           0       -7.727357    4.971256    0.593428
     20          6           0       -8.187066    3.699188    0.232942
     21          6           0       -5.383056    5.913612    1.403533
     22          6           0       -8.369012    6.271048    0.439174
     23          6           0       -9.209315    6.622237   -0.542848
     24          7           0       -9.274933    0.841182   -0.448869
     25          6           0       -9.919385    1.997949   -0.515062
     26          6           0      -11.333137    1.804632   -1.019851
     27          6           0      -11.374398    0.432528   -1.301812
     28          6           0      -10.019582   -0.090888   -0.885189
     29          6           0      -12.421026    2.831183   -1.107861
     30          6           0      -12.620747   -0.369220   -1.725732
     31          6           0      -12.566084   -0.660345   -3.243983
     32          7           0       -7.432348   -1.260520   -0.135791
     33          6           0       -8.474442   -2.056190   -0.663201
     34          6           0       -8.104704   -3.396368   -0.638209
     35          6           0       -6.795681   -3.360314   -0.212617
     36          6           0       -6.408148   -2.040361    0.012825
     37          6           0       -8.898526   -4.624814   -1.300296
     38          6           0       -5.734449   -4.253529    0.079648
     39          8           0       -5.645937   -5.529496    0.086570
     40          6           0       -4.460355   -3.348168    0.451474
     41          6           0       -3.963271   -3.748817    1.760875
     42          8           0       -4.222055   -3.266040    2.796482
     43          8           0       -3.071135   -4.843330    1.493302
     44          6           0       -2.408985   -5.421772    2.726171
     45          6           0        2.704091   -1.051538   -1.136263
     46          6           0        4.009872   -0.760488   -0.485256
     47          6           0        4.941549    0.076672   -0.933167
     48          6           0        4.917270    0.667776   -2.388826
     49          6           0        6.353316    0.201107   -0.250075
     50          6           0        7.514613   -0.375095   -0.973018
     51          6           0        8.810814   -0.234448   -0.158163
     52          6           0       10.140762   -0.818578   -0.653097
     53          6           0       10.025203   -2.274400   -0.844785
     54          6           0       11.332236   -0.421119    0.212740
     55          6           0       12.609757   -0.622684   -0.463303
     56          6           0       13.874378   -0.014882    0.349026
     57          6           0       15.292838   -0.165006   -0.310929
     58          6           0       15.686896   -1.778498   -0.345875
     59          6           0       16.325358    0.628254    0.335330
     60          6           0       17.702661    0.668502   -0.286242
     61          6           0       18.649297    1.654309    0.535297
     62          6           0       20.137461    1.733023   -0.096824
     63          6           0       20.105551    2.427658   -1.435958
     64          6           0       21.015096    2.491269    0.821599
     65          1           0       -4.293910    3.910390    1.716285
     66          1           0      -10.406398    3.947170   -0.205973
     67          1           0      -10.392457   -2.121576   -1.516155
     68          1           0       -2.888966   -1.265809    2.260426
     69          1           0       -2.227505    1.776070    1.476762
     70          1           0       -1.769236    0.692464    3.308152
     71          1           0       -2.848636    2.083876    3.687324
     72          1           0       -3.565676    0.343781    3.931363
     73          1           0       -2.208780   -1.729501   -0.451482
     74          1           0       -2.248189   -0.149134   -0.635772
     75          1           0       -0.451846   -0.088043    1.377701
     76          1           0       -0.433246   -1.841301    1.229037
     77          1           0       -4.476961    6.101751    0.545604
     78          1           0       -5.646233    6.978749    1.227046
     79          1           0       -4.849526    5.447335    2.320460
     80          1           0       -8.083863    7.013864    1.243079
     81          1           0       -9.634670    5.973384   -1.313169
     82          1           0       -9.906654    7.559336   -0.760972
     83          1           0      -12.451758    3.589928   -0.234895
     84          1           0      -12.264451    3.652887   -1.965277
     85          1           0      -13.398937    2.482234   -1.216282
     86          1           0      -12.804773   -1.218242   -1.167367
     87          1           0      -13.362906    0.325463   -1.387203
     88          1           0      -12.449762    0.231340   -3.797146
     89          1           0      -11.738259   -1.149542   -3.408527
     90          1           0      -13.428551   -1.338378   -3.451507
     91          1           0       -9.861163   -4.751430   -0.786363
     92          1           0       -9.191164   -4.439320   -2.316473
     93          1           0       -8.488867   -5.523516   -1.330863
     94          1           0       -3.765918   -3.573285   -0.276409
     95          1           0       -1.833070   -6.378925    2.396105
     96          1           0       -1.699831   -4.612294    3.223808
     97          1           0       -3.241961   -5.757573    3.467970
     98          1           0        2.601223   -2.135188   -1.493518
     99          1           0        2.762776   -0.318316   -2.000394
    100          1           0        4.081540   -1.331130    0.423946
    101          1           0        5.699537    1.557453   -2.698878
    102          1           0        5.357966   -0.327322   -3.121414
    103          1           0        3.709132    1.022848   -2.606942
    104          1           0        6.451740    1.267758   -0.203135
    105          1           0        6.392705   -0.190216    0.874788
    106          1           0        7.471458   -1.477836   -1.174286
    107          1           0        7.536815    0.335448   -1.898489
    108          1           0        8.700013    0.983863   -0.026850
    109          1           0        8.443604   -0.590989    0.869747
    110          1           0       10.365114   -0.004230   -1.631811
    111          1           0        9.264669   -2.614125   -1.414442
    112          1           0       11.001383   -2.492444   -1.535173
    113          1           0        9.841986   -2.678550    0.050258
    114          1           0       11.173882    0.648693    0.721285
    115          1           0       11.397017   -1.147397    1.182510
    116          1           0       12.858096   -1.782375   -0.605222
    117          1           0       12.690565   -0.092824   -1.388637
    118          1           0       13.844360    1.117110    0.173745
    119          1           0       13.806470   -0.340429    1.406832
    120          1           0       15.044145    0.218309   -1.280813
    121          1           0       14.972965   -2.380908   -0.730559
    122          1           0       16.649710   -1.980858   -0.818456
    123          1           0       16.037917   -1.895784    0.715717
    124          1           0       15.846743    1.599684    0.532687
    125          1           0       16.367453    0.304295    1.440329
    126          1           0       18.255010   -0.334806   -0.299863
    127          1           0       17.599734    1.226632   -1.299675
    128          1           0       18.486141    2.692361    0.504689
    129          1           0       18.585882    1.556580    1.663070
    130          1           0       20.342850    0.518987   -0.219011
    131          1           0       20.145921    3.614020   -1.454432
    132          1           0       21.108716    2.280257   -1.901271
    133          1           0       19.382223    1.952024   -2.201094
    134          1           0       20.761402    2.012922    1.918519
    135          1           0       22.125353    2.222347    0.666813
    136          1           0       20.592961    3.549339    0.966710
    137          1           0       -7.214251    1.887529    0.380201
    138          1           0       -7.539207   -0.275942   -0.091412
 ---------------------------------------------------------------------

 SCF Done:  E(RB3LYP) =  -2732.99639340     A.U. after   16 cycles

 Excitation energies and oscillator strengths:

 Excited State   1:      Singlet-A      2.0990 eV  590.67 nm  f=0.1941  <S**2>=0.000
     235 -> 238        0.29813
     236 -> 237        0.63016
 This state for optimization and/or second-order correction.
 Total Energy, E(TD-HF/TD-KS) =  -2732.91925495
 Copying the excited state density for this state as the 1-particle RhoCI density.

 The electronic state is 1-A.
 Alpha  occ. eigenvalues --  -19.17286 -19.16386 -19.13607 -19.13367 -19.11590
 Alpha  occ. eigenvalues --  -14.37436 -14.35797 -14.33235 -14.30011 -10.32279
 Alpha  occ. eigenvalues --  -10.31253 -10.27625 -10.26106 -10.24426 -10.24257
 Alpha  occ. eigenvalues --  -10.24055 -10.23995 -10.23741 -10.23702 -10.23593
 Alpha  occ. eigenvalues --  -10.23052 -10.22635 -10.22101 -10.21797 -10.21732
 Alpha  occ. eigenvalues --  -10.21688 -10.21676 -10.21504 -10.21501 -10.21407
 Alpha  occ. eigenvalues --  -10.21038 -10.20809 -10.20789 -10.20762 -10.20687
 Alpha  occ. eigenvalues --  -10.20557 -10.20546 -10.20540 -10.20521 -10.20456
 Alpha  occ. eigenvalues --  -10.20105 -10.20092 -10.19844 -10.19667 -10.19646
 Alpha  occ. eigenvalues --  -10.19485 -10.19459 -10.19455 -10.19430 -10.19199
 Alpha  occ. eigenvalues --  -10.19140 -10.18995 -10.18873 -10.18865 -10.18749
 Alpha  occ. eigenvalues --  -10.18646 -10.18587 -10.18502 -10.17973 -10.17962
 Alpha  occ. eigenvalues --  -10.17834 -10.17642 -10.17102 -10.17101  -1.08176
 Alpha  occ. eigenvalues --   -1.07396  -1.00878  -1.00218  -0.99641  -0.98428
 Alpha  occ. eigenvalues --   -0.98240  -0.96173  -0.95532  -0.85782  -0.82813
 Alpha  occ. eigenvalues --   -0.82014  -0.81607  -0.81599  -0.81132  -0.81012
 Alpha  occ. eigenvalues --   -0.80661  -0.79684  -0.79651  -0.79134  -0.77920
 Alpha  occ. eigenvalues --   -0.77198  -0.76200  -0.75802  -0.75055  -0.74777
 Alpha  occ. eigenvalues --   -0.73450  -0.73100  -0.72274  -0.71619  -0.71092
 Alpha  occ. eigenvalues --   -0.70041  -0.68891  -0.68471  -0.67448  -0.67358
 Alpha  occ. eigenvalues --   -0.66888  -0.66831  -0.66607  -0.65669  -0.65130
 Alpha  occ. eigenvalues --   -0.64535  -0.63495  -0.62952  -0.62632  -0.62115
 Alpha  occ. eigenvalues --   -0.61000  -0.59395  -0.58395  -0.58270  -0.57335
 Alpha  occ. eigenvalues --   -0.56620  -0.55869  -0.55494  -0.55356  -0.55078
 Alpha  occ. eigenvalues --   -0.54595  -0.54417  -0.54100  -0.53521  -0.53498
 Alpha  occ. eigenvalues --   -0.52864  -0.52809  -0.51788  -0.51248  -0.50403
 Alpha  occ. eigenvalues --   -0.49984  -0.49342  -0.48820  -0.48417  -0.48057
 Alpha  occ. eigenvalues --   -0.47791  -0.47700  -0.47540  -0.47084  -0.46858
 Alpha  occ. eigenvalues --   -0.46671  -0.46486  -0.46364  -0.46034  -0.45957
 Alpha  occ. eigenvalues --   -0.45861  -0.45241  -0.45068  -0.44986  -0.44749
 Alpha  occ. eigenvalues --   -0.44584  -0.44135  -0.44107  -0.43623  -0.43568
 Alpha  occ. eigenvalues --   -0.43410  -0.43183  -0.42897  -0.42663  -0.42545
 Alpha  occ. eigenvalues --   -0.42398  -0.42144  -0.41700  -0.41546  -0.41441
 Alpha  occ. eigenvalues --   -0.41133  -0.40855  -0.40743  -0.40487  -0.40361
 Alpha  occ. eigenvalues --   -0.40317  -0.40207  -0.39744  -0.39452  -0.39284
 Alpha  occ. eigenvalues --   -0.39206  -0.39081  -0.38836  -0.38643  -0.38586
 Alpha  occ. eigenvalues --   -0.38424  -0.38265  -0.38157  -0.37904  -0.37455
 Alpha  occ. eigenvalues --   -0.37288  -0.37258  -0.37183  -0.37009  -0.36950
 Alpha  occ. eigenvalues --   -0.36515  -0.36263  -0.36191  -0.36132  -0.35794
 Alpha  occ. eigenvalues --   -0.35640  -0.35416  -0.35135  -0.35046  -0.34550
 Alpha  occ. eigenvalues --   -0.34206  -0.34129  -0.33764  -0.33613  -0.33390
 Alpha  occ. eigenvalues --   -0.33193  -0.32914  -0.32561  -0.32294  -0.32016
 Alpha  occ. eigenvalues --   -0.31987  -0.31689  -0.31618  -0.31204  -0.30964
 Alpha  occ. eigenvalues --   -0.30628  -0.30152  -0.30137  -0.29823  -0.29495
 Alpha  occ. eigenvalues --   -0.29287  -0.29036  -0.28902  -0.28699  -0.28465
 Alpha  occ. eigenvalues --   -0.27764  -0.27537  -0.27195  -0.26912  -0.26529
 Alpha  occ. eigenvalues --   -0.24962  -0.24438  -0.23764  -0.23171  -0.20329
 Alpha  occ. eigenvalues --   -0.19552
 Alpha virt. eigenvalues --   -0.10872  -0.07777  -0.04931  -0.01981  -0.01163
 Alpha virt. eigenvalues --   -0.00260  -0.00178   0.00400   0.01848   0.02599
 Alpha virt. eigenvalues --    0.02792   0.03594   0.03900   0.04228   0.04390

 Mulliken charges:
               1
     1  C   -0.055406
     2  C   -0.016941
     3  C   -0.095443
     4  C   -0.033239
     5  N   -0.130436
     6  C   -0.048602
     7  C   -0.075753
     8  C   -0.105206
     9  C    0.033264
    10  C    0.031312
    11  C    0.094844
    12  C   -0.003603
    13  C    0.225359
    14  O   -0.227361
    15  O   -0.361141
    16  N   -0.048782
    17  C    0.001552
    18  C   -0.108721
    19  C    0.037659
    20  C    0.137863
    21  C   -0.004803
    22  C   -0.015658
    23  C   -0.088366
    24  N   -0.114421
    25  C   -0.054996
    26  C   -0.079021
    27  C   -0.176678
    28  C    0.058396
    29  C    0.050919
    30  C    0.107724
    31  C    0.121847
    32  N    0.036798
    33  C    0.025051
    34  C   -0.140374
    35  C    0.028718
    36  C    0.090727
    37  C    0.178948
    38  C    0.024562
    39  O   -0.229072
    40  C    0.054372
    41  C    0.216556
    42  O   -0.167385
    43  O   -0.383322
    44  C    0.114205
    45  C    0.271102
    46  C   -0.090325
    47  C   -0.074334
    48  C   -0.134940
    49  C    0.033772
    50  C    0.027296
    51  C   -0.079239
    52  C   -0.059058
    53  C    0.140427
    54  C   -0.010958
    55  C    0.019681
    56  C   -0.036457
    57  C   -0.038317
    58  C    0.054768
    59  C    0.023076
    60  C    0.069831
    61  C   -0.019031
    62  C   -0.133972
    63  C   -0.000802
    64  C    0.003681
    65  H    0.013909
    66  H    0.016177
    67  H   -0.051175
    68  H    0.045928
    69  H    0.026553
    70  H    0.019656
    71  H    0.016925
    72  H    0.048467
    73  H    0.004519
    74  H   -0.002106
    75  H    0.025137
    76  H    0.046940
    77  H    0.031983
    78  H    0.034631
    79  H    0.070222
    80  H    0.024169
    81  H    0.019808
    82  H    0.038702
    83  H    0.029268
    84  H    0.027267
    85  H    0.000377
    86  H   -0.021048
    87  H   -0.019633
    88  H    0.000995
    89  H   -0.045737
    90  H    0.013348
    91  H    0.009597
    92  H    0.013490
    93  H   -0.010940
    94  H    0.028532
    95  H    0.060287
    96  H    0.050466
    97  H    0.056770
    98  H    0.034275
    99  H    0.007064
   100  H   -0.017379
   101  H    0.057284
   102  H    0.070626
   103  H    0.076187
   104  H   -0.005125
   105  H    0.007097
   106  H    0.002578
   107  H    0.005818
   108  H   -0.004572
   109  H   -0.007919
   110  H    0.006443
   111  H   -0.021217
   112  H    0.035071
   113  H   -0.023487
   114  H    0.018676
   115  H   -0.004416
   116  H    0.030962
   117  H   -0.017058
   118  H   -0.000201
   119  H    0.001769
   120  H   -0.029241
   121  H   -0.008093
   122  H   -0.005018
   123  H   -0.001312
   124  H   -0.025047
   125  H   -0.014679
   126  H    0.025521
   127  H    0.019589
   128  H   -0.035927
   129  H   -0.007721
   130  H    0.011278
   131  H    0.021051
   132  H   -0.001497
   133  H    0.026054
   134  H    0.007547
   135  H    0.037887
   136  H    0.028255
   137  H    0.081946
   138  H    0.121299
 Sum of Mulliken charges =   0.00000

 Dipole moment (field-independent basis, Debye):
    X=              0.8826    Y=              4.3193    Z=              0.0701  Tot=              4.4091
 Quadrupole moment (field-independent basis, Debye-Ang):
   XX=           -341.1573   YY=           -385.8517   ZZ=           -397.7620
   XY=            -22.7287   XZ=              8.5425   YZ=              0.0826

 Normal termination of Gaussian 09 at Wed Jul 24 23:41:11 2019.
