 Gaussian 09, Revision D.01,
 Gaussian 09:  ES64L-G09RevD.01 24-Apr-2013

 --------------------------
 # td=(NStates=1) B3LYP/SVP
 --------------------------

 --
 TD
 --
 Symbolic Z-matrix:
 Charge =  0 Multiplicity = 1

                         Standard orientation:
 ---------------------------------------------------------------------
 Center     Atomic      Atomic             Coordinates (Angstroms)
 Number     Number       Type             X           Y           Z
 ---------------------------------------------------------------------
      1          6           0       -5.119324   -1.929191    0.466737
      2          6           0       -4.820779    2.821224    1.281743
      3          6           0       -9.409588    3.299935   -0.239823
      4          6           0       -9.877856   -1.521327   -0.852947
      5          7           0       -5.254964    0.592101    0.783205
      6          6           0       -4.512967   -0.669824    0.752754
      7          6           0       -3.122287   -0.490881    1.265623
      8          6           0       -3.143832    0.897067    1.834100
      9          6           0       -4.388932    1.476771    1.344921
     10          6           0       -2.895659    1.063644    3.426251
     11          6           0       -2.070351   -0.716999    0.092355
     12          6           0       -0.608472   -0.744170    0.539724
     13          6           0        0.320346   -1.103645   -0.626598
     14          8           0       -0.003510   -1.643938   -1.634430
     15          8           0        1.613283   -0.817381   -0.260158
     16          7           0       -7.028719    2.767972    0.311675
     17          6           0       -6.017000    3.432665    0.837287
     18          6           0       -6.279542    4.820498    0.823620
     19          6           0       -7.600920    4.955200    0.364537
     20          6           0       -8.137785    3.691462    0.038252
     21          6           0       -5.345235    5.926147    1.340197
     22          6           0       -8.290743    6.370190    0.120209
     23          6           0       -9.054763    6.587697   -0.928099
     24          7           0       -9.260184    0.800993   -0.462074
     25          6           0       -9.951761    1.951238   -0.502886
     26          6           0      -11.377928    1.830803   -0.784270
     27          6           0      -11.504229    0.444025   -0.977607
     28          6           0      -10.222987   -0.157097   -0.740150
     29          6           0      -12.389647    2.935898   -0.993534
     30          6           0      -12.633055   -0.325509   -1.388329
     31          6           0      -12.696413   -0.602028   -2.940670
     32          7           0       -7.458641   -1.259446   -0.162946
     33          6           0       -8.590718   -2.001113   -0.548988
     34          6           0       -8.238880   -3.377821   -0.508991
     35          6           0       -6.797022   -3.368306   -0.242976
     36          6           0       -6.450453   -2.001537    0.053858
     37          6           0       -9.052470   -4.487153   -0.899192
     38          6           0       -5.647184   -4.268975    0.043759
     39          8           0       -5.696228   -5.466955    0.134014
     40          6           0       -4.443864   -3.245808    0.346394
     41          6           0       -3.867383   -3.675015    1.687640
     42          8           0       -4.150887   -3.260794    2.782917
     43          8           0       -2.916245   -4.622470    1.579622
     44          6           0       -2.269885   -5.284528    2.609846
     45          6           0        2.676367   -1.189613   -1.131954
     46          6           0        3.983140   -0.924224   -0.522361
     47          6           0        5.032795   -0.207806   -1.028510
     48          6           0        4.979066    0.484479   -2.341078
     49          6           0        6.319718   -0.042775   -0.161719
     50          6           0        7.514697   -0.568583   -1.013677
     51          6           0        8.858106   -0.484580   -0.255413
     52          6           0       10.133395   -0.901344   -0.878025
     53          6           0       10.230133   -2.409152   -1.072974
     54          6           0       11.335988   -0.445793    0.002170
     55          6           0       12.691425   -0.499967   -0.739113
     56          6           0       13.945423   -0.136472    0.131524
     57          6           0       15.273726   -0.091913   -0.496991
     58          6           0       15.714024   -1.596860   -0.583550
     59          6           0       16.251258    0.745300    0.433455
     60          6           0       17.677310    0.842352   -0.073179
     61          6           0       18.521799    1.746652    0.742033
     62          6           0       19.992905    1.870133    0.320462
     63          6           0       20.331953    2.357665   -1.155057
     64          6           0       20.846894    2.743936    1.253092
     65          1           0       -4.151327    3.449591    1.568664
     66          1           0      -10.056625    4.029943   -0.196278
     67          1           0      -10.619677   -2.294819   -1.035724
     68          1           0       -2.996939   -1.345684    2.030663
     69          1           0       -2.236178    1.444570    1.250494
     70          1           0       -1.829585    1.096814    3.894989
     71          1           0       -3.330967    2.106866    3.808657
     72          1           0       -3.544163    0.207148    3.795352
     73          1           0       -2.143038   -1.582647   -0.390607
     74          1           0       -2.249729   -0.163343   -0.848572
     75          1           0       -0.181322    0.228290    0.945687
     76          1           0       -0.373617   -1.558921    1.256120
     77          1           0       -4.270298    5.751284    1.037546
     78          1           0       -5.704748    6.992940    1.041490
     79          1           0       -5.373810    5.903571    2.538136
     80          1           0       -8.300080    7.043616    1.014830
     81          1           0       -9.217874    5.915389   -1.892172
     82          1           0       -9.430262    7.670638   -0.566940
     83          1           0      -12.520458    3.571274   -0.028943
     84          1           0      -12.074630    3.523588   -1.849406
     85          1           0      -13.443472    2.395801   -1.176339
     86          1           0      -12.461295   -1.297898   -0.971475
     87          1           0      -13.560239    0.103706   -1.172194
     88          1           0      -12.639283    0.531658   -3.475097
     89          1           0      -11.604331   -0.920254   -3.230349
     90          1           0      -13.537211   -1.021138   -3.553532
     91          1           0      -10.165034   -4.395242   -0.457242
     92          1           0       -9.159952   -4.632188   -1.972410
     93          1           0       -8.667288   -5.495385   -0.475643
     94          1           0       -3.667853   -3.311600   -0.564763
     95          1           0       -1.508182   -5.884816    2.224314
     96          1           0       -1.769149   -4.536406    3.259806
     97          1           0       -3.076696   -5.811284    3.352913
     98          1           0        2.595574   -2.380616   -1.408423
     99          1           0        2.533390   -0.893206   -2.247556
    100          1           0        4.191828   -1.187087    0.496957
    101          1           0        5.318242    1.506682   -2.278153
    102          1           0        5.641074   -0.002048   -3.176616
    103          1           0        4.032565    0.401690   -2.891166
    104          1           0        6.635306    1.063866   -0.046346
    105          1           0        6.204280   -0.468718    0.843821
    106          1           0        7.523254   -1.642665   -1.288326
    107          1           0        7.667667    0.017425   -2.005469
    108          1           0        9.030963    0.646733    0.149891
    109          1           0        8.438457   -1.175444    0.687174
    110          1           0       10.143755   -0.494716   -1.917918
    111          1           0        9.531207   -2.722707   -1.717549
    112          1           0       10.938777   -2.630613   -1.762667
    113          1           0       10.089547   -2.859167   -0.182637
    114          1           0       11.179804    0.792386    0.383388
    115          1           0       11.338257   -1.246118    0.862433
    116          1           0       13.017657   -1.513432   -1.228669
    117          1           0       12.694938   -0.133361   -1.740917
    118          1           0       13.697147    0.729729    0.407988
    119          1           0       13.904756   -0.663802    1.142928
    120          1           0       15.190913    0.206357   -1.594542
    121          1           0       14.802018   -2.145653   -0.990104
    122          1           0       16.519761   -1.853565   -1.265742
    123          1           0       15.791152   -1.797415    0.372078
    124          1           0       15.804662    1.734894    0.470972
    125          1           0       16.222117    0.353649    1.571970
    126          1           0       18.215672   -0.233615   -0.195122
    127          1           0       17.529454    1.096962   -1.292222
    128          1           0       18.166369    2.775490    0.939706
    129          1           0       18.497682    1.384179    1.699595
    130          1           0       20.448918    0.839349    0.368224
    131          1           0       19.979674    3.399097   -1.361000
    132          1           0       21.421526    2.374556   -1.201798
    133          1           0       19.983061    1.740732   -2.049923
    134          1           0       20.633857    2.618585    2.461604
    135          1           0       21.957162    2.572742    1.215299
    136          1           0       20.573340    3.730917    1.112212
    137          1           0       -7.068223    1.827965    0.330262
    138          1           0       -7.709327   -0.253960   -0.083664
 ---------------------------------------------------------------------

 SCF Done:  E(RB3LYP) =  -2733.07857306     A.U. after   17 cycles

 Excitation energies and oscillator strengths:

 Excited State   1:      Singlet-A      2.1026 eV  589.66 nm  f=0.1053  <S**2>=0.000
     235 -> 237       -0.18567
     235 -> 238       -0.33989
     236 -> 237        0.57727
     236 -> 238       -0.11315
 This state for optimization and/or second-order correction.
 Total Energy, E(TD-HF/TD-KS) =  -2733.00130288
 Copying the excited state density for this state as the 1-particle RhoCI density.

 The electronic state is 1-A.
 Alpha  occ. eigenvalues --  -19.17972 -19.16741 -19.13461 -19.12296 -19.12064
 Alpha  occ. eigenvalues --  -14.36670 -14.35376 -14.32299 -14.30088 -10.31855
 Alpha  occ. eigenvalues --  -10.31781 -10.28009 -10.26233 -10.24890 -10.23487
 Alpha  occ. eigenvalues --  -10.23346 -10.23120 -10.22846 -10.22818 -10.22700
 Alpha  occ. eigenvalues --  -10.22692 -10.21980 -10.21689 -10.21627 -10.21588
 Alpha  occ. eigenvalues --  -10.21475 -10.21408 -10.21114 -10.21079 -10.21051
 Alpha  occ. eigenvalues --  -10.20871 -10.20835 -10.20795 -10.20745 -10.20732
 Alpha  occ. eigenvalues --  -10.20663 -10.20577 -10.20448 -10.20134 -10.20134
 Alpha  occ. eigenvalues --  -10.20053 -10.20027 -10.19794 -10.19474 -10.19469
 Alpha  occ. eigenvalues --  -10.19309 -10.19220 -10.19190 -10.19115 -10.19064
 Alpha  occ. eigenvalues --  -10.18974 -10.18658 -10.18610 -10.18528 -10.18461
 Alpha  occ. eigenvalues --  -10.18376 -10.18286 -10.18246 -10.17928 -10.17422
 Alpha  occ. eigenvalues --  -10.17413 -10.16266 -10.16211 -10.15370  -1.09704
 Alpha  occ. eigenvalues --   -1.09670  -1.03175  -1.02117  -1.00548  -0.99501
 Alpha  occ. eigenvalues --   -0.97944  -0.93512  -0.92989  -0.84827  -0.82651
 Alpha  occ. eigenvalues --   -0.81982  -0.81792  -0.81310  -0.81151  -0.80833
 Alpha  occ. eigenvalues --   -0.80201  -0.79965  -0.79705  -0.78367  -0.77369
 Alpha  occ. eigenvalues --   -0.76663  -0.76312  -0.75916  -0.75192  -0.74786
 Alpha  occ. eigenvalues --   -0.73852  -0.73181  -0.72510  -0.72118  -0.70245
 Alpha  occ. eigenvalues --   -0.69877  -0.69450  -0.68846  -0.68196  -0.67671
 Alpha  occ. eigenvalues --   -0.67434  -0.67011  -0.66323  -0.65800  -0.65336
 Alpha  occ. eigenvalues --   -0.64029  -0.63442  -0.62665  -0.61603  -0.61287
 Alpha  occ. eigenvalues --   -0.60577  -0.58804  -0.58248  -0.57699  -0.57232
 Alpha  occ. eigenvalues --   -0.56715  -0.56268  -0.55985  -0.55364  -0.55329
 Alpha  occ. eigenvalues --   -0.55067  -0.54436  -0.54247  -0.53661  -0.53058
 Alpha  occ. eigenvalues --   -0.52868  -0.52562  -0.51743  -0.50807  -0.50544
 Alpha  occ. eigenvalues --   -0.49528  -0.48984  -0.48957  -0.48753  -0.48511
 Alpha  occ. eigenvalues --   -0.48211  -0.47785  -0.47689  -0.47445  -0.46987
 Alpha  occ. eigenvalues --   -0.46663  -0.46479  -0.46199  -0.46046  -0.45659
 Alpha  occ. eigenvalues --   -0.45364  -0.45162  -0.44983  -0.44787  -0.44259
 Alpha  occ. eigenvalues --   -0.44187  -0.44137  -0.43834  -0.43537  -0.43409
 Alpha  occ. eigenvalues --   -0.43345  -0.43177  -0.43148  -0.43025  -0.42734
 Alpha  occ. eigenvalues --   -0.42467  -0.42224  -0.42118  -0.41817  -0.41392
 Alpha  occ. eigenvalues --   -0.41187  -0.41036  -0.40745  -0.40462  -0.40385
 Alpha  occ. eigenvalues --   -0.40033  -0.39967  -0.39766  -0.39597  -0.39432
 Alpha  occ. eigenvalues --   -0.39301  -0.39014  -0.38798  -0.38533  -0.38409
 Alpha  occ. eigenvalues --   -0.38336  -0.38172  -0.38141  -0.38019  -0.37799
 Alpha  occ. eigenvalues --   -0.37582  -0.37261  -0.37185  -0.37036  -0.36942
 Alpha  occ. eigenvalues --   -0.36727  -0.36341  -0.36088  -0.35507  -0.35440
 Alpha  occ. eigenvalues --   -0.35336  -0.35271  -0.34902  -0.34679  -0.34293
 Alpha  occ. eigenvalues --   -0.34269  -0.34071  -0.33884  -0.33844  -0.33683
 Alpha  occ. eigenvalues --   -0.33507  -0.33400  -0.32986  -0.32744  -0.32496
 Alpha  occ. eigenvalues --   -0.32215  -0.31891  -0.31681  -0.31306  -0.31252
 Alpha  occ. eigenvalues --   -0.30722  -0.30409  -0.30308  -0.30050  -0.29896
 Alpha  occ. eigenvalues --   -0.29823  -0.29346  -0.28802  -0.28250  -0.28033
 Alpha  occ. eigenvalues --   -0.27823  -0.27680  -0.27379  -0.25902  -0.25221
 Alpha  occ. eigenvalues --   -0.24942  -0.24774  -0.24267  -0.22293  -0.19419
 Alpha  occ. eigenvalues --   -0.19063
 Alpha virt. eigenvalues --   -0.09928  -0.07775  -0.03966  -0.01559  -0.00595
 Alpha virt. eigenvalues --   -0.00503   0.00093   0.00647   0.01641   0.03920
 Alpha virt. eigenvalues --    0.03961   0.04268   0.04317   0.04676   0.04968

 Mulliken charges:
               1
     1  C   -0.076461
     2  C    0.009696
     3  C   -0.020123
     4  C   -0.069685
     5  N   -0.246176
     6  C   -0.014003
     7  C   -0.051471
     8  C    0.032848
     9  C    0.002415
    10  C   -0.018230
    11  C    0.103138
    12  C    0.033526
    13  C    0.153381
    14  O   -0.204052
    15  O   -0.313573
    16  N   -0.006228
    17  C    0.079689
    18  C   -0.112934
    19  C   -0.023662
    20  C    0.128653
    21  C    0.026908
    22  C   -0.046246
    23  C   -0.060216
    24  N   -0.239043
    25  C    0.054715
    26  C   -0.167713
    27  C   -0.086784
    28  C    0.079326
    29  C    0.070913
    30  C    0.149521
    31  C   -0.089156
    32  N    0.052998
    33  C    0.053246
    34  C   -0.109401
    35  C   -0.067484
    36  C    0.095268
    37  C    0.024365
    38  C    0.075459
    39  O   -0.157290
    40  C   -0.078668
    41  C    0.197654
    42  O   -0.218567
    43  O   -0.290943
    44  C    0.179867
    45  C    0.212717
    46  C   -0.037680
    47  C   -0.141879
    48  C    0.068506
    49  C    0.085488
    50  C   -0.023045
    51  C   -0.063977
    52  C   -0.066015
    53  C    0.211185
    54  C    0.002980
    55  C    0.010484
    56  C    0.147640
    57  C   -0.109861
    58  C    0.106946
    59  C    0.013685
    60  C   -0.036945
    61  C    0.134259
    62  C   -0.087399
    63  C   -0.001435
    64  C   -0.002080
    65  H   -0.144038
    66  H   -0.112443
    67  H   -0.020351
    68  H    0.043367
    69  H    0.024152
    70  H    0.043541
    71  H    0.032166
    72  H    0.053315
    73  H   -0.048832
    74  H    0.000893
    75  H    0.037224
    76  H    0.037684
    77  H    0.044748
    78  H    0.039004
    79  H    0.046462
    80  H    0.037651
    81  H    0.079910
    82  H    0.048511
    83  H    0.042180
    84  H    0.034320
    85  H    0.031467
    86  H   -0.008455
    87  H   -0.017841
    88  H   -0.002643
    89  H    0.024090
    90  H    0.041540
    91  H    0.032225
    92  H    0.041213
    93  H    0.052136
    94  H    0.103520
    95  H    0.023584
    96  H    0.009436
    97  H    0.048323
    98  H    0.024920
    99  H    0.027071
   100  H   -0.028613
   101  H    0.017098
   102  H    0.027518
   103  H   -0.001375
   104  H    0.016233
   105  H    0.006781
   106  H    0.001566
   107  H    0.008680
   108  H    0.001887
   109  H   -0.001674
   110  H   -0.019365
   111  H   -0.056178
   112  H   -0.037788
   113  H   -0.018131
   114  H    0.028977
   115  H    0.021141
   116  H   -0.027640
   117  H   -0.035048
   118  H   -0.097569
   119  H   -0.014077
   120  H   -0.001864
   121  H   -0.006973
   122  H    0.009670
   123  H   -0.044592
   124  H   -0.003696
   125  H    0.009565
   126  H    0.015813
   127  H    0.008543
   128  H   -0.019749
   129  H   -0.040753
   130  H   -0.006741
   131  H    0.006262
   132  H    0.003809
   133  H    0.020100
   134  H    0.003279
   135  H    0.024140
   136  H   -0.007111
   137  H    0.075973
   138  H    0.152799
 Sum of Mulliken charges =   0.00000

 Dipole moment (field-independent basis, Debye):
    X=              2.3017    Y=              4.7504    Z=             -0.1455  Tot=              5.2807
 Quadrupole moment (field-independent basis, Debye-Ang):
   XX=           -359.4526   YY=           -383.9095   ZZ=           -393.0475
   XY=            -29.1929   XZ=              5.1673   YZ=              5.2998

 Normal termination of Gaussian 09 at Sun Aug  4 18:48:05 2019.
