 Gaussian 09, Revision D.01,
 Gaussian 09:  ES64L-G09RevD.01 24-Apr-2013

 --------------------------
 # td=(NStates=1) B3LYP/SVP
 --------------------------

 --
 TD
 --
 Symbolic Z-matrix:
 Charge =  0 Multiplicity = 1

                         Standard orientation:
 ---------------------------------------------------------------------
 Center     Atomic      Atomic             Coordinates (Angstroms)
 Number     Number       Type             X           Y           Z
 ---------------------------------------------------------------------
      1          6           0       -5.150205   -1.925453    0.500272
      2          6           0       -4.773791    2.704510    1.579590
      3          6           0       -9.369607    3.415632   -0.216044
      4          6           0       -9.864907   -1.380008   -0.960225
      5          7           0       -5.189325    0.412526    0.811243
      6          6           0       -4.557710   -0.745886    0.845676
      7          6           0       -3.100355   -0.580907    1.371566
      8          6           0       -3.124857    0.742938    2.041826
      9          6           0       -4.495482    1.307175    1.513619
     10          6           0       -3.081510    0.774676    3.463272
     11          6           0       -2.070340   -0.777648    0.243799
     12          6           0       -0.592952   -0.914160    0.587584
     13          6           0        0.424893   -1.088930   -0.428458
     14          8           0        0.104571   -1.249219   -1.632348
     15          8           0        1.763611   -1.145210   -0.062696
     16          7           0       -7.032485    2.736874    0.484691
     17          6           0       -5.876411    3.352533    1.145365
     18          6           0       -6.175341    4.719249    1.115791
     19          6           0       -7.430840    4.951200    0.532646
     20          6           0       -7.970397    3.630086    0.274300
     21          6           0       -5.187770    5.754499    1.419079
     22          6           0       -7.973440    6.314287    0.378756
     23          6           0       -8.960397    6.702211   -0.500721
     24          7           0       -9.225526    0.919455   -0.383653
     25          6           0       -9.826914    2.117130   -0.481389
     26          6           0      -11.243083    1.982000   -0.951330
     27          6           0      -11.486706    0.635533   -1.212084
     28          6           0      -10.147746   -0.037687   -0.923097
     29          6           0      -12.283838    3.134555   -1.116611
     30          6           0      -12.576493   -0.135896   -1.749741
     31          6           0      -12.707575   -0.395768   -3.331498
     32          7           0       -7.569590   -1.269402   -0.287251
     33          6           0       -8.668390   -1.944455   -0.535956
     34          6           0       -8.304449   -3.353083   -0.701293
     35          6           0       -6.885736   -3.356580   -0.275728
     36          6           0       -6.488084   -2.024464    0.055716
     37          6           0       -9.218239   -4.427239   -1.162027
     38          6           0       -5.858746   -4.187355   -0.037181
     39          8           0       -5.714635   -5.436771   -0.063424
     40          6           0       -4.587842   -3.294135    0.392104
     41          6           0       -3.923539   -3.884166    1.733155
     42          8           0       -4.192675   -3.522291    2.858619
     43          8           0       -3.186857   -4.937401    1.340759
     44          6           0       -2.795005   -5.754135    2.560084
     45          6           0        2.729537   -1.220273   -1.122589
     46          6           0        3.980438   -0.660610   -0.659053
     47          6           0        4.954743    0.122581   -1.191314
     48          6           0        4.674945    0.881494   -2.413859
     49          6           0        6.273163    0.334142   -0.441056
     50          6           0        7.515958   -0.363005   -1.047255
     51          6           0        8.809701   -0.046221   -0.326810
     52          6           0       10.100267   -0.566719   -0.879854
     53          6           0       10.150211   -2.120430   -1.212122
     54          6           0       11.330589   -0.231898   -0.057193
     55          6           0       12.708332   -0.471653   -0.717859
     56          6           0       13.925943   -0.036633    0.156743
     57          6           0       15.321461   -0.143084   -0.347435
     58          6           0       15.672169   -1.674238   -0.467993
     59          6           0       16.312595    0.754650    0.413448
     60          6           0       17.749267    0.548528   -0.086529
     61          6           0       18.667692    1.572140    0.567435
     62          6           0       20.107625    1.557446    0.252027
     63          6           0       20.376386    2.139062   -1.188685
     64          6           0       20.928835    2.402232    1.304479
     65          1           0       -3.816264    3.252706    1.946292
     66          1           0      -10.100055    4.120032   -0.444168
     67          1           0      -10.720638   -2.296573   -1.046816
     68          1           0       -3.174230   -1.401493    2.183617
     69          1           0       -2.277432    1.466791    1.787773
     70          1           0       -1.972782    0.526539    3.715713
     71          1           0       -3.575272    1.571344    4.021983
     72          1           0       -3.564560   -0.176861    3.947896
     73          1           0       -2.287349   -1.791563   -0.314778
     74          1           0       -1.988231   -0.077073   -0.614497
     75          1           0       -0.112609    0.001969    1.137513
     76          1           0       -0.312250   -1.661404    1.388514
     77          1           0       -4.158174    5.695130    0.670238
     78          1           0       -5.518680    6.480464    1.458259
     79          1           0       -4.945820    5.572880    2.524260
     80          1           0       -7.596815    7.171887    1.049802
     81          1           0       -9.393810    6.120268   -1.383884
     82          1           0       -9.343954    7.552423   -0.513410
     83          1           0      -12.481274    3.617390   -0.189183
     84          1           0      -11.908807    4.028872   -1.695840
     85          1           0      -13.249691    2.796318   -1.408104
     86          1           0      -12.630209   -1.154082   -1.301422
     87          1           0      -13.478820    0.357911   -1.384074
     88          1           0      -12.671388    0.558359   -3.891366
     89          1           0      -11.800986   -0.879296   -3.741800
     90          1           0      -13.600423   -0.979206   -3.599535
     91          1           0      -10.214940   -4.261532   -0.753827
     92          1           0       -9.295152   -4.621744   -2.288410
     93          1           0       -8.743019   -5.529641   -0.896132
     94          1           0       -3.767181   -3.476507   -0.438126
     95          1           0       -2.222252   -6.756697    2.107737
     96          1           0       -2.195623   -5.369602    3.404181
     97          1           0       -3.549483   -6.123556    3.295347
     98          1           0        2.702238   -2.367058   -1.212452
     99          1           0        2.299286   -0.856819   -2.128005
    100          1           0        4.230604   -1.284532    0.368792
    101          1           0        5.192212    2.029285   -2.206362
    102          1           0        5.175243    0.541286   -3.262246
    103          1           0        3.450103    1.229235   -2.753357
    104          1           0        6.690323    1.267777   -0.460537
    105          1           0        6.399476   -0.045029    0.702688
    106          1           0        7.370094   -1.443930   -1.093025
    107          1           0        7.583845   -0.155486   -2.115153
    108          1           0        8.942407    0.928000   -0.266186
    109          1           0        8.810194   -0.633469    0.576899
    110          1           0       10.305919   -0.060289   -1.974559
    111          1           0        9.539041   -2.495520   -1.978328
    112          1           0       11.216368   -2.314045   -1.503868
    113          1           0        9.802310   -2.705179   -0.231070
    114          1           0       11.360440    0.767536    0.419562
    115          1           0       11.391679   -1.030454    0.959102
    116          1           0       12.986265   -1.532210   -1.056331
    117          1           0       12.664919    0.342545   -1.636040
    118          1           0       13.889634    0.969340    0.417165
    119          1           0       13.720636   -0.666425    0.978941
    120          1           0       15.244722    0.226164   -1.403791
    121          1           0       15.075937   -2.332763   -1.202057
    122          1           0       16.727561   -1.649627   -0.824418
    123          1           0       15.558243   -1.971804    0.717318
    124          1           0       15.868415    1.601964    0.319760
    125          1           0       16.181571    0.343784    1.442336
    126          1           0       18.121383   -0.520828    0.021614
    127          1           0       17.826050    0.947746   -1.017827
    128          1           0       18.357076    2.569078    0.442768
    129          1           0       18.545265    1.527958    1.765952
    130          1           0       20.647089    0.508375    0.262047
    131          1           0       19.887195    3.178803   -1.328353
    132          1           0       21.417130    1.932306   -1.414494
    133          1           0       19.840011    1.375727   -1.985801
    134          1           0       21.078102    1.656697    2.198074
    135          1           0       21.921263    2.690306    0.818275
    136          1           0       20.437454    3.369347    1.285449
    137          1           0       -7.003978    1.798773    0.071574
    138          1           0       -7.595528   -0.186683    0.417647
 ---------------------------------------------------------------------

 SCF Done:  E(RB3LYP) =  -2732.87726466     A.U. after   17 cycles

 Excitation energies and oscillator strengths:

 Excited State   1:      Singlet-A      1.9648 eV  631.01 nm  f=0.1976  <S**2>=0.000
     235 -> 238        0.25417
     236 -> 237        0.64600
 This state for optimization and/or second-order correction.
 Total Energy, E(TD-HF/TD-KS) =  -2732.80505810
 Copying the excited state density for this state as the 1-particle RhoCI density.

 The electronic state is 1-A.
 Alpha  occ. eigenvalues --  -19.19452 -19.17052 -19.13083 -19.11391 -19.09970
 Alpha  occ. eigenvalues --  -14.37411 -14.37397 -14.32931 -14.30503 -10.31951
 Alpha  occ. eigenvalues --  -10.31506 -10.25929 -10.25750 -10.25113 -10.24860
 Alpha  occ. eigenvalues --  -10.23981 -10.23470 -10.23268 -10.22917 -10.22710
 Alpha  occ. eigenvalues --  -10.22196 -10.22156 -10.22033 -10.21843 -10.21703
 Alpha  occ. eigenvalues --  -10.21495 -10.21383 -10.21327 -10.21128 -10.21118
 Alpha  occ. eigenvalues --  -10.21036 -10.20925 -10.20837 -10.20764 -10.20306
 Alpha  occ. eigenvalues --  -10.20270 -10.20260 -10.20230 -10.20196 -10.20090
 Alpha  occ. eigenvalues --  -10.19993 -10.19790 -10.19742 -10.19706 -10.19516
 Alpha  occ. eigenvalues --  -10.19506 -10.19410 -10.19339 -10.19309 -10.19295
 Alpha  occ. eigenvalues --  -10.19210 -10.19173 -10.19089 -10.18955 -10.18822
 Alpha  occ. eigenvalues --  -10.18473 -10.18465 -10.18233 -10.18228 -10.18045
 Alpha  occ. eigenvalues --  -10.17920 -10.17406 -10.17169 -10.16450  -1.08880
 Alpha  occ. eigenvalues --   -1.07426  -1.00704  -0.99271  -0.98513  -0.98165
 Alpha  occ. eigenvalues --   -0.98114  -0.96329  -0.92004  -0.85406  -0.83009
 Alpha  occ. eigenvalues --   -0.82983  -0.82595  -0.82208  -0.81267  -0.80978
 Alpha  occ. eigenvalues --   -0.80269  -0.79751  -0.79262  -0.79034  -0.78457
 Alpha  occ. eigenvalues --   -0.77136  -0.76668  -0.75304  -0.75181  -0.74363
 Alpha  occ. eigenvalues --   -0.73463  -0.73088  -0.72828  -0.72145  -0.71643
 Alpha  occ. eigenvalues --   -0.70836  -0.69097  -0.68514  -0.67984  -0.67748
 Alpha  occ. eigenvalues --   -0.67244  -0.66332  -0.66305  -0.66187  -0.65554
 Alpha  occ. eigenvalues --   -0.63927  -0.63380  -0.63019  -0.62535  -0.62143
 Alpha  occ. eigenvalues --   -0.61665  -0.59883  -0.58636  -0.58256  -0.57654
 Alpha  occ. eigenvalues --   -0.57199  -0.56396  -0.55757  -0.54948  -0.54679
 Alpha  occ. eigenvalues --   -0.54575  -0.54167  -0.53649  -0.53543  -0.52876
 Alpha  occ. eigenvalues --   -0.52401  -0.52116  -0.51368  -0.50413  -0.49926
 Alpha  occ. eigenvalues --   -0.49691  -0.49217  -0.49084  -0.48938  -0.48808
 Alpha  occ. eigenvalues --   -0.48079  -0.47976  -0.47683  -0.47211  -0.47096
 Alpha  occ. eigenvalues --   -0.46731  -0.46661  -0.46330  -0.46155  -0.45864
 Alpha  occ. eigenvalues --   -0.45588  -0.45374  -0.44951  -0.44686  -0.44404
 Alpha  occ. eigenvalues --   -0.44263  -0.43755  -0.43685  -0.43500  -0.43366
 Alpha  occ. eigenvalues --   -0.43176  -0.42907  -0.42850  -0.42742  -0.42369
 Alpha  occ. eigenvalues --   -0.42158  -0.42085  -0.41921  -0.41619  -0.41440
 Alpha  occ. eigenvalues --   -0.41339  -0.41165  -0.40914  -0.40602  -0.40378
 Alpha  occ. eigenvalues --   -0.40354  -0.40194  -0.40064  -0.39694  -0.39305
 Alpha  occ. eigenvalues --   -0.38564  -0.38468  -0.38402  -0.38341  -0.38247
 Alpha  occ. eigenvalues --   -0.38019  -0.37956  -0.37889  -0.37631  -0.37484
 Alpha  occ. eigenvalues --   -0.37390  -0.37326  -0.36980  -0.36870  -0.36842
 Alpha  occ. eigenvalues --   -0.36690  -0.36505  -0.36201  -0.35842  -0.35795
 Alpha  occ. eigenvalues --   -0.35663  -0.35601  -0.35546  -0.35103  -0.35084
 Alpha  occ. eigenvalues --   -0.34668  -0.34137  -0.34072  -0.33871  -0.33444
 Alpha  occ. eigenvalues --   -0.33221  -0.33074  -0.32698  -0.32508  -0.32348
 Alpha  occ. eigenvalues --   -0.31903  -0.31830  -0.31592  -0.31486  -0.30915
 Alpha  occ. eigenvalues --   -0.30889  -0.30828  -0.30603  -0.30340  -0.29394
 Alpha  occ. eigenvalues --   -0.29091  -0.29062  -0.28770  -0.28758  -0.28253
 Alpha  occ. eigenvalues --   -0.27672  -0.26677  -0.26568  -0.25851  -0.25031
 Alpha  occ. eigenvalues --   -0.24892  -0.23857  -0.23296  -0.22817  -0.20212
 Alpha  occ. eigenvalues --   -0.19083
 Alpha virt. eigenvalues --   -0.11043  -0.07768  -0.05081  -0.02644  -0.01844
 Alpha virt. eigenvalues --   -0.00864  -0.00101   0.00267   0.01691   0.02905
 Alpha virt. eigenvalues --    0.03838   0.03976   0.04101   0.04419   0.04527

 Mulliken charges:
               1
     1  C    0.063693
     2  C   -0.126950
     3  C   -0.041637
     4  C   -0.127898
     5  N   -0.128531
     6  C   -0.148889
     7  C    0.036384
     8  C   -0.058783
     9  C   -0.035630
    10  C    0.020895
    11  C    0.088682
    12  C    0.014504
    13  C    0.168309
    14  O   -0.285974
    15  O   -0.345469
    16  N   -0.084987
    17  C    0.197641
    18  C   -0.193282
    19  C    0.050949
    20  C    0.094317
    21  C    0.380366
    22  C   -0.086095
    23  C    0.028354
    24  N   -0.264656
    25  C    0.076493
    26  C   -0.169354
    27  C   -0.055180
    28  C    0.095046
    29  C    0.130727
    30  C    0.054920
    31  C    0.009090
    32  N   -0.086957
    33  C    0.011182
    34  C   -0.072777
    35  C    0.082405
    36  C    0.053744
    37  C    0.012161
    38  C   -0.027376
    39  O   -0.229647
    40  C   -0.121454
    41  C    0.219505
    42  O   -0.232041
    43  O   -0.274673
    44  C    0.130616
    45  C    0.227164
    46  C   -0.098847
    47  C   -0.052617
    48  C   -0.034317
    49  C    0.107014
    50  C   -0.011411
    51  C    0.156035
    52  C   -0.110952
    53  C    0.017390
    54  C   -0.021277
    55  C   -0.043794
    56  C    0.096609
    57  C   -0.115442
    58  C   -0.039106
    59  C    0.125929
    60  C    0.122963
    61  C    0.021577
    62  C   -0.152131
    63  C   -0.022353
    64  C    0.033892
    65  H    0.017961
    66  H   -0.071305
    67  H    0.038726
    68  H    0.038506
    69  H    0.011194
    70  H    0.016877
    71  H    0.022820
    72  H    0.019366
    73  H    0.030584
    74  H    0.023207
    75  H    0.027568
    76  H    0.032784
    77  H    0.061722
    78  H   -0.240753
    79  H    0.012799
    80  H    0.034689
    81  H    0.038006
    82  H   -0.053179
    83  H    0.000653
    84  H    0.022167
    85  H    0.000944
    86  H   -0.002063
    87  H   -0.005676
    88  H    0.009548
    89  H    0.011928
    90  H    0.024075
    91  H    0.036110
    92  H    0.047703
    93  H    0.061207
    94  H    0.085337
    95  H    0.061594
    96  H    0.030458
    97  H    0.039025
    98  H    0.024903
    99  H    0.040335
   100  H    0.014972
   101  H    0.025467
   102  H    0.025455
   103  H    0.066865
   104  H   -0.037361
   105  H    0.021843
   106  H   -0.015839
   107  H   -0.022712
   108  H   -0.046328
   109  H   -0.010528
   110  H   -0.006693
   111  H    0.002191
   112  H    0.010347
   113  H    0.013297
   114  H    0.002907
   115  H   -0.002601
   116  H    0.031597
   117  H    0.000456
   118  H   -0.043233
   119  H   -0.033404
   120  H   -0.023536
   121  H    0.039000
   122  H    0.013063
   123  H    0.021383
   124  H   -0.059061
   125  H   -0.007263
   126  H    0.029365
   127  H   -0.040797
   128  H   -0.034702
   129  H   -0.017435
   130  H   -0.002278
   131  H    0.029215
   132  H    0.015443
   133  H    0.015715
   134  H    0.047313
   135  H   -0.000968
   136  H   -0.000741
   137  H    0.154083
   138  H    0.247619
 Sum of Mulliken charges =   0.00000

 Dipole moment (field-independent basis, Debye):
    X=              1.4052    Y=              5.6340    Z=              0.7628  Tot=              5.8565
 Quadrupole moment (field-independent basis, Debye-Ang):
   XX=           -333.4638   YY=           -382.5997   ZZ=           -396.8637
   XY=            -24.3609   XZ=              1.0775   YZ=             -2.4292

 Normal termination of Gaussian 09 at Sun Aug  4 22:28:40 2019.
