 Gaussian 09, Revision D.01,
 Gaussian 09:  ES64L-G09RevD.01 24-Apr-2013

 --------------------------
 # td=(NStates=1) B3LYP/SVP
 --------------------------

 --
 TD
 --
 Symbolic Z-matrix:
 Charge =  0 Multiplicity = 1

                         Standard orientation:
 ---------------------------------------------------------------------
 Center     Atomic      Atomic             Coordinates (Angstroms)
 Number     Number       Type             X           Y           Z
 ---------------------------------------------------------------------
      1          6           0       -5.173576   -1.975792    0.394142
      2          6           0       -4.781264    2.658312    1.420531
      3          6           0       -9.296976    3.382778   -0.246030
      4          6           0       -9.839849   -1.298131   -0.998483
      5          7           0       -5.217208    0.356254    0.768118
      6          6           0       -4.508548   -0.846244    0.785502
      7          6           0       -3.110847   -0.660730    1.175420
      8          6           0       -3.104557    0.839171    1.686673
      9          6           0       -4.500619    1.308192    1.229356
     10          6           0       -3.071455    0.841815    3.229408
     11          6           0       -2.056926   -0.847779    0.024272
     12          6           0       -0.521062   -0.941826    0.563806
     13          6           0        0.386122   -1.152458   -0.483994
     14          8           0        0.055603   -1.568280   -1.563468
     15          8           0        1.609255   -1.027035   -0.103367
     16          7           0       -7.003192    2.863370    0.383143
     17          6           0       -5.885446    3.369041    0.989687
     18          6           0       -6.188208    4.785331    1.087739
     19          6           0       -7.415265    5.018324    0.586858
     20          6           0       -8.097000    3.742135    0.149732
     21          6           0       -5.238652    5.869348    1.577213
     22          6           0       -8.074024    6.346246    0.565882
     23          6           0       -9.110953    6.738567   -0.266287
     24          7           0       -9.220249    0.977321   -0.507621
     25          6           0       -9.783138    2.117132   -0.525021
     26          6           0      -11.144640    2.043050   -0.961155
     27          6           0      -11.333194    0.696560   -1.272005
     28          6           0      -10.141027    0.042000   -0.891076
     29          6           0      -12.141605    3.169291   -1.363681
     30          6           0      -12.662816    0.056243   -1.664783
     31          6           0      -12.576167   -0.355301   -3.221159
     32          7           0       -7.520132   -1.224277   -0.227409
     33          6           0       -8.548410   -1.931476   -0.716724
     34          6           0       -8.230027   -3.299799   -0.752431
     35          6           0       -6.859199   -3.335314   -0.465288
     36          6           0       -6.482801   -2.025105   -0.026347
     37          6           0       -9.149811   -4.501477   -0.999899
     38          6           0       -5.792918   -4.323727   -0.140769
     39          8           0       -5.729705   -5.479671   -0.278502
     40          6           0       -4.617891   -3.330512    0.431854
     41          6           0       -4.104502   -3.805494    1.776249
     42          8           0       -4.458300   -3.425855    2.836773
     43          8           0       -3.182185   -4.846433    1.658102
     44          6           0       -2.856023   -5.563809    2.767970
     45          6           0        2.712471   -1.191960   -1.047601
     46          6           0        4.012926   -0.811919   -0.281290
     47          6           0        5.053442   -0.087713   -0.886404
     48          6           0        5.167052    0.476555   -2.288454
     49          6           0        6.321351   -0.041224   -0.062218
     50          6           0        7.529076   -0.610838   -0.790329
     51          6           0        8.819816   -0.345833   -0.009820
     52          6           0       10.134773   -0.795021   -0.777562
     53          6           0       10.153018   -2.277558   -0.946030
     54          6           0       11.391907   -0.413034    0.074159
     55          6           0       12.784618   -0.519867   -0.544825
     56          6           0       13.870131   -0.042912    0.192594
     57          6           0       15.244497   -0.215788   -0.404503
     58          6           0       15.687027   -1.675547   -0.382512
     59          6           0       16.284469    0.666531    0.362404
     60          6           0       17.700054    0.781832   -0.316401
     61          6           0       18.660551    1.744509    0.438749
     62          6           0       20.144614    1.887750    0.036951
     63          6           0       20.156571    2.513357   -1.383541
     64          6           0       20.901526    2.733210    0.990473
     65          1           0       -3.935036    3.395005    1.764179
     66          1           0       -9.984658    4.257355   -0.388975
     67          1           0      -10.708575   -1.827891   -1.132524
     68          1           0       -2.857985   -1.520769    1.808353
     69          1           0       -2.207315    1.361373    1.180553
     70          1           0       -2.027402    0.590937    3.549435
     71          1           0       -3.501033    1.885441    3.655730
     72          1           0       -3.861752    0.067920    3.444562
     73          1           0       -2.398761   -1.723831   -0.360713
     74          1           0       -2.120530   -0.072521   -0.783868
     75          1           0       -0.223262   -0.016038    1.291438
     76          1           0       -0.561615   -1.764534    1.408455
     77          1           0       -4.362726    5.748379    0.891607
     78          1           0       -5.552012    6.819343    1.604516
     79          1           0       -4.777299    5.500031    2.535621
     80          1           0       -7.854809    7.027418    1.431617
     81          1           0       -9.278753    6.069364   -0.995666
     82          1           0       -9.566247    7.761991   -0.151262
     83          1           0      -12.501268    3.742865   -0.443233
     84          1           0      -11.598428    3.731675   -2.057528
     85          1           0      -13.080009    2.906657   -1.849549
     86          1           0      -12.683946   -0.946194   -1.005500
     87          1           0      -13.362960    0.535144   -1.594067
     88          1           0      -12.575448    0.732441   -3.670989
     89          1           0      -11.656314   -1.089430   -3.457486
     90          1           0      -13.538544   -0.938617   -3.593838
     91          1           0       -9.870098   -4.505951   -0.153093
     92          1           0       -9.826635   -4.563999   -1.913572
     93          1           0       -8.373397   -5.438511   -1.143165
     94          1           0       -3.841913   -3.614836   -0.312563
     95          1           0       -2.276168   -6.436336    2.374482
     96          1           0       -2.409651   -5.122396    3.417078
     97          1           0       -3.832480   -6.018383    3.360522
     98          1           0        2.607445   -2.144131   -1.269735
     99          1           0        2.280627   -0.613749   -1.954881
    100          1           0        4.010334   -1.116672    0.895704
    101          1           0        5.740581    1.426621   -2.342712
    102          1           0        5.572273   -0.368054   -2.849323
    103          1           0        4.220146    0.707511   -2.908535
    104          1           0        6.385570    1.115508   -0.003421
    105          1           0        6.179158   -0.468119    0.826346
    106          1           0        7.568425   -1.720286   -0.688684
    107          1           0        7.749212   -0.232290   -1.725524
    108          1           0        9.041622    0.643325    0.149522
    109          1           0        8.871777   -0.956296    0.888703
    110          1           0       10.046703   -0.307292   -1.826156
    111          1           0        9.323100   -2.579367   -1.652206
    112          1           0       11.092500   -2.667571   -1.426623
    113          1           0        9.936106   -2.936894   -0.022193
    114          1           0       11.326971    0.601326    0.370294
    115          1           0       11.308734   -1.035916    0.993234
    116          1           0       12.909469   -1.639957   -0.559720
    117          1           0       12.611596   -0.120476   -1.572510
    118          1           0       13.652963    1.078356    0.442657
    119          1           0       13.881694   -0.592571    1.288446
    120          1           0       15.181542    0.111096   -1.470676
    121          1           0       15.055264   -2.230692   -0.991362
    122          1           0       16.653427   -1.739036   -0.837212
    123          1           0       15.781234   -1.944650    0.746413
    124          1           0       15.742701    1.686471    0.448336
    125          1           0       16.411991    0.039754    1.209258
    126          1           0       18.217082   -0.220148   -0.226897
    127          1           0       17.541982    1.207554   -1.367458
    128          1           0       18.087174    2.495821    0.538114
    129          1           0       18.818678    1.300923    1.570383
    130          1           0       20.734003    0.979840   -0.097388
    131          1           0       19.536199    3.612052   -1.447435
    132          1           0       21.097652    2.483547   -1.769746
    133          1           0       19.598916    1.720263   -2.016650
    134          1           0       20.870168    2.189608    2.021140
    135          1           0       21.999800    2.992535    0.617565
    136          1           0       20.422438    3.681304    0.986492
    137          1           0       -7.025436    1.732841    0.594178
    138          1           0       -7.766378   -0.354230   -0.106252
 ---------------------------------------------------------------------

 SCF Done:  E(RB3LYP) =  -2733.01212253     A.U. after   17 cycles

 Excitation energies and oscillator strengths:

 Excited State   1:      Singlet-A      2.2733 eV  545.38 nm  f=0.1640  <S**2>=0.000
     235 -> 238        0.31515
     236 -> 237        0.62069
 This state for optimization and/or second-order correction.
 Total Energy, E(TD-HF/TD-KS) =  -2732.92857849
 Copying the excited state density for this state as the 1-particle RhoCI density.

 The electronic state is 1-A.
 Alpha  occ. eigenvalues --  -19.16568 -19.16566 -19.13239 -19.12752 -19.10570
 Alpha  occ. eigenvalues --  -14.36605 -14.36387 -14.32007 -14.28858 -10.31438
 Alpha  occ. eigenvalues --  -10.29787 -10.28351 -10.24557 -10.23983 -10.23862
 Alpha  occ. eigenvalues --  -10.23179 -10.22806 -10.22773 -10.22763 -10.22396
 Alpha  occ. eigenvalues --  -10.21427 -10.21357 -10.21072 -10.20969 -10.20952
 Alpha  occ. eigenvalues --  -10.20944 -10.20831 -10.20824 -10.20711 -10.20690
 Alpha  occ. eigenvalues --  -10.20579 -10.20476 -10.20387 -10.20286 -10.20233
 Alpha  occ. eigenvalues --  -10.19945 -10.19863 -10.19778 -10.19759 -10.19676
 Alpha  occ. eigenvalues --  -10.19600 -10.19488 -10.19226 -10.19187 -10.19184
 Alpha  occ. eigenvalues --  -10.19046 -10.19015 -10.18878 -10.18755 -10.18562
 Alpha  occ. eigenvalues --  -10.18554 -10.18537 -10.18519 -10.18516 -10.18510
 Alpha  occ. eigenvalues --  -10.18412 -10.18321 -10.17893 -10.17784 -10.17738
 Alpha  occ. eigenvalues --  -10.17733 -10.17699 -10.17468 -10.17454  -1.10499
 Alpha  occ. eigenvalues --   -1.09643  -1.05976  -1.01815  -1.01090  -1.00054
 Alpha  occ. eigenvalues --   -0.96956  -0.95769  -0.95346  -0.85980  -0.83338
 Alpha  occ. eigenvalues --   -0.82653  -0.81850  -0.81346  -0.81146  -0.80813
 Alpha  occ. eigenvalues --   -0.80527  -0.80279  -0.79403  -0.78858  -0.78147
 Alpha  occ. eigenvalues --   -0.77156  -0.76877  -0.75811  -0.74875  -0.74457
 Alpha  occ. eigenvalues --   -0.73957  -0.73546  -0.72989  -0.72465  -0.70427
 Alpha  occ. eigenvalues --   -0.70303  -0.69873  -0.68986  -0.68560  -0.67789
 Alpha  occ. eigenvalues --   -0.67343  -0.66985  -0.66716  -0.66498  -0.65508
 Alpha  occ. eigenvalues --   -0.64406  -0.64087  -0.62489  -0.61733  -0.61258
 Alpha  occ. eigenvalues --   -0.61115  -0.59225  -0.58915  -0.58534  -0.57931
 Alpha  occ. eigenvalues --   -0.56906  -0.56295  -0.55771  -0.55666  -0.55428
 Alpha  occ. eigenvalues --   -0.55310  -0.55200  -0.54345  -0.54059  -0.53269
 Alpha  occ. eigenvalues --   -0.53000  -0.52400  -0.52129  -0.51589  -0.51057
 Alpha  occ. eigenvalues --   -0.50303  -0.49898  -0.49386  -0.49093  -0.48717
 Alpha  occ. eigenvalues --   -0.48454  -0.48017  -0.47682  -0.47551  -0.46839
 Alpha  occ. eigenvalues --   -0.46706  -0.46610  -0.46392  -0.46283  -0.46098
 Alpha  occ. eigenvalues --   -0.45837  -0.45467  -0.45037  -0.44993  -0.44781
 Alpha  occ. eigenvalues --   -0.44668  -0.44457  -0.44230  -0.44080  -0.43806
 Alpha  occ. eigenvalues --   -0.43747  -0.43681  -0.43490  -0.43354  -0.43140
 Alpha  occ. eigenvalues --   -0.42922  -0.42257  -0.42146  -0.41704  -0.41495
 Alpha  occ. eigenvalues --   -0.41391  -0.41131  -0.41003  -0.40953  -0.40872
 Alpha  occ. eigenvalues --   -0.40482  -0.40282  -0.40020  -0.39842  -0.39694
 Alpha  occ. eigenvalues --   -0.39483  -0.39404  -0.39299  -0.39058  -0.38703
 Alpha  occ. eigenvalues --   -0.38494  -0.38387  -0.38258  -0.38000  -0.37898
 Alpha  occ. eigenvalues --   -0.37689  -0.37589  -0.37346  -0.36993  -0.36959
 Alpha  occ. eigenvalues --   -0.36449  -0.36244  -0.35940  -0.35621  -0.35388
 Alpha  occ. eigenvalues --   -0.35299  -0.35182  -0.35056  -0.35023  -0.34916
 Alpha  occ. eigenvalues --   -0.34704  -0.34651  -0.34524  -0.34346  -0.34141
 Alpha  occ. eigenvalues --   -0.33715  -0.33299  -0.33189  -0.32929  -0.32515
 Alpha  occ. eigenvalues --   -0.32503  -0.32397  -0.32288  -0.31632  -0.30967
 Alpha  occ. eigenvalues --   -0.30732  -0.30611  -0.30581  -0.29922  -0.29649
 Alpha  occ. eigenvalues --   -0.29638  -0.29272  -0.29010  -0.28804  -0.27819
 Alpha  occ. eigenvalues --   -0.27139  -0.26831  -0.26706  -0.26536  -0.26114
 Alpha  occ. eigenvalues --   -0.25066  -0.24111  -0.23896  -0.22331  -0.20423
 Alpha  occ. eigenvalues --   -0.19275
 Alpha virt. eigenvalues --   -0.09672  -0.07758  -0.04080  -0.01613  -0.00677
 Alpha virt. eigenvalues --   -0.00168   0.00106   0.01162   0.02427   0.03925
 Alpha virt. eigenvalues --    0.04125   0.04286   0.04443   0.04835   0.05090

 Mulliken charges:
               1
     1  C    0.047302
     2  C   -0.089124
     3  C   -0.153940
     4  C    0.008702
     5  N   -0.141210
     6  C   -0.112151
     7  C   -0.024455
     8  C   -0.060491
     9  C   -0.004989
    10  C    0.023212
    11  C    0.106782
    12  C   -0.066888
    13  C    0.175689
    14  O   -0.250199
    15  O   -0.295628
    16  N   -0.193599
    17  C    0.067555
    18  C   -0.143295
    19  C    0.054737
    20  C    0.134991
    21  C    0.167419
    22  C   -0.118487
    23  C    0.019645
    24  N   -0.138630
    25  C    0.079052
    26  C   -0.186684
    27  C   -0.086586
    28  C    0.006616
    29  C    0.113890
    30  C    0.249041
    31  C   -0.105533
    32  N    0.174409
    33  C   -0.000435
    34  C   -0.117366
    35  C   -0.086697
    36  C    0.113098
    37  C    0.023676
    38  C    0.083332
    39  O   -0.102643
    40  C   -0.096433
    41  C    0.184542
    42  O   -0.182522
    43  O   -0.316233
    44  C    0.261487
    45  C    0.308152
    46  C   -0.134700
    47  C   -0.145786
    48  C    0.048526
    49  C    0.154637
    50  C    0.065707
    51  C    0.037546
    52  C   -0.111375
    53  C   -0.010023
    54  C    0.037892
    55  C    0.067934
    56  C   -0.003063
    57  C   -0.093089
    58  C    0.073316
    59  C    0.036735
    60  C   -0.000282
    61  C    0.064617
    62  C   -0.055662
    63  C   -0.000996
    64  C    0.030155
    65  H    0.008752
    66  H   -0.026475
    67  H   -0.065570
    68  H   -0.006454
    69  H    0.019136
    70  H    0.029303
    71  H    0.028576
    72  H    0.041978
    73  H   -0.028383
    74  H    0.014464
    75  H    0.041441
    76  H    0.053416
    77  H    0.024743
    78  H   -0.012168
    79  H    0.021470
    80  H    0.018412
    81  H   -0.004398
    82  H    0.041750
    83  H    0.027382
    84  H    0.016875
    85  H    0.005144
    86  H    0.020246
    87  H   -0.159619
    88  H    0.035332
    89  H    0.048851
    90  H    0.027008
    91  H    0.038765
    92  H    0.033186
    93  H    0.070663
    94  H    0.065425
    95  H    0.030155
    96  H   -0.067753
    97  H    0.016472
    98  H   -0.030692
    99  H    0.038813
   100  H    0.049446
   101  H    0.031030
   102  H    0.043956
   103  H    0.024481
   104  H    0.007832
   105  H   -0.050856
   106  H    0.008211
   107  H   -0.021373
   108  H   -0.032605
   109  H   -0.013607
   110  H   -0.002490
   111  H    0.005117
   112  H    0.016665
   113  H    0.012945
   114  H   -0.034832
   115  H   -0.011803
   116  H   -0.006318
   117  H   -0.004642
   118  H   -0.011787
   119  H   -0.004865
   120  H   -0.022776
   121  H   -0.005979
   122  H   -0.005567
   123  H    0.015160
   124  H    0.012800
   125  H   -0.020515
   126  H    0.009138
   127  H    0.015283
   128  H   -0.070457
   129  H   -0.012011
   130  H   -0.011519
   131  H    0.028349
   132  H   -0.018928
   133  H    0.010981
   134  H    0.023711
   135  H    0.014332
   136  H   -0.008861
   137  H    0.211991
   138  H    0.022915
 Sum of Mulliken charges =   0.00000

 Dipole moment (field-independent basis, Debye):
    X=              3.1409    Y=              4.5834    Z=              0.3860  Tot=              5.5698
 Quadrupole moment (field-independent basis, Debye-Ang):
   XX=           -348.2758   YY=           -384.4555   ZZ=           -398.9516
   XY=            -30.8161   XZ=             -2.8415   YZ=             -2.0692

 Normal termination of Gaussian 09 at Thu Jul 25 00:37:59 2019.
