 Gaussian 09, Revision D.01,
 Gaussian 09:  ES64L-G09RevD.01 24-Apr-2013

 --------------------------
 # td=(NStates=1) B3LYP/SVP
 --------------------------

 --
 TD
 --
 Symbolic Z-matrix:
 Charge =  0 Multiplicity = 1

                         Standard orientation:
 ---------------------------------------------------------------------
 Center     Atomic      Atomic             Coordinates (Angstroms)
 Number     Number       Type             X           Y           Z
 ---------------------------------------------------------------------
      1          6           0       -5.170837   -1.946432    0.455108
      2          6           0       -4.725633    2.759788    1.456963
      3          6           0       -9.231469    3.416459   -0.263149
      4          6           0       -9.740047   -1.424430   -1.030467
      5          7           0       -5.156120    0.478803    0.824395
      6          6           0       -4.570560   -0.751326    0.899919
      7          6           0       -3.116036   -0.671895    1.266780
      8          6           0       -3.138312    0.753662    1.971021
      9          6           0       -4.368947    1.398365    1.298706
     10          6           0       -3.043141    0.745303    3.479378
     11          6           0       -2.077034   -0.793119    0.135463
     12          6           0       -0.595496   -0.824324    0.696404
     13          6           0        0.388724   -1.192389   -0.414726
     14          8           0        0.103742   -1.624251   -1.463502
     15          8           0        1.602153   -0.976718    0.005871
     16          7           0       -7.034458    2.794094    0.545052
     17          6           0       -5.883113    3.485054    0.948300
     18          6           0       -6.173877    4.849563    1.027082
     19          6           0       -7.442136    5.008058    0.555323
     20          6           0       -7.942808    3.694626    0.223643
     21          6           0       -5.332622    5.856802    1.653226
     22          6           0       -8.044506    6.335451    0.341931
     23          6           0       -8.910935    6.681601   -0.626750
     24          7           0       -9.105523    0.973819   -0.533667
     25          6           0       -9.804639    2.133744   -0.539524
     26          6           0      -11.297292    1.896142   -0.923602
     27          6           0      -11.378129    0.571506   -1.109617
     28          6           0      -10.030602   -0.074994   -0.886232
     29          6           0      -12.285581    3.042407   -1.010453
     30          6           0      -12.559102   -0.080628   -1.734009
     31          6           0      -12.501044   -0.249642   -3.240680
     32          7           0       -7.524021   -1.238741   -0.393503
     33          6           0       -8.562627   -2.088260   -0.735635
     34          6           0       -8.208035   -3.439537   -0.732916
     35          6           0       -6.917106   -3.371119   -0.371354
     36          6           0       -6.462630   -2.017244   -0.046307
     37          6           0       -9.068742   -4.587564   -1.214264
     38          6           0       -5.736319   -4.277832   -0.079563
     39          8           0       -5.607720   -5.434385   -0.242125
     40          6           0       -4.482819   -3.327414    0.434012
     41          6           0       -3.951673   -3.900919    1.780570
     42          8           0       -4.124641   -3.438655    2.951618
     43          8           0       -3.262259   -4.964732    1.565698
     44          6           0       -2.717205   -5.743379    2.578978
     45          6           0        2.640142   -1.273374   -1.025898
     46          6           0        4.013172   -0.798287   -0.463607
     47          6           0        4.893188    0.013261   -1.076007
     48          6           0        4.708053    0.553104   -2.561971
     49          6           0        6.174366    0.523177   -0.427995
     50          6           0        7.391088   -0.191726   -0.938378
     51          6           0        8.786117    0.043698   -0.213557
     52          6           0       10.090890   -0.625579   -0.887233
     53          6           0       10.035273   -2.179146   -0.950856
     54          6           0       11.299508   -0.167396   -0.055689
     55          6           0       12.673704   -0.603612   -0.612192
     56          6           0       13.816409    0.053866    0.199953
     57          6           0       15.305129   -0.347489   -0.352215
     58          6           0       15.538604   -1.872835   -0.263412
     59          6           0       16.292376    0.624080    0.401319
     60          6           0       17.684887    0.724829   -0.254787
     61          6           0       18.499302    1.796418    0.479254
     62          6           0       20.032509    1.628338    0.053589
     63          6           0       20.256006    2.221334   -1.257888
     64          6           0       20.941710    2.451091    1.177272
     65          1           0       -4.056852    3.355241    1.898119
     66          1           0       -9.888443    4.303469   -0.416370
     67          1           0      -10.628566   -2.122879   -1.071267
     68          1           0       -2.765335   -1.417112    2.014356
     69          1           0       -2.317559    1.379664    1.565812
     70          1           0       -1.938384    0.397938    3.818508
     71          1           0       -2.843965    1.770260    3.920392
     72          1           0       -3.803357    0.184489    3.784527
     73          1           0       -2.406103   -1.662209   -0.370831
     74          1           0       -2.007835    0.056363   -0.633466
     75          1           0       -0.478153    0.158842    1.175431
     76          1           0       -0.414160   -1.482248    1.478057
     77          1           0       -4.301249    5.996939    1.020169
     78          1           0       -5.718176    6.769713    1.819546
     79          1           0       -4.818537    5.651644    2.546037
     80          1           0       -7.737580    6.891838    1.135360
     81          1           0       -9.129771    5.922111   -1.438109
     82          1           0       -9.477689    7.686619   -0.905398
     83          1           0      -12.483576    3.512438    0.085003
     84          1           0      -12.023754    4.043964   -1.551352
     85          1           0      -13.126829    2.573855   -1.389488
     86          1           0      -12.714637   -0.917423   -1.086848
     87          1           0      -13.472421    0.485082   -1.402803
     88          1           0      -12.451395    0.685327   -3.755183
     89          1           0      -11.641757   -0.897463   -3.419384
     90          1           0      -13.338846   -0.721567   -3.661873
     91          1           0      -10.051328   -4.345703   -0.587223
     92          1           0       -9.243689   -4.649358   -2.355712
     93          1           0       -8.604923   -5.642303   -0.812909
     94          1           0       -3.669732   -3.574017   -0.266003
     95          1           0       -1.959255   -6.513252    2.215059
     96          1           0       -2.045749   -5.350130    3.545744
     97          1           0       -3.662197   -6.351319    3.119900
     98          1           0        2.514545   -2.393286   -1.041226
     99          1           0        2.386326   -0.662263   -1.897680
    100          1           0        4.314016   -1.168283    0.575410
    101          1           0        4.862815    1.745603   -2.443529
    102          1           0        5.524982    0.177573   -3.232828
    103          1           0        3.948933    0.216412   -3.165514
    104          1           0        6.456926    1.669905   -0.300082
    105          1           0        6.121731    0.139465    0.636421
    106          1           0        7.314112   -1.128529   -1.089119
    107          1           0        7.740150    0.076560   -1.954331
    108          1           0        9.194239    1.209314   -0.099205
    109          1           0        8.757493   -0.473296    0.827974
    110          1           0       10.285620   -0.289760   -1.770803
    111          1           0        9.297713   -2.705957   -1.679560
    112          1           0       10.927310   -2.538219   -1.394232
    113          1           0        9.885561   -2.689353   -0.062765
    114          1           0       11.431335    1.060683   -0.042382
    115          1           0       11.232631   -0.557148    0.870106
    116          1           0       12.837213   -1.712750   -0.701884
    117          1           0       12.728558   -0.337178   -1.654755
    118          1           0       13.554426    1.183162    0.461368
    119          1           0       13.752265   -0.332041    1.091340
    120          1           0       15.275623   -0.009997   -1.367431
    121          1           0       14.921678   -2.361525   -1.203807
    122          1           0       16.574840   -2.159075   -0.491841
    123          1           0       15.284344   -2.351878    0.754963
    124          1           0       15.907588    1.561753    0.507027
    125          1           0       16.411345    0.145663    1.448479
    126          1           0       18.019620   -0.270876   -0.294190
    127          1           0       17.769487    1.012939   -1.363118
    128          1           0       18.027118    2.782168    0.193811
    129          1           0       18.473806    1.650123    1.585007
    130          1           0       20.099954    0.657780    0.167324
    131          1           0       19.918864    3.284441   -1.473677
    132          1           0       21.274737    1.923686   -1.770892
    133          1           0       19.695222    1.844916   -2.111369
    134          1           0       20.457143    1.878224    2.215194
    135          1           0       22.109660    2.310099    0.960338
    136          1           0       20.993730    3.794786    1.130111
    137          1           0       -7.079687    1.827816    0.526103
    138          1           0       -7.872106   -0.375406   -0.278526
 ---------------------------------------------------------------------

 SCF Done:  E(RB3LYP) =  -2733.02976763     A.U. after   17 cycles

 Excitation energies and oscillator strengths:

 Excited State   1:      Singlet-A      2.0661 eV  600.09 nm  f=0.1709  <S**2>=0.000
     235 -> 238        0.31267
     236 -> 237        0.62221
 This state for optimization and/or second-order correction.
 Total Energy, E(TD-HF/TD-KS) =  -2732.95383984
 Copying the excited state density for this state as the 1-particle RhoCI density.

 The electronic state is 1-A.
 Alpha  occ. eigenvalues --  -19.19726 -19.17008 -19.12880 -19.11487 -19.11090
 Alpha  occ. eigenvalues --  -14.36305 -14.35911 -14.31513 -14.30565 -10.31959
 Alpha  occ. eigenvalues --  -10.30160 -10.28176 -10.27512 -10.25867 -10.23709
 Alpha  occ. eigenvalues --  -10.23556 -10.23212 -10.22414 -10.22378 -10.22279
 Alpha  occ. eigenvalues --  -10.22260 -10.22109 -10.22028 -10.21993 -10.21828
 Alpha  occ. eigenvalues --  -10.21594 -10.20841 -10.20698 -10.20561 -10.20488
 Alpha  occ. eigenvalues --  -10.20429 -10.20281 -10.20180 -10.20159 -10.20107
 Alpha  occ. eigenvalues --  -10.20100 -10.19950 -10.19899 -10.19851 -10.19671
 Alpha  occ. eigenvalues --  -10.19540 -10.19265 -10.19202 -10.19183 -10.19087
 Alpha  occ. eigenvalues --  -10.19034 -10.19011 -10.18932 -10.18852 -10.18733
 Alpha  occ. eigenvalues --  -10.18659 -10.18543 -10.18504 -10.18377 -10.18334
 Alpha  occ. eigenvalues --  -10.18317 -10.18246 -10.17835 -10.17680 -10.17675
 Alpha  occ. eigenvalues --  -10.17610 -10.17554 -10.17468 -10.17453  -1.12202
 Alpha  occ. eigenvalues --   -1.10679  -1.05211  -1.01406  -0.99348  -0.99174
 Alpha  occ. eigenvalues --   -0.97460  -0.94832  -0.91317  -0.84129  -0.83273
 Alpha  occ. eigenvalues --   -0.82122  -0.81502  -0.81303  -0.80696  -0.80284
 Alpha  occ. eigenvalues --   -0.80075  -0.79533  -0.78791  -0.78548  -0.77214
 Alpha  occ. eigenvalues --   -0.76783  -0.75804  -0.75616  -0.74613  -0.74297
 Alpha  occ. eigenvalues --   -0.73826  -0.72852  -0.72240  -0.71788  -0.71418
 Alpha  occ. eigenvalues --   -0.69688  -0.69273  -0.68678  -0.67985  -0.67371
 Alpha  occ. eigenvalues --   -0.66938  -0.66686  -0.65657  -0.65320  -0.64580
 Alpha  occ. eigenvalues --   -0.64004  -0.63333  -0.62692  -0.62590  -0.62063
 Alpha  occ. eigenvalues --   -0.61154  -0.58858  -0.58551  -0.57643  -0.57572
 Alpha  occ. eigenvalues --   -0.57066  -0.56982  -0.56874  -0.56851  -0.56391
 Alpha  occ. eigenvalues --   -0.55555  -0.55096  -0.55032  -0.54264  -0.53094
 Alpha  occ. eigenvalues --   -0.51885  -0.51875  -0.50937  -0.50784  -0.50508
 Alpha  occ. eigenvalues --   -0.49887  -0.49819  -0.49204  -0.48372  -0.47972
 Alpha  occ. eigenvalues --   -0.47906  -0.47598  -0.47338  -0.47282  -0.46940
 Alpha  occ. eigenvalues --   -0.46757  -0.46352  -0.46296  -0.46114  -0.45792
 Alpha  occ. eigenvalues --   -0.45618  -0.44985  -0.44868  -0.44623  -0.44472
 Alpha  occ. eigenvalues --   -0.44204  -0.44113  -0.43801  -0.43638  -0.43332
 Alpha  occ. eigenvalues --   -0.43261  -0.43123  -0.42948  -0.42725  -0.42475
 Alpha  occ. eigenvalues --   -0.42335  -0.41992  -0.41651  -0.41553  -0.41383
 Alpha  occ. eigenvalues --   -0.41229  -0.40895  -0.40602  -0.40332  -0.40189
 Alpha  occ. eigenvalues --   -0.40044  -0.39794  -0.39741  -0.39542  -0.39315
 Alpha  occ. eigenvalues --   -0.39193  -0.39001  -0.38749  -0.38620  -0.38398
 Alpha  occ. eigenvalues --   -0.38293  -0.38006  -0.37913  -0.37722  -0.37411
 Alpha  occ. eigenvalues --   -0.37358  -0.37071  -0.36822  -0.36702  -0.36490
 Alpha  occ. eigenvalues --   -0.36278  -0.36079  -0.35811  -0.35749  -0.35688
 Alpha  occ. eigenvalues --   -0.35597  -0.35195  -0.35083  -0.34604  -0.34564
 Alpha  occ. eigenvalues --   -0.34237  -0.34145  -0.33738  -0.33707  -0.33569
 Alpha  occ. eigenvalues --   -0.33271  -0.33063  -0.33020  -0.32709  -0.32667
 Alpha  occ. eigenvalues --   -0.32407  -0.31966  -0.31616  -0.31417  -0.31034
 Alpha  occ. eigenvalues --   -0.30936  -0.30707  -0.30659  -0.30578  -0.30371
 Alpha  occ. eigenvalues --   -0.29597  -0.29516  -0.27922  -0.27781  -0.27218
 Alpha  occ. eigenvalues --   -0.26903  -0.26736  -0.26490  -0.26297  -0.25661
 Alpha  occ. eigenvalues --   -0.25432  -0.24555  -0.24192  -0.23121  -0.19488
 Alpha  occ. eigenvalues --   -0.18609
 Alpha virt. eigenvalues --   -0.09902  -0.07261  -0.03815  -0.01509  -0.00711
 Alpha virt. eigenvalues --   -0.00519   0.00957   0.02052   0.02943   0.03465
 Alpha virt. eigenvalues --    0.04001   0.04504   0.04566   0.04618   0.04979

 Mulliken charges:
               1
     1  C   -0.002201
     2  C    0.008065
     3  C   -0.086400
     4  C   -0.081068
     5  N   -0.121881
     6  C   -0.036115
     7  C   -0.068848
     8  C   -0.054497
     9  C   -0.027408
    10  C    0.122454
    11  C    0.081858
    12  C    0.040970
    13  C    0.140574
    14  O   -0.206534
    15  O   -0.310281
    16  N    0.022485
    17  C    0.063231
    18  C   -0.063698
    19  C   -0.034437
    20  C    0.076116
    21  C    0.136649
    22  C    0.041357
    23  C   -0.079271
    24  N   -0.277942
    25  C    0.037362
    26  C   -0.095506
    27  C   -0.137477
    28  C    0.066432
    29  C    0.072184
    30  C    0.070862
    31  C    0.106121
    32  N    0.044972
    33  C   -0.007829
    34  C   -0.123047
    35  C   -0.032215
    36  C    0.153700
    37  C   -0.004188
    38  C    0.073464
    39  O   -0.116370
    40  C   -0.074082
    41  C    0.197876
    42  O   -0.288170
    43  O   -0.200725
    44  C    0.075440
    45  C    0.286914
    46  C   -0.101662
    47  C   -0.123374
    48  C    0.050137
    49  C    0.073456
    50  C    0.126727
    51  C   -0.062928
    52  C    0.035036
    53  C    0.034904
    54  C    0.006088
    55  C    0.017091
    56  C    0.050666
    57  C   -0.052125
    58  C   -0.015492
    59  C    0.073167
    60  C    0.009873
    61  C    0.003624
    62  C    0.031629
    63  C    0.017190
    64  C   -0.104635
    65  H   -0.094292
    66  H   -0.023068
    67  H   -0.003571
    68  H    0.008991
    69  H   -0.020605
    70  H    0.010308
    71  H    0.007634
    72  H    0.010055
    73  H   -0.008453
    74  H    0.015288
    75  H    0.019292
    76  H   -0.001965
    77  H    0.021775
    78  H   -0.024942
    79  H    0.001212
    80  H   -0.032469
    81  H    0.041150
    82  H    0.053307
    83  H    0.036215
    84  H    0.038514
    85  H   -0.006258
    86  H   -0.021261
    87  H   -0.016316
    88  H    0.003880
    89  H    0.008045
    90  H   -0.006584
    91  H    0.048085
    92  H    0.069264
    93  H    0.064795
    94  H    0.063510
    95  H    0.046639
    96  H    0.055125
    97  H    0.054716
    98  H    0.034677
    99  H    0.034805
   100  H    0.009387
   101  H    0.044059
   102  H    0.020900
   103  H   -0.008515
   104  H    0.033837
   105  H   -0.003880
   106  H   -0.078322
   107  H   -0.017612
   108  H    0.016172
   109  H    0.003221
   110  H   -0.067072
   111  H    0.006033
   112  H   -0.011297
   113  H   -0.010392
   114  H    0.016731
   115  H   -0.034780
   116  H    0.000938
   117  H   -0.028915
   118  H   -0.000356
   119  H   -0.063599
   120  H   -0.017750
   121  H    0.033790
   122  H    0.012133
   123  H    0.032029
   124  H   -0.033632
   125  H   -0.002307
   126  H   -0.029767
   127  H   -0.004064
   128  H    0.008565
   129  H   -0.008270
   130  H   -0.047966
   131  H    0.014886
   132  H    0.009748
   133  H   -0.021297
   134  H    0.041709
   135  H    0.032412
   136  H    0.039474
   137  H    0.107876
   138  H    0.060121
 Sum of Mulliken charges =   0.00000

 Dipole moment (field-independent basis, Debye):
    X=              2.7413    Y=              2.5759    Z=             -0.3260  Tot=              3.7758
 Quadrupole moment (field-independent basis, Debye-Ang):
   XX=           -352.8837   YY=           -373.2836   ZZ=           -395.7178
   XY=            -32.3191   XZ=             -0.7739   YZ=              0.1379

 Normal termination of Gaussian 09 at Sun Aug  4 20:41:34 2019.
