 Gaussian 09, Revision D.01,
 Gaussian 09:  ES64L-G09RevD.01 24-Apr-2013

 --------------------------
 # td=(NStates=1) B3LYP/SVP
 --------------------------

 --
 TD
 --
 Symbolic Z-matrix:
 Charge =  0 Multiplicity = 1

                         Standard orientation:
 ---------------------------------------------------------------------
 Center     Atomic      Atomic             Coordinates (Angstroms)
 Number     Number       Type             X           Y           Z
 ---------------------------------------------------------------------
      1          6           0       -5.103692   -1.913427    0.443385
      2          6           0       -4.756570    2.771381    1.221373
      3          6           0       -9.488645    3.146942   -0.130410
      4          6           0       -9.854909   -1.682950   -0.946047
      5          7           0       -5.238331    0.419186    0.747634
      6          6           0       -4.581631   -0.691338    0.716183
      7          6           0       -3.073577   -0.495266    1.149805
      8          6           0       -3.131728    0.978926    1.745170
      9          6           0       -4.351634    1.393622    1.173722
     10          6           0       -2.980752    1.023784    3.290342
     11          6           0       -2.024367   -0.820654    0.003865
     12          6           0       -0.593361   -0.470025    0.499402
     13          6           0        0.409564   -0.742357   -0.708716
     14          8           0        0.107269   -0.982246   -1.812648
     15          8           0        1.710947   -0.422290   -0.226789
     16          7           0       -7.114705    2.755767    0.503253
     17          6           0       -5.993706    3.326361    0.784731
     18          6           0       -6.373391    4.688791    0.952732
     19          6           0       -7.702143    4.834439    0.688372
     20          6           0       -8.203896    3.475150    0.301969
     21          6           0       -5.463131    5.898743    1.309369
     22          6           0       -8.481109    6.129040    0.456126
     23          6           0       -9.199557    6.455568   -0.600248
     24          7           0       -9.272068    0.697025   -0.504733
     25          6           0       -9.957958    1.883301   -0.464400
     26          6           0      -11.456585    1.636017   -0.756324
     27          6           0      -11.522081    0.352100   -1.164214
     28          6           0      -10.185917   -0.271654   -0.845708
     29          6           0      -12.515470    2.701170   -0.886205
     30          6           0      -12.713304   -0.424085   -1.622173
     31          6           0      -12.711224   -0.603086   -3.234344
     32          7           0       -7.428909   -1.335462   -0.199290
     33          6           0       -8.536541   -2.157938   -0.562965
     34          6           0       -8.138883   -3.519652   -0.607437
     35          6           0       -6.724966   -3.510482   -0.167006
     36          6           0       -6.375751   -2.187617   -0.000176
     37          6           0       -8.884177   -4.720364   -1.017823
     38          6           0       -5.560124   -4.350337    0.105936
     39          8           0       -5.397733   -5.523108    0.088005
     40          6           0       -4.425114   -3.274922    0.460844
     41          6           0       -3.664890   -3.674232    1.772103
     42          8           0       -3.993772   -3.214564    2.881444
     43          8           0       -2.794019   -4.635572    1.545057
     44          6           0       -2.127391   -5.354506    2.516197
     45          6           0        2.698682   -0.828866   -1.219540
     46          6           0        4.018529   -0.597742   -0.628770
     47          6           0        4.911330    0.394848   -1.024891
     48          6           0        4.822476    1.373438   -2.121841
     49          6           0        6.230845    0.401598   -0.162703
     50          6           0        7.411865   -0.102690   -1.004437
     51          6           0        8.780678   -0.082214   -0.161984
     52          6           0       10.008655   -0.562169   -0.856659
     53          6           0        9.944462   -2.111635   -1.379431
     54          6           0       11.260305   -0.218995    0.060162
     55          6           0       12.691960   -0.502388   -0.453137
     56          6           0       13.923732   -0.201436    0.394433
     57          6           0       15.276107   -0.411893   -0.204778
     58          6           0       15.658989   -2.026438    0.016697
     59          6           0       16.314836    0.489994    0.444711
     60          6           0       17.805956    0.497203   -0.168997
     61          6           0       18.622187    1.574850    0.540254
     62          6           0       20.131285    1.517703   -0.007515
     63          6           0       20.282953    2.037661   -1.464480
     64          6           0       20.942809    2.327320    1.068294
     65          1           0       -4.277660    3.490873    1.896788
     66          1           0      -10.368980    3.927191   -0.074180
     67          1           0      -10.742067   -2.409384   -1.060963
     68          1           0       -2.915126   -1.090638    1.951696
     69          1           0       -2.314443    1.604830    1.310476
     70          1           0       -1.956464    0.628203    3.356559
     71          1           0       -2.950736    1.980662    3.794550
     72          1           0       -3.712548    0.233494    3.852275
     73          1           0       -2.354037   -1.734912   -0.374445
     74          1           0       -2.108229    0.004937   -0.848900
     75          1           0       -0.246964    0.519392    0.886522
     76          1           0       -0.199575   -1.292913    1.525513
     77          1           0       -4.508151    6.158232    0.720159
     78          1           0       -5.878672    6.989278    1.339269
     79          1           0       -4.947723    5.680462    2.395739
     80          1           0       -8.232223    6.831739    1.113349
     81          1           0       -9.539347    5.681739   -1.183881
     82          1           0       -9.502587    7.602945   -0.717188
     83          1           0      -12.420952    3.355972   -0.044976
     84          1           0      -12.277610    3.447788   -1.673310
     85          1           0      -13.505232    2.295377   -1.058016
     86          1           0      -12.595629   -1.540162   -1.295873
     87          1           0      -13.388556    0.027769   -0.995211
     88          1           0      -12.616774    0.315500   -3.603232
     89          1           0      -11.948832   -1.333012   -3.253640
     90          1           0      -13.584272   -1.154683   -3.451999
     91          1           0       -9.931381   -4.704593   -0.596103
     92          1           0       -9.013871   -4.816606   -2.252631
     93          1           0       -8.368501   -5.792170   -0.836406
     94          1           0       -3.564519   -3.495568   -0.257021
     95          1           0       -1.488014   -6.049043    1.965130
     96          1           0       -1.614548   -4.658502    3.264928
     97          1           0       -2.845192   -6.191879    3.050804
     98          1           0        2.668624   -1.912364   -1.540610
     99          1           0        2.474462   -0.299945   -2.156343
    100          1           0        4.218938   -1.276989    0.336837
    101          1           0        5.015434    2.364130   -1.744530
    102          1           0        5.574477    1.472217   -3.180312
    103          1           0        3.810669    1.393376   -2.381589
    104          1           0        6.400962    1.446292    0.316564
    105          1           0        6.162736   -0.315912    0.754315
    106          1           0        7.176792   -1.049284   -1.746816
    107          1           0        7.685162    0.696390   -1.976378
    108          1           0        9.014433    0.975381    0.069967
    109          1           0        8.770973   -0.516444    0.876074
    110          1           0       10.096850   -0.085913   -1.818676
    111          1           0        9.013532   -2.222996   -1.865791
    112          1           0       10.626838   -2.408469   -2.201951
    113          1           0       10.000398   -2.563912   -0.415961
    114          1           0       11.309840    0.841708    0.126619
    115          1           0       10.989073   -0.540606    1.102304
    116          1           0       12.447411   -1.628267   -0.688528
    117          1           0       12.759925   -0.252596   -1.653599
    118          1           0       13.688800    0.975624    0.610956
    119          1           0       13.680864   -0.688670    1.304534
    120          1           0       15.342649   -0.099381   -1.289965
    121          1           0       14.753208   -2.808521   -0.213167
    122          1           0       16.371831   -2.297051   -0.755451
    123          1           0       16.117813   -1.953089    1.139034
    124          1           0       15.737980    1.519909    0.258458
    125          1           0       16.358994    0.280131    1.587736
    126          1           0       18.171563   -0.353294    0.198701
    127          1           0       17.732607    0.558223   -1.295041
    128          1           0       18.252924    2.652664    0.390304
    129          1           0       18.570388    1.214784    1.582444
    130          1           0       20.260063    0.320503    0.013935
    131          1           0       20.066862    3.338175   -1.492821
    132          1           0       21.215600    1.827994   -1.840075
    133          1           0       19.738500    1.274683   -2.173216
    134          1           0       20.707877    2.280456    2.177209
    135          1           0       21.988345    2.247556    0.756543
    136          1           0       20.728104    3.398394    0.849990
    137          1           0       -7.244885    1.723843    0.500449
    138          1           0       -7.961830   -0.365983   -0.253454
 ---------------------------------------------------------------------

 SCF Done:  E(RB3LYP) =  -2732.99203324     A.U. after   16 cycles

 Excitation energies and oscillator strengths:

 Excited State   1:      Singlet-A      2.0360 eV  608.96 nm  f=0.1918  <S**2>=0.000
     235 -> 238       -0.29359
     236 -> 237        0.64005
 This state for optimization and/or second-order correction.
 Total Energy, E(TD-HF/TD-KS) =  -2732.91721132
 Copying the excited state density for this state as the 1-particle RhoCI density.

 The electronic state is 1-A.
 Alpha  occ. eigenvalues --  -19.18866 -19.17109 -19.14535 -19.12089 -19.11630
 Alpha  occ. eigenvalues --  -14.37675 -14.35400 -14.31921 -14.31781 -10.32005
 Alpha  occ. eigenvalues --  -10.31799 -10.27621 -10.26275 -10.24152 -10.23754
 Alpha  occ. eigenvalues --  -10.23574 -10.23565 -10.23237 -10.22811 -10.22727
 Alpha  occ. eigenvalues --  -10.22611 -10.22526 -10.21954 -10.21856 -10.21707
 Alpha  occ. eigenvalues --  -10.21689 -10.21572 -10.21544 -10.21228 -10.21131
 Alpha  occ. eigenvalues --  -10.21110 -10.20928 -10.20520 -10.20362 -10.20333
 Alpha  occ. eigenvalues --  -10.20273 -10.20235 -10.20213 -10.20104 -10.20036
 Alpha  occ. eigenvalues --  -10.19990 -10.19985 -10.19751 -10.19616 -10.19492
 Alpha  occ. eigenvalues --  -10.19436 -10.19388 -10.19350 -10.19349 -10.19268
 Alpha  occ. eigenvalues --  -10.19226 -10.19097 -10.19084 -10.18867 -10.18857
 Alpha  occ. eigenvalues --  -10.18726 -10.18679 -10.18624 -10.18372 -10.18300
 Alpha  occ. eigenvalues --  -10.18094 -10.17806 -10.17695 -10.17119  -1.10780
 Alpha  occ. eigenvalues --   -1.09404  -1.04070  -1.01802  -1.01714  -0.99329
 Alpha  occ. eigenvalues --   -0.96632  -0.95335  -0.93331  -0.84719  -0.81504
 Alpha  occ. eigenvalues --   -0.81356  -0.81260  -0.81008  -0.80578  -0.80241
 Alpha  occ. eigenvalues --   -0.80005  -0.79209  -0.78785  -0.78660  -0.77145
 Alpha  occ. eigenvalues --   -0.76244  -0.75942  -0.75401  -0.74906  -0.74140
 Alpha  occ. eigenvalues --   -0.73706  -0.72990  -0.72377  -0.71178  -0.70025
 Alpha  occ. eigenvalues --   -0.69421  -0.69038  -0.68657  -0.68154  -0.67673
 Alpha  occ. eigenvalues --   -0.67307  -0.66324  -0.65579  -0.65061  -0.64985
 Alpha  occ. eigenvalues --   -0.64234  -0.63273  -0.62400  -0.62138  -0.61400
 Alpha  occ. eigenvalues --   -0.60192  -0.58967  -0.58232  -0.57849  -0.57224
 Alpha  occ. eigenvalues --   -0.56219  -0.55774  -0.55428  -0.55292  -0.54933
 Alpha  occ. eigenvalues --   -0.54806  -0.54409  -0.53436  -0.53020  -0.52699
 Alpha  occ. eigenvalues --   -0.52393  -0.51859  -0.51400  -0.50401  -0.49876
 Alpha  occ. eigenvalues --   -0.49462  -0.49252  -0.48762  -0.48550  -0.48250
 Alpha  occ. eigenvalues --   -0.48106  -0.47822  -0.47421  -0.47166  -0.47062
 Alpha  occ. eigenvalues --   -0.46764  -0.46117  -0.45768  -0.45670  -0.45421
 Alpha  occ. eigenvalues --   -0.45232  -0.45100  -0.44592  -0.44225  -0.44114
 Alpha  occ. eigenvalues --   -0.43834  -0.43694  -0.43618  -0.43468  -0.43308
 Alpha  occ. eigenvalues --   -0.43072  -0.42994  -0.42465  -0.42385  -0.42293
 Alpha  occ. eigenvalues --   -0.42006  -0.41877  -0.41564  -0.41481  -0.41381
 Alpha  occ. eigenvalues --   -0.41005  -0.40949  -0.40756  -0.40684  -0.40411
 Alpha  occ. eigenvalues --   -0.40276  -0.39867  -0.39630  -0.39423  -0.39217
 Alpha  occ. eigenvalues --   -0.39093  -0.38826  -0.38680  -0.38394  -0.38204
 Alpha  occ. eigenvalues --   -0.38152  -0.37946  -0.37860  -0.37601  -0.37356
 Alpha  occ. eigenvalues --   -0.37225  -0.37133  -0.36932  -0.36813  -0.36629
 Alpha  occ. eigenvalues --   -0.36407  -0.36405  -0.36339  -0.35940  -0.35844
 Alpha  occ. eigenvalues --   -0.35285  -0.35281  -0.35047  -0.35015  -0.34945
 Alpha  occ. eigenvalues --   -0.34526  -0.34465  -0.34246  -0.34081  -0.33938
 Alpha  occ. eigenvalues --   -0.33297  -0.33255  -0.33172  -0.32934  -0.32299
 Alpha  occ. eigenvalues --   -0.31902  -0.31787  -0.31767  -0.31569  -0.30555
 Alpha  occ. eigenvalues --   -0.30335  -0.30277  -0.30147  -0.29927  -0.29563
 Alpha  occ. eigenvalues --   -0.29022  -0.28751  -0.28284  -0.28068  -0.27980
 Alpha  occ. eigenvalues --   -0.27146  -0.27045  -0.26638  -0.25865  -0.24995
 Alpha  occ. eigenvalues --   -0.24695  -0.24391  -0.24336  -0.23620  -0.19772
 Alpha  occ. eigenvalues --   -0.19068
 Alpha virt. eigenvalues --   -0.10652  -0.07299  -0.03617  -0.01672  -0.01360
 Alpha virt. eigenvalues --   -0.00736  -0.00442   0.00525   0.02561   0.03235
 Alpha virt. eigenvalues --    0.03653   0.03745   0.04128   0.04414   0.04565

 Mulliken charges:
               1
     1  C    0.151601
     2  C   -0.086135
     3  C   -0.109994
     4  C   -0.072711
     5  N   -0.125231
     6  C   -0.149120
     7  C    0.002304
     8  C   -0.047130
     9  C    0.032597
    10  C    0.046204
    11  C    0.128052
    12  C   -0.094699
    13  C    0.204188
    14  O   -0.171007
    15  O   -0.361925
    16  N    0.061070
    17  C    0.046630
    18  C   -0.069733
    19  C   -0.025259
    20  C    0.041282
    21  C   -0.030973
    22  C    0.012090
    23  C    0.004476
    24  N   -0.271713
    25  C    0.049646
    26  C   -0.169930
    27  C   -0.096488
    28  C    0.042946
    29  C    0.130281
    30  C    0.003577
    31  C    0.131636
    32  N   -0.119277
    33  C    0.042601
    34  C   -0.089737
    35  C   -0.014153
    36  C    0.070416
    37  C   -0.023414
    38  C    0.068430
    39  O   -0.130257
    40  C   -0.140966
    41  C    0.199392
    42  O   -0.261918
    43  O   -0.246801
    44  C    0.128587
    45  C    0.248211
    46  C   -0.106597
    47  C   -0.127072
    48  C    0.084260
    49  C    0.042270
    50  C   -0.087634
    51  C    0.048777
    52  C   -0.078358
    53  C    0.045254
    54  C    0.018689
    55  C   -0.059565
    56  C    0.092725
    57  C   -0.038025
    58  C   -0.052772
    59  C   -0.085511
    60  C    0.110688
    61  C    0.003835
    62  C   -0.162914
    63  C    0.023396
    64  C    0.059032
    65  H   -0.010081
    66  H    0.022479
    67  H    0.019072
    68  H   -0.033455
    69  H   -0.004618
    70  H    0.010622
    71  H    0.017123
    72  H    0.060508
    73  H    0.001194
    74  H    0.028432
    75  H    0.065092
    76  H    0.044734
    77  H    0.033031
    78  H    0.035584
    79  H    0.033086
    80  H   -0.047967
    81  H   -0.006002
    82  H    0.047816
    83  H    0.007785
    84  H    0.018328
    85  H    0.018047
    86  H   -0.003920
    87  H   -0.006899
    88  H    0.006861
    89  H    0.001183
    90  H    0.001740
    91  H    0.036890
    92  H    0.047739
    93  H    0.064335
    94  H    0.060639
    95  H    0.034256
    96  H    0.054057
    97  H    0.047066
    98  H    0.021683
    99  H    0.009582
   100  H    0.032364
   101  H    0.006811
   102  H    0.057707
   103  H   -0.009745
   104  H    0.019153
   105  H    0.013542
   106  H    0.043475
   107  H    0.006964
   108  H   -0.004003
   109  H   -0.007923
   110  H   -0.026391
   111  H   -0.019109
   112  H    0.020196
   113  H    0.007614
   114  H   -0.023333
   115  H   -0.004379
   116  H   -0.014177
   117  H   -0.001763
   118  H   -0.001871
   119  H   -0.011554
   120  H   -0.002032
   121  H    0.042414
   122  H    0.015747
   123  H    0.038655
   124  H    0.011652
   125  H    0.005014
   126  H   -0.041469
   127  H    0.012191
   128  H    0.006484
   129  H   -0.002458
   130  H    0.005182
   131  H    0.044195
   132  H   -0.009349
   133  H    0.016047
   134  H    0.027175
   135  H    0.001423
   136  H   -0.010369
   137  H    0.156645
   138  H    0.195129
 Sum of Mulliken charges =   0.00000

 Dipole moment (field-independent basis, Debye):
    X=              1.1328    Y=              3.9379    Z=             -0.1281  Tot=              4.0996
 Quadrupole moment (field-independent basis, Debye-Ang):
   XX=           -335.3293   YY=           -380.5056   ZZ=           -398.0083
   XY=            -20.6980   XZ=              8.9200   YZ=              2.9911

 Normal termination of Gaussian 09 at Fri Aug  2 02:38:31 2019.
