 Gaussian 09, Revision D.01,
 Gaussian 09:  ES64L-G09RevD.01 24-Apr-2013

 --------------------------
 # td=(NStates=1) B3LYP/SVP
 --------------------------

 --
 TD
 --
 Symbolic Z-matrix:
 Charge =  0 Multiplicity = 1

                         Standard orientation:
 ---------------------------------------------------------------------
 Center     Atomic      Atomic             Coordinates (Angstroms)
 Number     Number       Type             X           Y           Z
 ---------------------------------------------------------------------
      1          6           0       -5.123542   -1.989886    0.589261
      2          6           0       -4.827492    2.787954    1.326875
      3          6           0       -9.371358    3.298651   -0.096163
      4          6           0       -9.749002   -1.400428   -1.062013
      5          7           0       -5.223870    0.450198    0.925100
      6          6           0       -4.530870   -0.709448    0.878443
      7          6           0       -3.066674   -0.453253    1.272105
      8          6           0       -3.122144    0.985977    1.836915
      9          6           0       -4.500368    1.443909    1.350919
     10          6           0       -2.969540    1.014007    3.369398
     11          6           0       -2.079152   -0.735920    0.068360
     12          6           0       -0.626842   -0.553635    0.611258
     13          6           0        0.424503   -0.930622   -0.526545
     14          8           0        0.076652   -1.334512   -1.626587
     15          8           0        1.621216   -0.778673   -0.142954
     16          7           0       -7.187907    2.671498    0.470693
     17          6           0       -6.124814    3.280607    0.991886
     18          6           0       -6.414404    4.765578    1.056777
     19          6           0       -7.623708    4.919618    0.530428
     20          6           0       -8.140630    3.674655    0.252661
     21          6           0       -5.491624    5.799363    1.551792
     22          6           0       -8.403468    6.247026    0.413287
     23          6           0       -9.139663    6.495457   -0.650165
     24          7           0       -9.212190    0.904753   -0.493033
     25          6           0       -9.870453    2.047936   -0.562148
     26          6           0      -11.363700    1.807150   -1.018120
     27          6           0      -11.388045    0.449297   -1.354908
     28          6           0      -10.084871   -0.089996   -0.975361
     29          6           0      -12.427308    2.896455   -0.962841
     30          6           0      -12.613583   -0.276609   -1.842314
     31          6           0      -12.386046   -0.564994   -3.366787
     32          7           0       -7.526465   -1.226240   -0.127512
     33          6           0       -8.621337   -2.076522   -0.611093
     34          6           0       -8.132447   -3.370937   -0.850877
     35          6           0       -6.768071   -3.384186   -0.358567
     36          6           0       -6.438135   -2.039131    0.036950
     37          6           0       -8.921876   -4.547602   -1.357787
     38          6           0       -5.630597   -4.267406   -0.075557
     39          8           0       -5.580759   -5.533255   -0.079695
     40          6           0       -4.521630   -3.321162    0.421940
     41          6           0       -3.874055   -3.806320    1.749101
     42          8           0       -4.294008   -3.483725    2.822856
     43          8           0       -3.027903   -4.770014    1.476693
     44          6           0       -2.659132   -5.563837    2.650021
     45          6           0        2.661349   -0.988795   -1.085710
     46          6           0        3.986030   -0.618667   -0.372518
     47          6           0        5.068139   -0.011428   -1.005729
     48          6           0        5.008358    0.584134   -2.346009
     49          6           0        6.311611    0.217012   -0.246959
     50          6           0        7.590133   -0.469778   -0.801461
     51          6           0        8.836988   -0.302243    0.151951
     52          6           0       10.128317   -0.916561   -0.365578
     53          6           0       10.175266   -2.532590   -0.294351
     54          6           0       11.360715   -0.226898    0.193695
     55          6           0       12.713244   -0.527202   -0.455523
     56          6           0       13.905684    0.262616    0.156974
     57          6           0       15.302028   -0.302402   -0.419389
     58          6           0       15.591038   -1.739947   -0.318144
     59          6           0       16.342994    0.542547    0.264556
     60          6           0       17.680119    0.734405   -0.311184
     61          6           0       18.638266    1.670758    0.430531
     62          6           0       20.099102    1.718056   -0.138254
     63          6           0       20.285542    2.215341   -1.559824
     64          6           0       20.887768    2.714507    0.706337
     65          1           0       -4.013588    3.544077    1.646027
     66          1           0      -10.389018    4.162876   -0.066301
     67          1           0      -10.594324   -1.899645   -1.594947
     68          1           0       -2.820297   -1.108090    2.128486
     69          1           0       -2.489916    1.746814    1.464192
     70          1           0       -2.085463    0.461031    3.827793
     71          1           0       -2.956843    2.144888    3.759839
     72          1           0       -3.757583    0.649254    3.819580
     73          1           0       -2.169415   -1.556069   -0.395902
     74          1           0       -2.311974   -0.092197   -0.875408
     75          1           0       -0.325843    0.579456    0.906973
     76          1           0       -0.214103   -1.320296    1.389335
     77          1           0       -4.352339    5.820304    1.062292
     78          1           0       -5.962599    6.940694    1.409456
     79          1           0       -5.422658    5.538132    2.707611
     80          1           0       -8.180067    6.947663    1.305163
     81          1           0       -9.314220    5.898652   -1.623874
     82          1           0       -9.710294    7.326885   -0.612158
     83          1           0      -12.414236    3.486288   -0.166836
     84          1           0      -12.161393    3.591649   -2.016284
     85          1           0      -13.413832    2.461878   -1.206586
     86          1           0      -12.771248   -1.230439   -1.438814
     87          1           0      -13.417465    0.261295   -1.713834
     88          1           0      -12.179308    0.408346   -3.800388
     89          1           0      -11.495238   -1.178103   -3.527301
     90          1           0      -13.411475   -0.919264   -3.868381
     91          1           0       -9.818350   -4.844802   -0.625618
     92          1           0       -9.298220   -4.255605   -2.521274
     93          1           0       -8.499530   -5.479111   -1.151459
     94          1           0       -3.632525   -3.479602   -0.348727
     95          1           0       -1.879410   -6.217130    2.385115
     96          1           0       -2.178914   -4.991685    3.541553
     97          1           0       -3.557586   -6.341583    3.001739
     98          1           0        2.832376   -2.058891   -1.344584
     99          1           0        2.624390   -0.272146   -1.987155
    100          1           0        4.232242   -1.193662    0.661231
    101          1           0        5.054131    1.741711   -2.050144
    102          1           0        5.732330    0.297899   -3.008741
    103          1           0        3.869670    0.470764   -2.670773
    104          1           0        6.658252    1.258205   -0.116824
    105          1           0        6.194970   -0.175443    0.940768
    106          1           0        7.495409   -1.539860   -0.984710
    107          1           0        7.954982   -0.245264   -1.842338
    108          1           0        8.960944    0.739161    0.451459
    109          1           0        8.695585   -0.510222    1.249500
    110          1           0       10.259541   -0.694651   -1.469802
    111          1           0        9.290291   -2.827495   -0.682562
    112          1           0       11.121303   -2.930746   -0.886809
    113          1           0       10.484202   -2.790013    0.813406
    114          1           0       11.238486    0.941952    0.339468
    115          1           0       11.521136   -0.414008    1.170716
    116          1           0       12.861666   -1.566847   -0.503635
    117          1           0       12.757634   -0.461056   -1.469281
    118          1           0       13.915496    1.418090    0.099366
    119          1           0       13.944330   -0.159465    1.148152
    120          1           0       15.327540   -0.047551   -1.495446
    121          1           0       14.809696   -2.202775   -0.796405
    122          1           0       16.483152   -1.791062   -0.946811
    123          1           0       15.905896   -2.296714    0.634520
    124          1           0       15.736980    1.519087    0.289923
    125          1           0       16.447304    0.200353    1.371952
    126          1           0       18.189311   -0.265070   -0.315983
    127          1           0       17.485845    1.244366   -1.357875
    128          1           0       18.334810    2.805591    0.196583
    129          1           0       18.615429    1.432461    1.416417
    130          1           0       20.540879    0.813193   -0.209963
    131          1           0       19.837256    3.213010   -1.748893
    132          1           0       21.252803    2.221556   -1.850096
    133          1           0       19.694474    1.509303   -2.310925
    134          1           0       20.904291    2.202832    1.680760
    135          1           0       21.896954    2.598689    0.270264
    136          1           0       20.605944    3.725754    0.542444
    137          1           0       -7.257467    1.741646    0.247854
    138          1           0       -7.563453   -0.236926   -0.128575
 ---------------------------------------------------------------------

 SCF Done:  E(RB3LYP) =  -2733.03533392     A.U. after   16 cycles

 Excitation energies and oscillator strengths:

 Excited State   1:      Singlet-A      2.1265 eV  583.04 nm  f=0.1730  <S**2>=0.000
     235 -> 237       -0.14730
     235 -> 238       -0.28623
     236 -> 237        0.61849
     236 -> 238       -0.11079
 This state for optimization and/or second-order correction.
 Total Energy, E(TD-HF/TD-KS) =  -2732.95718599
 Copying the excited state density for this state as the 1-particle RhoCI density.

 The electronic state is 1-A.
 Alpha  occ. eigenvalues --  -19.19291 -19.18602 -19.11614 -19.11052 -19.10675
 Alpha  occ. eigenvalues --  -14.37163 -14.35925 -14.31189 -14.30421 -10.30837
 Alpha  occ. eigenvalues --  -10.30692 -10.26964 -10.26455 -10.25628 -10.24748
 Alpha  occ. eigenvalues --  -10.23347 -10.23177 -10.22989 -10.22930 -10.22790
 Alpha  occ. eigenvalues --  -10.22097 -10.21977 -10.21966 -10.21893 -10.21300
 Alpha  occ. eigenvalues --  -10.21025 -10.20943 -10.20897 -10.20739 -10.20698
 Alpha  occ. eigenvalues --  -10.20600 -10.20555 -10.20520 -10.20480 -10.20328
 Alpha  occ. eigenvalues --  -10.19981 -10.19932 -10.19826 -10.19801 -10.19724
 Alpha  occ. eigenvalues --  -10.19722 -10.19553 -10.19505 -10.19489 -10.19291
 Alpha  occ. eigenvalues --  -10.19204 -10.18928 -10.18889 -10.18879 -10.18626
 Alpha  occ. eigenvalues --  -10.18516 -10.18496 -10.18467 -10.18426 -10.18353
 Alpha  occ. eigenvalues --  -10.18046 -10.17904 -10.17625 -10.17514 -10.17505
 Alpha  occ. eigenvalues --  -10.17231 -10.17108 -10.17092 -10.16594  -1.12825
 Alpha  occ. eigenvalues --   -1.10215  -1.00835  -0.99912  -0.99896  -0.98444
 Alpha  occ. eigenvalues --   -0.95855  -0.94858  -0.92773  -0.84218  -0.83488
 Alpha  occ. eigenvalues --   -0.82875  -0.82437  -0.81222  -0.81060  -0.80295
 Alpha  occ. eigenvalues --   -0.79975  -0.79732  -0.79414  -0.78423  -0.77758
 Alpha  occ. eigenvalues --   -0.77061  -0.76442  -0.75908  -0.74750  -0.74549
 Alpha  occ. eigenvalues --   -0.74075  -0.73337  -0.72397  -0.72060  -0.70745
 Alpha  occ. eigenvalues --   -0.69311  -0.69151  -0.68329  -0.68179  -0.67820
 Alpha  occ. eigenvalues --   -0.67240  -0.67196  -0.66656  -0.65721  -0.65415
 Alpha  occ. eigenvalues --   -0.63614  -0.63285  -0.62590  -0.62098  -0.61621
 Alpha  occ. eigenvalues --   -0.61214  -0.59811  -0.58478  -0.57764  -0.57676
 Alpha  occ. eigenvalues --   -0.56993  -0.56800  -0.56492  -0.56317  -0.55640
 Alpha  occ. eigenvalues --   -0.55512  -0.54544  -0.54250  -0.54062  -0.52841
 Alpha  occ. eigenvalues --   -0.52460  -0.51797  -0.51412  -0.50955  -0.50377
 Alpha  occ. eigenvalues --   -0.49436  -0.49108  -0.48804  -0.48626  -0.48137
 Alpha  occ. eigenvalues --   -0.47849  -0.47337  -0.47262  -0.47183  -0.47124
 Alpha  occ. eigenvalues --   -0.46702  -0.46645  -0.46123  -0.46027  -0.45851
 Alpha  occ. eigenvalues --   -0.45662  -0.45439  -0.45272  -0.44936  -0.44455
 Alpha  occ. eigenvalues --   -0.44031  -0.43812  -0.43719  -0.43620  -0.43546
 Alpha  occ. eigenvalues --   -0.43399  -0.43364  -0.43043  -0.42937  -0.42374
 Alpha  occ. eigenvalues --   -0.42321  -0.42071  -0.41678  -0.41639  -0.41470
 Alpha  occ. eigenvalues --   -0.41104  -0.40820  -0.40786  -0.40418  -0.40092
 Alpha  occ. eigenvalues --   -0.39971  -0.39730  -0.39613  -0.39307  -0.39104
 Alpha  occ. eigenvalues --   -0.38901  -0.38885  -0.38666  -0.38265  -0.38136
 Alpha  occ. eigenvalues --   -0.38070  -0.37874  -0.37746  -0.37632  -0.37485
 Alpha  occ. eigenvalues --   -0.37287  -0.37233  -0.37095  -0.36899  -0.36406
 Alpha  occ. eigenvalues --   -0.36328  -0.36203  -0.36111  -0.35658  -0.35495
 Alpha  occ. eigenvalues --   -0.35403  -0.35276  -0.35066  -0.34953  -0.34652
 Alpha  occ. eigenvalues --   -0.34541  -0.34364  -0.34228  -0.33874  -0.33826
 Alpha  occ. eigenvalues --   -0.33572  -0.33421  -0.32749  -0.32529  -0.32432
 Alpha  occ. eigenvalues --   -0.32364  -0.31755  -0.31709  -0.31512  -0.31328
 Alpha  occ. eigenvalues --   -0.30985  -0.30928  -0.30771  -0.30693  -0.29887
 Alpha  occ. eigenvalues --   -0.29677  -0.29132  -0.28379  -0.28005  -0.27184
 Alpha  occ. eigenvalues --   -0.26910  -0.26807  -0.26283  -0.25762  -0.25361
 Alpha  occ. eigenvalues --   -0.25031  -0.24251  -0.23872  -0.22495  -0.19771
 Alpha  occ. eigenvalues --   -0.18476
 Alpha virt. eigenvalues --   -0.09647  -0.07084  -0.04056  -0.01758  -0.01109
 Alpha virt. eigenvalues --   -0.00254   0.01296   0.01823   0.02189   0.03266
 Alpha virt. eigenvalues --    0.03433   0.04122   0.04421   0.04495   0.04713

 Mulliken charges:
               1
     1  C    0.044936
     2  C   -0.117663
     3  C   -0.161084
     4  C   -0.082850
     5  N   -0.134630
     6  C   -0.063171
     7  C   -0.011043
     8  C   -0.012745
     9  C   -0.025695
    10  C    0.086060
    11  C    0.183790
    12  C   -0.049492
    13  C    0.125829
    14  O   -0.267336
    15  O   -0.223896
    16  N    0.016085
    17  C    0.099820
    18  C   -0.124724
    19  C    0.020977
    20  C    0.139112
    21  C   -0.048566
    22  C   -0.044992
    23  C    0.007185
    24  N   -0.239620
    25  C    0.001487
    26  C   -0.152174
    27  C   -0.110977
    28  C    0.045214
    29  C    0.099919
    30  C    0.214602
    31  C   -0.040597
    32  N   -0.082706
    33  C    0.146515
    34  C   -0.118800
    35  C   -0.033667
    36  C    0.089346
    37  C    0.052937
    38  C    0.098948
    39  O   -0.233166
    40  C   -0.097077
    41  C    0.182424
    42  O   -0.210662
    43  O   -0.263724
    44  C    0.135268
    45  C    0.240919
    46  C   -0.154462
    47  C   -0.128417
    48  C    0.086818
    49  C    0.037238
    50  C    0.014093
    51  C    0.039652
    52  C   -0.072076
    53  C    0.032370
    54  C    0.070748
    55  C    0.091132
    56  C    0.029300
    57  C   -0.120766
    58  C    0.096850
    59  C    0.002737
    60  C    0.046806
    61  C    0.062084
    62  C   -0.086602
    63  C    0.019188
    64  C    0.091298
    65  H    0.001703
    66  H    0.041700
    67  H   -0.019874
    68  H    0.007886
    69  H   -0.025772
    70  H    0.027563
    71  H    0.007412
    72  H   -0.025293
    73  H   -0.074371
    74  H    0.014720
    75  H    0.057491
    76  H    0.047988
    77  H    0.067343
    78  H    0.048719
    79  H    0.056899
    80  H    0.040728
    81  H    0.061505
    82  H   -0.007193
    83  H    0.009321
    84  H    0.034474
    85  H    0.015557
    86  H   -0.011689
    87  H   -0.067326
    88  H    0.005100
    89  H    0.022986
    90  H    0.025328
    91  H    0.032767
    92  H    0.063683
    93  H    0.010214
    94  H    0.078886
    95  H    0.013206
    96  H    0.051257
    97  H    0.069180
    98  H    0.049738
    99  H    0.043200
   100  H    0.029426
   101  H    0.035803
   102  H    0.024783
   103  H    0.012243
   104  H    0.010868
   105  H    0.018805
   106  H   -0.015223
   107  H   -0.002748
   108  H   -0.034150
   109  H   -0.023068
   110  H   -0.006139
   111  H   -0.006073
   112  H    0.024972
   113  H    0.025150
   114  H   -0.012000
   115  H   -0.057931
   116  H   -0.046147
   117  H   -0.064038
   118  H    0.027419
   119  H   -0.010609
   120  H   -0.020942
   121  H   -0.023514
   122  H   -0.005734
   123  H    0.016983
   124  H   -0.021875
   125  H   -0.011973
   126  H   -0.006122
   127  H    0.007962
   128  H   -0.000824
   129  H   -0.035202
   130  H   -0.040841
   131  H   -0.003440
   132  H   -0.017769
   133  H    0.006785
   134  H    0.005029
   135  H   -0.013691
   136  H    0.005930
   137  H    0.093131
   138  H    0.121418
 Sum of Mulliken charges =   0.00000

 Dipole moment (field-independent basis, Debye):
    X=              2.7661    Y=              5.7678    Z=              0.2819  Tot=              6.4030
 Quadrupole moment (field-independent basis, Debye-Ang):
   XX=           -335.5496   YY=           -381.4287   ZZ=           -396.3194
   XY=            -48.2880   XZ=              6.8640   YZ=             -1.9544

 Normal termination of Gaussian 09 at Sat Aug  3 20:09:35 2019.
