 Gaussian 09, Revision D.01,
 Gaussian 09:  ES64L-G09RevD.01 24-Apr-2013

 --------------------------
 # td=(NStates=1) B3LYP/SVP
 --------------------------

 --
 TD
 --
 Symbolic Z-matrix:
 Charge =  0 Multiplicity = 1

                         Standard orientation:
 ---------------------------------------------------------------------
 Center     Atomic      Atomic             Coordinates (Angstroms)
 Number     Number       Type             X           Y           Z
 ---------------------------------------------------------------------
      1          6           0       -5.046867   -1.845118    0.402709
      2          6           0       -4.751717    2.800414    1.322733
      3          6           0       -9.255041    3.400926   -0.237903
      4          6           0       -9.829519   -1.474085   -0.823194
      5          7           0       -5.190887    0.531638    0.758830
      6          6           0       -4.480077   -0.702358    0.789394
      7          6           0       -3.077651   -0.569767    1.195654
      8          6           0       -3.022403    0.991117    1.710201
      9          6           0       -4.363002    1.471371    1.298051
     10          6           0       -2.879104    1.003466    3.262579
     11          6           0       -1.940912   -0.701648    0.001725
     12          6           0       -0.654554   -0.811151    0.403768
     13          6           0        0.384617   -1.152633   -0.678149
     14          8           0        0.086161   -1.648880   -1.690913
     15          8           0        1.573677   -0.903224   -0.337315
     16          7           0       -6.971140    2.744073    0.426752
     17          6           0       -5.885487    3.419563    0.844711
     18          6           0       -6.210892    4.809419    0.924206
     19          6           0       -7.464664    5.011108    0.439011
     20          6           0       -7.943771    3.728761    0.121471
     21          6           0       -5.300899    5.933811    1.446535
     22          6           0       -8.233898    6.308194    0.366335
     23          6           0       -9.253128    6.628778   -0.486342
     24          7           0       -9.158703    0.894664   -0.477848
     25          6           0       -9.873084    2.075221   -0.545319
     26          6           0      -11.228628    1.829991   -0.967814
     27          6           0      -11.432927    0.508096   -1.230109
     28          6           0      -10.110554   -0.033600   -0.862390
     29          6           0      -12.251123    2.972729   -1.153475
     30          6           0      -12.659827   -0.321958   -1.572218
     31          6           0      -12.849981   -0.682590   -3.034629
     32          7           0       -7.521434   -1.231427   -0.100050
     33          6           0       -8.536527   -2.040268   -0.569241
     34          6           0       -8.138324   -3.389493   -0.569289
     35          6           0       -6.796878   -3.316953   -0.126687
     36          6           0       -6.440255   -1.952453    0.146995
     37          6           0       -8.898215   -4.541806   -0.944033
     38          6           0       -5.694088   -4.211303    0.110045
     39          8           0       -5.568327   -5.422619    0.210944
     40          6           0       -4.431148   -3.262076    0.478117
     41          6           0       -3.906396   -3.756041    1.764796
     42          8           0       -4.168710   -3.293672    2.886760
     43          8           0       -3.002737   -4.739354    1.656534
     44          6           0       -2.663556   -5.502375    2.760667
     45          6           0        2.643931   -1.327278   -1.251869
     46          6           0        4.026882   -0.832237   -0.572691
     47          6           0        4.989750   -0.102432   -1.057913
     48          6           0        4.821706    0.566530   -2.446691
     49          6           0        6.275482    0.066359   -0.325839
     50          6           0        7.514870   -0.560268   -0.996545
     51          6           0        8.909813   -0.267389   -0.231180
     52          6           0       10.112861   -0.899193   -0.904108
     53          6           0       10.045526   -2.372809   -1.054192
     54          6           0       11.353216   -0.320249   -0.061785
     55          6           0       12.672992   -0.490773   -0.679977
     56          6           0       13.704590    0.033454    0.298418
     57          6           0       15.185810   -0.059145   -0.295326
     58          6           0       15.565363   -1.572905   -0.479296
     59          6           0       16.131917    0.779230    0.619254
     60          6           0       17.580258    0.796999   -0.133663
     61          6           0       18.594048    1.826006    0.596070
     62          6           0       20.042829    1.767122    0.184040
     63          6           0       20.284954    2.289841   -1.318646
     64          6           0       20.952864    2.540375    1.264248
     65          1           0       -3.845727    3.349435    1.676369
     66          1           0       -9.991077    4.123238   -0.325694
     67          1           0      -10.481241   -2.375999   -1.297250
     68          1           0       -2.921524   -1.337055    2.052087
     69          1           0       -2.102140    1.602868    1.101176
     70          1           0       -1.927787    0.736689    3.434093
     71          1           0       -3.060126    2.015693    3.792164
     72          1           0       -3.504355    0.308570    3.575398
     73          1           0       -2.303646   -1.790340   -0.528506
     74          1           0       -2.171028    0.267216   -0.684195
     75          1           0       -0.518802    0.150931    0.836630
     76          1           0       -0.441705   -1.566443    1.053001
     77          1           0       -4.503305    6.210103    0.904024
     78          1           0       -5.864776    6.826159    1.306895
     79          1           0       -5.023876    5.751964    2.434817
     80          1           0       -8.032082    7.030801    1.075620
     81          1           0       -9.571930    5.796248   -1.113016
     82          1           0      -10.041438    7.369908   -0.363585
     83          1           0      -12.475521    3.408009   -0.071589
     84          1           0      -11.994774    3.820053   -1.831537
     85          1           0      -13.228251    2.665351   -1.493199
     86          1           0      -12.747786   -1.190040   -0.776143
     87          1           0      -13.598081    0.349282   -1.094229
     88          1           0      -12.696676    0.415016   -3.442870
     89          1           0      -12.024851   -1.317681   -3.294114
     90          1           0      -13.782440   -1.208390   -3.379763
     91          1           0       -9.912544   -4.744552   -0.595943
     92          1           0       -9.256338   -4.666716   -2.053747
     93          1           0       -8.447962   -5.432835   -0.542838
     94          1           0       -3.743745   -3.349422   -0.437218
     95          1           0       -2.247079   -6.467329    2.084943
     96          1           0       -1.769241   -4.911316    3.314673
     97          1           0       -3.555166   -5.937854    3.196190
     98          1           0        2.521034   -2.507282   -1.220559
     99          1           0        2.476909   -0.774458   -2.070632
    100          1           0        4.192529   -1.180191    0.461731
    101          1           0        4.789398    1.778615   -2.410380
    102          1           0        5.776574    0.209278   -3.024787
    103          1           0        3.814535    0.334177   -2.928834
    104          1           0        6.440391    1.176420   -0.014170
    105          1           0        6.116874   -0.538635    0.694771
    106          1           0        7.487727   -1.676563   -1.242729
    107          1           0        7.446764   -0.143286   -1.922170
    108          1           0        8.956552    0.913865   -0.121509
    109          1           0        8.721655   -0.663658    0.877695
    110          1           0       10.074475   -0.390991   -2.061448
    111          1           0        9.344449   -2.783807   -1.795228
    112          1           0       11.150402   -2.795354   -1.474217
    113          1           0       10.010331   -2.726690   -0.155649
    114          1           0       11.103908    0.606310    0.175067
    115          1           0       11.255319   -0.985154    1.001818
    116          1           0       12.758328   -1.601221   -0.950350
    117          1           0       12.637477   -0.206762   -1.667829
    118          1           0       13.551200    1.000238    0.751773
    119          1           0       13.533839   -0.570370    1.359580
    120          1           0       15.289141    0.302016   -1.267494
    121          1           0       14.882666   -2.053101   -1.051780
    122          1           0       16.524215   -1.649093   -1.032656
    123          1           0       15.403432   -2.115433    0.453823
    124          1           0       15.964132    1.771990    0.692549
    125          1           0       16.121463    0.368759    1.705928
    126          1           0       18.253116   -0.365915   -0.016191
    127          1           0       17.512366    0.742883   -1.217042
    128          1           0       17.956465    2.766331    0.391783
    129          1           0       18.538241    1.646032    1.649689
    130          1           0       20.297224    0.649820    0.221161
    131          1           0       19.947710    3.257193   -1.588512
    132          1           0       21.395892    1.941694   -1.613069
    133          1           0       19.776108    1.391701   -1.859056
    134          1           0       20.555002    2.297663    2.427595
    135          1           0       22.086201    2.169693    0.882692
    136          1           0       20.784505    3.584527    1.383320
    137          1           0       -7.195762    1.696360    0.211788
    138          1           0       -7.666246   -0.208983   -0.058328
 ---------------------------------------------------------------------

 SCF Done:  E(RB3LYP) =  -2732.97600661     A.U. after   16 cycles

 Excitation energies and oscillator strengths:

 Excited State   1:      Singlet-A      2.0979 eV  590.99 nm  f=0.1277  <S**2>=0.000
     235 -> 237       -0.30103
     235 -> 238        0.26624
     236 -> 237        0.53656
     236 -> 238        0.21081
 This state for optimization and/or second-order correction.
 Total Energy, E(TD-HF/TD-KS) =  -2732.89890997
 Copying the excited state density for this state as the 1-particle RhoCI density.

 The electronic state is 1-A.
 Alpha  occ. eigenvalues --  -19.17524 -19.16705 -19.11935 -19.11146 -19.10610
 Alpha  occ. eigenvalues --  -14.37052 -14.36994 -14.31931 -14.31111 -10.31122
 Alpha  occ. eigenvalues --  -10.29858 -10.27625 -10.26375 -10.25739 -10.23887
 Alpha  occ. eigenvalues --  -10.23630 -10.23498 -10.22821 -10.22284 -10.22276
 Alpha  occ. eigenvalues --  -10.22144 -10.22091 -10.21833 -10.21761 -10.21598
 Alpha  occ. eigenvalues --  -10.21575 -10.21317 -10.21156 -10.21121 -10.20944
 Alpha  occ. eigenvalues --  -10.20739 -10.20727 -10.20727 -10.20626 -10.20601
 Alpha  occ. eigenvalues --  -10.20593 -10.20465 -10.20338 -10.20311 -10.20211
 Alpha  occ. eigenvalues --  -10.20060 -10.19799 -10.19790 -10.19639 -10.19569
 Alpha  occ. eigenvalues --  -10.19568 -10.19548 -10.19382 -10.19292 -10.19162
 Alpha  occ. eigenvalues --  -10.19101 -10.18902 -10.18850 -10.18841 -10.18710
 Alpha  occ. eigenvalues --  -10.18622 -10.18563 -10.18553 -10.18508 -10.18315
 Alpha  occ. eigenvalues --  -10.17784 -10.17670 -10.17541 -10.16719  -1.12383
 Alpha  occ. eigenvalues --   -1.09393  -1.01999  -1.01625  -0.99306  -0.98606
 Alpha  occ. eigenvalues --   -0.98265  -0.93284  -0.92814  -0.84451  -0.82914
 Alpha  occ. eigenvalues --   -0.82413  -0.82206  -0.81864  -0.81418  -0.80108
 Alpha  occ. eigenvalues --   -0.80049  -0.79185  -0.78683  -0.78323  -0.77579
 Alpha  occ. eigenvalues --   -0.76711  -0.76369  -0.75461  -0.75187  -0.74646
 Alpha  occ. eigenvalues --   -0.73264  -0.73057  -0.72653  -0.71876  -0.71547
 Alpha  occ. eigenvalues --   -0.70517  -0.69268  -0.68690  -0.68091  -0.67490
 Alpha  occ. eigenvalues --   -0.67352  -0.66977  -0.66298  -0.66209  -0.65172
 Alpha  occ. eigenvalues --   -0.64062  -0.62856  -0.62286  -0.61617  -0.61218
 Alpha  occ. eigenvalues --   -0.60428  -0.58699  -0.58312  -0.58025  -0.57766
 Alpha  occ. eigenvalues --   -0.56965  -0.56886  -0.56341  -0.56026  -0.55599
 Alpha  occ. eigenvalues --   -0.54860  -0.54704  -0.54425  -0.53996  -0.52602
 Alpha  occ. eigenvalues --   -0.52267  -0.51763  -0.51384  -0.51339  -0.51004
 Alpha  occ. eigenvalues --   -0.50359  -0.49123  -0.48889  -0.48667  -0.48419
 Alpha  occ. eigenvalues --   -0.47976  -0.47620  -0.47113  -0.46826  -0.46797
 Alpha  occ. eigenvalues --   -0.46493  -0.46297  -0.46017  -0.45882  -0.45614
 Alpha  occ. eigenvalues --   -0.45573  -0.45361  -0.45228  -0.45156  -0.45078
 Alpha  occ. eigenvalues --   -0.44881  -0.44458  -0.44372  -0.43783  -0.43533
 Alpha  occ. eigenvalues --   -0.43456  -0.42935  -0.42857  -0.42852  -0.42677
 Alpha  occ. eigenvalues --   -0.42622  -0.42399  -0.42108  -0.41603  -0.41460
 Alpha  occ. eigenvalues --   -0.41360  -0.40696  -0.40648  -0.40421  -0.40374
 Alpha  occ. eigenvalues --   -0.40278  -0.40016  -0.39951  -0.39337  -0.39114
 Alpha  occ. eigenvalues --   -0.39100  -0.38813  -0.38711  -0.38612  -0.38462
 Alpha  occ. eigenvalues --   -0.38284  -0.38087  -0.37859  -0.37686  -0.37428
 Alpha  occ. eigenvalues --   -0.37357  -0.37297  -0.36990  -0.36724  -0.36634
 Alpha  occ. eigenvalues --   -0.36406  -0.36287  -0.35991  -0.35927  -0.35599
 Alpha  occ. eigenvalues --   -0.35228  -0.35037  -0.34974  -0.34760  -0.34555
 Alpha  occ. eigenvalues --   -0.34439  -0.34231  -0.34135  -0.33833  -0.33692
 Alpha  occ. eigenvalues --   -0.33244  -0.32890  -0.32771  -0.32523  -0.32244
 Alpha  occ. eigenvalues --   -0.31998  -0.31842  -0.31690  -0.31130  -0.31066
 Alpha  occ. eigenvalues --   -0.30491  -0.30447  -0.30358  -0.29526  -0.29382
 Alpha  occ. eigenvalues --   -0.29216  -0.28555  -0.28316  -0.27834  -0.27596
 Alpha  occ. eigenvalues --   -0.27278  -0.26894  -0.26655  -0.26218  -0.25984
 Alpha  occ. eigenvalues --   -0.25595  -0.25021  -0.24445  -0.23579  -0.19657
 Alpha  occ. eigenvalues --   -0.19202
 Alpha virt. eigenvalues --   -0.10292  -0.07991  -0.04243  -0.02363  -0.00336
 Alpha virt. eigenvalues --    0.00096   0.00301   0.01686   0.03094   0.03259
 Alpha virt. eigenvalues --    0.03496   0.03943   0.04061   0.04201   0.04666

 Mulliken charges:
               1
     1  C   -0.077074
     2  C   -0.090841
     3  C   -0.048213
     4  C   -0.072265
     5  N   -0.231427
     6  C   -0.006101
     7  C   -0.057893
     8  C   -0.129420
     9  C   -0.018414
    10  C    0.166589
    11  C   -0.071789
    12  C    0.192246
    13  C    0.080581
    14  O   -0.208401
    15  O   -0.269243
    16  N   -0.110801
    17  C    0.191442
    18  C   -0.177095
    19  C    0.068036
    20  C    0.129214
    21  C    0.222003
    22  C   -0.034673
    23  C   -0.022042
    24  N   -0.287392
    25  C    0.028131
    26  C   -0.116441
    27  C   -0.076846
    28  C    0.058725
    29  C    0.052479
    30  C   -0.036157
    31  C    0.030084
    32  N    0.000923
    33  C   -0.008202
    34  C   -0.038852
    35  C   -0.038521
    36  C    0.123270
    37  C    0.049318
    38  C    0.035762
    39  O   -0.181750
    40  C   -0.031566
    41  C    0.226848
    42  O   -0.267891
    43  O   -0.274245
    44  C    0.128409
    45  C    0.338884
    46  C   -0.121670
    47  C   -0.112117
    48  C   -0.012835
    49  C    0.033313
    50  C    0.043720
    51  C   -0.039241
    52  C   -0.131082
    53  C    0.098905
    54  C    0.023711
    55  C    0.146462
    56  C    0.010445
    57  C   -0.058225
    58  C    0.096932
    59  C    0.106910
    60  C   -0.124497
    61  C    0.056560
    62  C   -0.096638
    63  C    0.001287
    64  C   -0.028100
    65  H   -0.030212
    66  H   -0.069516
    67  H    0.028233
    68  H    0.040257
    69  H    0.039305
    70  H   -0.021004
    71  H    0.020729
    72  H   -0.004393
    73  H    0.026737
    74  H    0.034694
    75  H   -0.011977
    76  H   -0.013534
    77  H   -0.013012
    78  H   -0.022298
    79  H    0.013434
    80  H   -0.013003
    81  H    0.022780
    82  H    0.030984
    83  H    0.030611
    84  H    0.031513
    85  H   -0.000905
    86  H    0.025784
    87  H    0.017146
    88  H    0.036534
    89  H    0.010364
    90  H    0.034485
    91  H    0.003905
    92  H    0.035375
    93  H    0.028357
    94  H    0.078611
    95  H    0.040861
    96  H    0.061259
    97  H    0.042737
    98  H    0.060712
    99  H   -0.026921
   100  H   -0.010008
   101  H    0.041968
   102  H    0.046669
   103  H    0.025319
   104  H    0.024264
   105  H    0.005222
   106  H    0.003756
   107  H   -0.040192
   108  H    0.016073
   109  H    0.009936
   110  H   -0.000390
   111  H    0.030751
   112  H    0.010977
   113  H   -0.040445
   114  H   -0.048893
   115  H    0.000382
   116  H   -0.013948
   117  H   -0.041217
   118  H   -0.017206
   119  H   -0.000793
   120  H   -0.029131
   121  H   -0.039870
   122  H    0.010745
   123  H   -0.005105
   124  H   -0.031825
   125  H    0.013347
   126  H   -0.011930
   127  H    0.016411
   128  H    0.002401
   129  H   -0.008900
   130  H    0.010848
   131  H    0.030016
   132  H    0.017712
   133  H    0.014378
   134  H    0.011906
   135  H    0.043610
   136  H    0.007647
   137  H    0.198426
   138  H    0.145222
 Sum of Mulliken charges =   0.00000

 Dipole moment (field-independent basis, Debye):
    X=              2.0849    Y=              4.5276    Z=             -0.4861  Tot=              5.0082
 Quadrupole moment (field-independent basis, Debye-Ang):
   XX=           -358.9243   YY=           -380.4253   ZZ=           -399.7447
   XY=            -16.6963   XZ=              2.8430   YZ=              5.4921

 Normal termination of Gaussian 09 at Wed Jul 24 04:25:20 2019.
