 Gaussian 09, Revision D.01,
 Gaussian 09:  ES64L-G09RevD.01 24-Apr-2013

 --------------------------
 # td=(NStates=1) B3LYP/SVP
 --------------------------

 --
 TD
 --
 Symbolic Z-matrix:
 Charge =  0 Multiplicity = 1

                         Standard orientation:
 ---------------------------------------------------------------------
 Center     Atomic      Atomic             Coordinates (Angstroms)
 Number     Number       Type             X           Y           Z
 ---------------------------------------------------------------------
      1          6           0       -5.155625   -2.001311    0.466558
      2          6           0       -4.818627    2.654589    1.527647
      3          6           0       -9.296923    3.333671   -0.223717
      4          6           0       -9.765058   -1.415252   -0.949182
      5          7           0       -5.255046    0.410961    0.876227
      6          6           0       -4.545141   -0.802506    0.867891
      7          6           0       -3.085871   -0.675855    1.298924
      8          6           0       -3.169247    0.814946    1.891616
      9          6           0       -4.506050    1.316519    1.335584
     10          6           0       -3.005084    0.804206    3.511910
     11          6           0       -2.070329   -0.765974    0.092160
     12          6           0       -0.695434   -0.643326    0.481294
     13          6           0        0.275729   -0.854480   -0.531901
     14          8           0       -0.029325   -1.174146   -1.721407
     15          8           0        1.556908   -0.598524   -0.190367
     16          7           0       -7.027880    2.728176    0.511157
     17          6           0       -5.982849    3.316738    1.039214
     18          6           0       -6.101681    4.733090    1.027823
     19          6           0       -7.399142    4.925762    0.528608
     20          6           0       -8.059510    3.627639    0.179214
     21          6           0       -5.133040    5.863620    1.492453
     22          6           0       -7.990572    6.285150    0.335785
     23          6           0       -9.037663    6.677717   -0.558827
     24          7           0       -9.217378    0.854031   -0.466290
     25          6           0       -9.809530    2.040351   -0.517793
     26          6           0      -11.231873    1.857547   -0.988595
     27          6           0      -11.341091    0.557871   -1.263893
     28          6           0      -10.148363   -0.050564   -0.879046
     29          6           0      -12.301563    2.980376   -1.067031
     30          6           0      -12.677633   -0.207543   -1.698628
     31          6           0      -12.582651   -0.616301   -3.132929
     32          7           0       -7.529929   -1.339109   -0.049796
     33          6           0       -8.565934   -2.111281   -0.594464
     34          6           0       -8.243753   -3.489143   -0.625143
     35          6           0       -6.931261   -3.458904   -0.301417
     36          6           0       -6.547085   -2.128409    0.010644
     37          6           0       -9.035891   -4.639490   -1.015181
     38          6           0       -5.820340   -4.381247   -0.043881
     39          8           0       -5.695798   -5.596228   -0.214342
     40          6           0       -4.621732   -3.409690    0.324702
     41          6           0       -3.892121   -3.838693    1.731597
     42          8           0       -4.280031   -3.533941    2.835325
     43          8           0       -2.890723   -4.739510    1.409876
     44          6           0       -2.316346   -5.416328    2.575750
     45          6           0        2.558049   -0.710361   -1.218369
     46          6           0        3.939594   -0.552341   -0.515321
     47          6           0        4.944375    0.216185   -1.081617
     48          6           0        4.843544    0.968599   -2.363078
     49          6           0        6.293091    0.428699   -0.278420
     50          6           0        7.535228   -0.212407   -1.086233
     51          6           0        8.752017   -0.319900   -0.111110
     52          6           0       10.089973   -0.727943   -0.731285
     53          6           0       10.119388   -2.191838   -1.066849
     54          6           0       11.289856   -0.296567    0.159001
     55          6           0       12.666327   -0.491183   -0.536613
     56          6           0       13.899360   -0.001567    0.321918
     57          6           0       15.210972   -0.149772   -0.302945
     58          6           0       15.688182   -1.679732   -0.328745
     59          6           0       16.235158    0.674746    0.341019
     60          6           0       17.679298    0.623995   -0.246319
     61          6           0       18.602250    1.545153    0.475757
     62          6           0       20.112140    1.516834    0.094840
     63          6           0       20.424273    1.847080   -1.388264
     64          6           0       20.985925    2.236263    1.126001
     65          1           0       -4.141971    3.268951    2.122914
     66          1           0      -10.172818    4.123520   -0.496971
     67          1           0      -10.699693   -2.018771   -1.379755
     68          1           0       -3.017597   -1.324785    2.181025
     69          1           0       -2.432874    1.386675    1.376860
     70          1           0       -2.072521    0.449595    3.777041
     71          1           0       -3.203207    1.896741    3.729759
     72          1           0       -3.711851    0.014297    3.906346
     73          1           0       -2.380353   -1.770806   -0.345723
     74          1           0       -2.169098    0.150467   -0.704682
     75          1           0       -0.568433    0.421757    0.997691
     76          1           0       -0.538699   -1.328332    1.483690
     77          1           0       -4.309952    6.098624    0.774697
     78          1           0       -5.822082    6.773385    1.713164
     79          1           0       -4.585511    5.569152    2.530222
     80          1           0       -7.784306    7.129778    0.973390
     81          1           0       -9.393218    5.986691   -1.352830
     82          1           0       -9.403876    7.764978   -0.656520
     83          1           0      -12.194782    3.659278   -0.298444
     84          1           0      -12.127822    3.514094   -2.180152
     85          1           0      -13.342444    2.507530   -1.213626
     86          1           0      -12.844514   -0.911626   -0.944873
     87          1           0      -13.423956    0.588332   -1.361796
     88          1           0      -12.368450    0.315204   -3.817345
     89          1           0      -11.739965   -1.361273   -3.258738
     90          1           0      -13.595382   -1.002393   -3.379709
     91          1           0       -9.726796   -4.984972   -0.271019
     92          1           0       -9.422934   -4.527065   -2.032645
     93          1           0       -8.297011   -5.492557   -0.933459
     94          1           0       -3.881509   -3.315347   -0.594778
     95          1           0       -1.593404   -6.162531    2.103443
     96          1           0       -1.982529   -4.729696    3.213856
     97          1           0       -3.133951   -6.102384    3.053914
     98          1           0        2.427464   -1.700892   -1.643688
     99          1           0        2.393056   -0.019181   -1.843823
    100          1           0        3.954435   -1.138773    0.381814
    101          1           0        5.510734    1.986194   -2.518837
    102          1           0        5.116293    0.123014   -3.208643
    103          1           0        3.772708    1.401404   -2.525722
    104          1           0        6.329398    1.515853    0.081815
    105          1           0        6.166853   -0.105488    0.631398
    106          1           0        7.401307   -1.100585   -1.587540
    107          1           0        7.845572    0.470544   -2.034648
    108          1           0        9.104517    0.634888    0.446687
    109          1           0        8.372807   -0.897468    0.728541
    110          1           0       10.083180   -0.161648   -1.850012
    111          1           0        9.330226   -2.596408   -1.741450
    112          1           0       11.075684   -2.430635   -1.671537
    113          1           0       10.213276   -2.670670    0.008931
    114          1           0       11.253326    0.829114    0.393729
    115          1           0       11.105165   -0.797952    1.089721
    116          1           0       13.116649   -1.516209   -1.040384
    117          1           0       12.705393    0.261338   -1.417953
    118          1           0       13.832975    1.116135    0.487449
    119          1           0       13.683813   -0.519704    1.291425
    120          1           0       15.091337    0.070083   -1.384049
    121          1           0       14.898347   -2.298344   -0.769004
    122          1           0       16.558294   -1.800927   -0.945140
    123          1           0       15.881140   -1.685400    0.908991
    124          1           0       15.886152    1.779766    0.227669
    125          1           0       16.347988    0.613782    1.441255
    126          1           0       18.091182   -0.365335   -0.172548
    127          1           0       17.508620    0.716666   -1.371240
    128          1           0       18.197326    2.679656    0.728257
    129          1           0       18.532882    1.179881    1.415033
    130          1           0       20.386033    0.371781    0.303982
    131          1           0       20.262655    2.791191   -1.485892
    132          1           0       21.580776    1.535327   -1.454012
    133          1           0       19.820825    1.123190   -2.066753
    134          1           0       20.870918    1.725640    2.163792
    135          1           0       22.035878    2.427744    0.847621
    136          1           0       20.640673    3.332899    1.096718
    137          1           0       -7.383576    1.767903    0.554539
    138          1           0       -7.553679   -0.319136    0.190109
 ---------------------------------------------------------------------

 SCF Done:  E(RB3LYP) =  -2733.10312033     A.U. after   17 cycles

 Excitation energies and oscillator strengths:

 Excited State   1:      Singlet-A      2.1564 eV  574.96 nm  f=0.1345  <S**2>=0.000
     235 -> 237       -0.15476
     235 -> 238       -0.30254
     236 -> 237        0.60099
     236 -> 238       -0.12306
 This state for optimization and/or second-order correction.
 Total Energy, E(TD-HF/TD-KS) =  -2733.02387466
 Copying the excited state density for this state as the 1-particle RhoCI density.

 The electronic state is 1-A.
 Alpha  occ. eigenvalues --  -19.17869 -19.17345 -19.13864 -19.12144 -19.11470
 Alpha  occ. eigenvalues --  -14.37540 -14.36990 -14.31510 -14.29771 -10.32507
 Alpha  occ. eigenvalues --  -10.31316 -10.27861 -10.24698 -10.24064 -10.23848
 Alpha  occ. eigenvalues --  -10.23389 -10.23054 -10.22829 -10.22818 -10.22613
 Alpha  occ. eigenvalues --  -10.22103 -10.22076 -10.21666 -10.21648 -10.21619
 Alpha  occ. eigenvalues --  -10.21469 -10.21457 -10.21176 -10.21071 -10.21069
 Alpha  occ. eigenvalues --  -10.20973 -10.20868 -10.20786 -10.20684 -10.20620
 Alpha  occ. eigenvalues --  -10.20489 -10.20212 -10.20139 -10.20094 -10.20070
 Alpha  occ. eigenvalues --  -10.19947 -10.19920 -10.19734 -10.19664 -10.19638
 Alpha  occ. eigenvalues --  -10.19603 -10.19580 -10.19209 -10.19205 -10.19153
 Alpha  occ. eigenvalues --  -10.18923 -10.18901 -10.18897 -10.18620 -10.18434
 Alpha  occ. eigenvalues --  -10.18387 -10.18379 -10.18273 -10.18214 -10.18195
 Alpha  occ. eigenvalues --  -10.18148 -10.18100 -10.18086 -10.17304  -1.08388
 Alpha  occ. eigenvalues --   -1.08152  -1.01616  -1.00963  -1.00847  -0.99265
 Alpha  occ. eigenvalues --   -0.97806  -0.95081  -0.94441  -0.83925  -0.82696
 Alpha  occ. eigenvalues --   -0.82423  -0.82027  -0.81404  -0.81200  -0.80717
 Alpha  occ. eigenvalues --   -0.80455  -0.79833  -0.79128  -0.78108  -0.77278
 Alpha  occ. eigenvalues --   -0.76034  -0.75636  -0.74751  -0.74546  -0.74096
 Alpha  occ. eigenvalues --   -0.73165  -0.72934  -0.72236  -0.71428  -0.70996
 Alpha  occ. eigenvalues --   -0.69856  -0.69338  -0.68272  -0.67611  -0.67310
 Alpha  occ. eigenvalues --   -0.67016  -0.66831  -0.66563  -0.66237  -0.65146
 Alpha  occ. eigenvalues --   -0.63502  -0.62669  -0.62414  -0.61571  -0.61398
 Alpha  occ. eigenvalues --   -0.60872  -0.59599  -0.58891  -0.57998  -0.57514
 Alpha  occ. eigenvalues --   -0.56691  -0.56680  -0.56279  -0.55786  -0.55260
 Alpha  occ. eigenvalues --   -0.55169  -0.54352  -0.53687  -0.53514  -0.52948
 Alpha  occ. eigenvalues --   -0.52649  -0.51907  -0.51660  -0.51333  -0.50065
 Alpha  occ. eigenvalues --   -0.50025  -0.49301  -0.48180  -0.47790  -0.47675
 Alpha  occ. eigenvalues --   -0.47495  -0.47354  -0.47203  -0.47004  -0.46826
 Alpha  occ. eigenvalues --   -0.46642  -0.46514  -0.46013  -0.45580  -0.45410
 Alpha  occ. eigenvalues --   -0.45301  -0.44932  -0.44802  -0.44458  -0.44310
 Alpha  occ. eigenvalues --   -0.44167  -0.44009  -0.43705  -0.43675  -0.43509
 Alpha  occ. eigenvalues --   -0.43484  -0.43172  -0.42867  -0.42787  -0.42730
 Alpha  occ. eigenvalues --   -0.42573  -0.42438  -0.41926  -0.41856  -0.41489
 Alpha  occ. eigenvalues --   -0.41359  -0.41131  -0.40932  -0.40404  -0.40323
 Alpha  occ. eigenvalues --   -0.40175  -0.39984  -0.39780  -0.39625  -0.39465
 Alpha  occ. eigenvalues --   -0.39413  -0.39194  -0.39124  -0.38968  -0.38838
 Alpha  occ. eigenvalues --   -0.38675  -0.38518  -0.38180  -0.38033  -0.37920
 Alpha  occ. eigenvalues --   -0.37579  -0.37301  -0.36783  -0.36709  -0.36441
 Alpha  occ. eigenvalues --   -0.36392  -0.36230  -0.36130  -0.35892  -0.35645
 Alpha  occ. eigenvalues --   -0.35451  -0.35180  -0.35068  -0.35028  -0.34949
 Alpha  occ. eigenvalues --   -0.34440  -0.34381  -0.33487  -0.33441  -0.33258
 Alpha  occ. eigenvalues --   -0.33248  -0.32984  -0.32739  -0.32145  -0.32111
 Alpha  occ. eigenvalues --   -0.31719  -0.31602  -0.31128  -0.30944  -0.30919
 Alpha  occ. eigenvalues --   -0.30632  -0.30379  -0.30299  -0.30216  -0.29846
 Alpha  occ. eigenvalues --   -0.29695  -0.29238  -0.28861  -0.28839  -0.28051
 Alpha  occ. eigenvalues --   -0.27344  -0.27244  -0.26950  -0.26656  -0.25820
 Alpha  occ. eigenvalues --   -0.24875  -0.24237  -0.23818  -0.23247  -0.19350
 Alpha  occ. eigenvalues --   -0.19184
 Alpha virt. eigenvalues --   -0.09931  -0.07465  -0.04182  -0.02174  -0.01744
 Alpha virt. eigenvalues --   -0.00564  -0.00474   0.01129   0.02734   0.03670
 Alpha virt. eigenvalues --    0.03782   0.03831   0.03961   0.04453   0.04626

 Mulliken charges:
               1
     1  C    0.012489
     2  C   -0.111865
     3  C   -0.131256
     4  C   -0.098469
     5  N   -0.131140
     6  C   -0.091577
     7  C   -0.046785
     8  C   -0.058956
     9  C   -0.011428
    10  C    0.080635
    11  C    0.043973
    12  C   -0.022940
    13  C    0.223327
    14  O   -0.294993
    15  O   -0.329221
    16  N   -0.024297
    17  C    0.092243
    18  C   -0.115968
    19  C    0.045060
    20  C    0.135933
    21  C    0.035296
    22  C   -0.073341
    23  C   -0.090702
    24  N   -0.215393
    25  C   -0.028114
    26  C   -0.153481
    27  C   -0.124036
    28  C    0.003139
    29  C    0.069089
    30  C    0.080580
    31  C    0.022712
    32  N    0.053969
    33  C    0.077583
    34  C   -0.140542
    35  C   -0.019164
    36  C   -0.011119
    37  C    0.127185
    38  C    0.110961
    39  O   -0.190427
    40  C   -0.089188
    41  C    0.228554
    42  O   -0.215374
    43  O   -0.329564
    44  C    0.193116
    45  C    0.402849
    46  C   -0.097567
    47  C   -0.140343
    48  C   -0.041983
    49  C    0.093968
    50  C    0.026313
    51  C    0.036829
    52  C   -0.131946
    53  C    0.009761
    54  C    0.064590
    55  C   -0.055398
    56  C    0.034304
    57  C   -0.040635
    58  C   -0.011536
    59  C   -0.019925
    60  C    0.043288
    61  C    0.060766
    62  C   -0.145603
    63  C    0.072058
    64  C    0.009253
    65  H   -0.035718
    66  H    0.026971
    67  H    0.004755
    68  H    0.014502
    69  H   -0.026797
    70  H   -0.001149
    71  H    0.028570
    72  H    0.040801
    73  H    0.031101
    74  H    0.040755
    75  H    0.052984
    76  H    0.045977
    77  H    0.051913
    78  H    0.041507
    79  H    0.044076
    80  H    0.007983
    81  H    0.038118
    82  H    0.044787
    83  H    0.026487
    84  H    0.038041
    85  H    0.026540
    86  H   -0.009293
    87  H   -0.012847
    88  H    0.031576
    89  H    0.029303
    90  H    0.019758
    91  H    0.018038
    92  H    0.039740
    93  H    0.030009
    94  H    0.092966
    95  H    0.049822
    96  H    0.008477
    97  H    0.046414
    98  H    0.019170
    99  H   -0.079844
   100  H   -0.010652
   101  H    0.049658
   102  H    0.062736
   103  H    0.047573
   104  H    0.029141
   105  H   -0.020488
   106  H   -0.017976
   107  H    0.007667
   108  H   -0.010052
   109  H   -0.015657
   110  H   -0.001362
   111  H    0.020065
   112  H    0.015459
   113  H    0.012512
   114  H    0.015235
   115  H   -0.003795
   116  H    0.027260
   117  H    0.002434
   118  H   -0.010063
   119  H   -0.005760
   120  H   -0.019173
   121  H    0.007903
   122  H    0.014355
   123  H    0.030540
   124  H   -0.001640
   125  H   -0.008828
   126  H   -0.012343
   127  H   -0.004812
   128  H   -0.005613
   129  H   -0.049163
   130  H   -0.006677
   131  H   -0.026953
   132  H    0.024229
   133  H    0.033021
   134  H    0.033690
   135  H    0.004414
   136  H    0.001034
   137  H    0.150763
   138  H    0.160278
 Sum of Mulliken charges =   0.00000

 Dipole moment (field-independent basis, Debye):
    X=              1.9652    Y=              4.3913    Z=              1.7090  Tot=              5.1055
 Quadrupole moment (field-independent basis, Debye-Ang):
   XX=           -350.2989   YY=           -386.0122   ZZ=           -396.0784
   XY=            -21.2320   XZ=              5.5991   YZ=             -2.0107

 Normal termination of Gaussian 09 at Sat Aug  3 04:47:21 2019.
