 Gaussian 09, Revision D.01,
 Gaussian 09:  ES64L-G09RevD.01 24-Apr-2013

 --------------------------
 # td=(NStates=1) B3LYP/SVP
 --------------------------

 --
 TD
 --
 Symbolic Z-matrix:
 Charge =  0 Multiplicity = 1

                         Standard orientation:
 ---------------------------------------------------------------------
 Center     Atomic      Atomic             Coordinates (Angstroms)
 Number     Number       Type             X           Y           Z
 ---------------------------------------------------------------------
      1          6           0       -5.103135   -1.901191    0.564689
      2          6           0       -4.752429    2.727481    1.436503
      3          6           0       -9.329413    3.336358   -0.255247
      4          6           0       -9.792516   -1.456238   -1.056134
      5          7           0       -5.215106    0.408574    0.913832
      6          6           0       -4.489648   -0.773295    0.915196
      7          6           0       -3.094049   -0.614166    1.386125
      8          6           0       -3.124479    0.781324    1.938043
      9          6           0       -4.439173    1.401066    1.395109
     10          6           0       -3.052494    0.884081    3.477790
     11          6           0       -1.967347   -0.914296    0.190556
     12          6           0       -0.498863   -0.871804    0.759791
     13          6           0        0.449542   -1.004988   -0.402190
     14          8           0        0.114973   -1.306021   -1.539579
     15          8           0        1.701092   -0.795227   -0.053546
     16          7           0       -7.002353    2.650470    0.728041
     17          6           0       -5.939593    3.317986    1.163572
     18          6           0       -6.219764    4.721663    1.141524
     19          6           0       -7.452436    4.983928    0.511174
     20          6           0       -8.025513    3.654030    0.322169
     21          6           0       -5.405056    5.727419    1.671771
     22          6           0       -8.124895    6.304317    0.395078
     23          6           0       -8.936100    6.550847   -0.695563
     24          7           0       -9.160877    0.906252   -0.505355
     25          6           0       -9.860394    2.132050   -0.601651
     26          6           0      -11.218576    1.914356   -1.091453
     27          6           0      -11.379036    0.542561   -1.329860
     28          6           0      -10.070158   -0.061219   -0.992937
     29          6           0      -12.260458    2.989758   -1.252819
     30          6           0      -12.587103   -0.255777   -1.745556
     31          6           0      -12.595100   -0.460969   -3.242020
     32          7           0       -7.410156   -1.288545   -0.264204
     33          6           0       -8.517882   -2.065712   -0.689820
     34          6           0       -8.090442   -3.476883   -0.751122
     35          6           0       -6.786638   -3.502371   -0.314815
     36          6           0       -6.458530   -2.168040    0.071822
     37          6           0       -8.969947   -4.584813   -0.997061
     38          6           0       -5.747879   -4.348696    0.001193
     39          8           0       -5.531502   -5.545692   -0.167803
     40          6           0       -4.478141   -3.353486    0.447580
     41          6           0       -3.935589   -3.912685    1.744933
     42          8           0       -4.418956   -3.611916    2.876718
     43          8           0       -2.954563   -4.763082    1.494472
     44          6           0       -2.347934   -5.386599    2.712430
     45          6           0        2.630411   -1.112039   -1.064168
     46          6           0        3.979182   -0.671825   -0.654556
     47          6           0        4.789847    0.235684   -1.119898
     48          6           0        4.675269    0.867731   -2.519921
     49          6           0        6.136119    0.531063   -0.323822
     50          6           0        7.393445   -0.083905   -0.965245
     51          6           0        8.762372    0.175093   -0.229089
     52          6           0        9.924972   -0.458792   -0.923044
     53          6           0        9.850536   -2.062419   -1.149157
     54          6           0       11.267362   -0.195648    0.011695
     55          6           0       12.656354   -0.491704   -0.621635
     56          6           0       13.793022    0.055462    0.255719
     57          6           0       15.156835   -0.165005   -0.466950
     58          6           0       15.609244   -1.611804   -0.648543
     59          6           0       16.266359    0.589575    0.318723
     60          6           0       17.683166    0.581373   -0.206159
     61          6           0       18.641829    1.457338    0.723428
     62          6           0       20.079765    1.426445    0.205409
     63          6           0       20.268426    1.967053   -1.226420
     64          6           0       20.963863    2.231958    1.098601
     65          1           0       -3.859663    3.298004    1.769836
     66          1           0       -9.935644    4.108303   -0.156921
     67          1           0      -10.717009   -2.050305   -1.402716
     68          1           0       -2.983128   -1.380168    2.320577
     69          1           0       -2.323231    1.290420    1.457037
     70          1           0       -2.038998    0.566790    3.738545
     71          1           0       -2.987889    2.017094    3.727387
     72          1           0       -3.746562    0.319225    3.997670
     73          1           0       -2.356084   -1.953709   -0.158156
     74          1           0       -2.124918   -0.066823   -0.571323
     75          1           0       -0.493458    0.226127    1.212083
     76          1           0       -0.422720   -1.835808    1.511627
     77          1           0       -4.563220    6.037439    1.041814
     78          1           0       -5.815809    6.737438    1.731236
     79          1           0       -4.936359    5.517809    2.761581
     80          1           0       -8.103785    7.144085    1.071249
     81          1           0       -9.096921    5.928037   -1.596786
     82          1           0       -9.233506    7.604814   -1.054482
     83          1           0      -12.094363    3.491143   -0.042795
     84          1           0      -11.851520    3.772217   -1.919829
     85          1           0      -13.274110    2.506018   -1.434141
     86          1           0      -12.745765   -1.224585   -1.309691
     87          1           0      -13.466476    0.471834   -1.684347
     88          1           0      -12.571398    0.411954   -3.889812
     89          1           0      -11.905496   -1.082291   -3.683324
     90          1           0      -13.502255   -0.929309   -3.704939
     91          1           0       -9.843473   -4.638403   -0.356846
     92          1           0       -9.362740   -4.445097   -2.025603
     93          1           0       -8.450492   -5.501633   -0.952967
     94          1           0       -3.820620   -3.471448   -0.431729
     95          1           0       -1.579021   -6.229664    2.360772
     96          1           0       -1.804409   -4.724836    3.289667
     97          1           0       -3.144895   -5.907234    3.136191
     98          1           0        2.642917   -2.230681   -1.244904
     99          1           0        2.521351   -0.704112   -2.146161
    100          1           0        4.319706   -0.748894    0.436421
    101          1           0        4.666631    2.111111   -2.624458
    102          1           0        5.578321    0.720927   -2.999051
    103          1           0        3.789802    0.441414   -2.902577
    104          1           0        6.105824    1.671235   -0.470320
    105          1           0        6.002130    0.273626    0.641739
    106          1           0        7.041479   -1.095908   -1.199178
    107          1           0        7.494573    0.213509   -2.003100
    108          1           0        9.003820    1.181256   -0.099488
    109          1           0        8.658590   -0.439855    0.819462
    110          1           0       10.029350   -0.022267   -1.883219
    111          1           0        9.072082   -2.318043   -1.881869
    112          1           0       10.796442   -2.648465   -1.494589
    113          1           0        9.509798   -2.630148   -0.227817
    114          1           0       11.215776    0.897176    0.192945
    115          1           0       11.260450   -0.724697    0.878946
    116          1           0       12.787684   -1.493214   -0.919959
    117          1           0       12.772177   -0.173174   -1.485070
    118          1           0       13.660821    1.168415    0.438024
    119          1           0       14.055559   -0.504388    1.320811
    120          1           0       15.213364    0.178941   -1.497807
    121          1           0       14.740403   -1.839754   -1.230196
    122          1           0       16.528795   -1.469654   -1.449183
    123          1           0       16.009115   -2.340559    0.268464
    124          1           0       15.559196    1.587574    0.492169
    125          1           0       16.331366    0.258418    1.371098
    126          1           0       18.101581   -0.476288   -0.273293
    127          1           0       17.808657    0.955173   -1.212940
    128          1           0       18.241511    2.542877    0.623085
    129          1           0       18.511570    0.865504    1.831932
    130          1           0       20.264417    0.334399    0.238836
    131          1           0       19.794632    3.115939   -1.141604
    132          1           0       21.249230    1.867061   -1.639927
    133          1           0       19.537672    1.381246   -1.794278
    134          1           0       20.617193    2.032147    2.299208
    135          1           0       22.044722    1.921754    0.836807
    136          1           0       20.935991    3.365964    1.073303
    137          1           0       -7.137867    1.642157    0.553605
    138          1           0       -7.513071   -0.166710   -0.177635
 ---------------------------------------------------------------------

 SCF Done:  E(RB3LYP) =  -2733.05574747     A.U. after   17 cycles

 Excitation energies and oscillator strengths:

 Excited State   1:      Singlet-A      2.0112 eV  616.47 nm  f=0.1994  <S**2>=0.000
     235 -> 237       -0.21572
     235 -> 238        0.23765
     236 -> 237        0.60797
     236 -> 238        0.15151
 This state for optimization and/or second-order correction.
 Total Energy, E(TD-HF/TD-KS) =  -2732.98183761
 Copying the excited state density for this state as the 1-particle RhoCI density.

 The electronic state is 1-A.
 Alpha  occ. eigenvalues --  -19.19279 -19.18329 -19.12348 -19.11726 -19.10897
 Alpha  occ. eigenvalues --  -14.37556 -14.36922 -14.31581 -14.30567 -10.31842
 Alpha  occ. eigenvalues --  -10.30944 -10.27199 -10.25773 -10.24884 -10.24850
 Alpha  occ. eigenvalues --  -10.24051 -10.23769 -10.23362 -10.23004 -10.22184
 Alpha  occ. eigenvalues --  -10.22018 -10.21730 -10.21727 -10.21683 -10.21641
 Alpha  occ. eigenvalues --  -10.21548 -10.21487 -10.21451 -10.21337 -10.20961
 Alpha  occ. eigenvalues --  -10.20497 -10.20449 -10.20209 -10.20051 -10.20047
 Alpha  occ. eigenvalues --  -10.20029 -10.19822 -10.19805 -10.19799 -10.19708
 Alpha  occ. eigenvalues --  -10.19647 -10.19439 -10.19412 -10.19313 -10.19293
 Alpha  occ. eigenvalues --  -10.19285 -10.19151 -10.19067 -10.19004 -10.18966
 Alpha  occ. eigenvalues --  -10.18929 -10.18874 -10.18849 -10.18755 -10.18686
 Alpha  occ. eigenvalues --  -10.18656 -10.18551 -10.18527 -10.18511 -10.18357
 Alpha  occ. eigenvalues --  -10.18053 -10.18027 -10.17295 -10.16306  -1.11879
 Alpha  occ. eigenvalues --   -1.08222  -1.01384  -1.00768  -0.97662  -0.97186
 Alpha  occ. eigenvalues --   -0.97087  -0.93689  -0.91184  -0.83441  -0.82645
 Alpha  occ. eigenvalues --   -0.82516  -0.81931  -0.81501  -0.80770  -0.80362
 Alpha  occ. eigenvalues --   -0.80069  -0.79737  -0.79427  -0.78757  -0.77654
 Alpha  occ. eigenvalues --   -0.76920  -0.76422  -0.75138  -0.75066  -0.74540
 Alpha  occ. eigenvalues --   -0.73672  -0.73248  -0.72878  -0.71808  -0.71127
 Alpha  occ. eigenvalues --   -0.70274  -0.68731  -0.68653  -0.67969  -0.66872
 Alpha  occ. eigenvalues --   -0.66564  -0.66479  -0.66313  -0.66225  -0.65270
 Alpha  occ. eigenvalues --   -0.63691  -0.62924  -0.62805  -0.62230  -0.61814
 Alpha  occ. eigenvalues --   -0.61120  -0.59802  -0.58618  -0.57927  -0.57850
 Alpha  occ. eigenvalues --   -0.57038  -0.56559  -0.56229  -0.56147  -0.55391
 Alpha  occ. eigenvalues --   -0.54463  -0.54229  -0.54210  -0.53534  -0.52421
 Alpha  occ. eigenvalues --   -0.52072  -0.51592  -0.51008  -0.50822  -0.50289
 Alpha  occ. eigenvalues --   -0.50165  -0.49574  -0.49283  -0.48786  -0.48149
 Alpha  occ. eigenvalues --   -0.47781  -0.47689  -0.47592  -0.47012  -0.46884
 Alpha  occ. eigenvalues --   -0.46539  -0.46303  -0.46199  -0.45911  -0.45768
 Alpha  occ. eigenvalues --   -0.45348  -0.45246  -0.44849  -0.44690  -0.44688
 Alpha  occ. eigenvalues --   -0.44568  -0.44484  -0.44342  -0.43997  -0.43495
 Alpha  occ. eigenvalues --   -0.43474  -0.43057  -0.42917  -0.42709  -0.42295
 Alpha  occ. eigenvalues --   -0.42110  -0.42027  -0.41793  -0.41459  -0.41271
 Alpha  occ. eigenvalues --   -0.40999  -0.40935  -0.40530  -0.40270  -0.40182
 Alpha  occ. eigenvalues --   -0.40053  -0.39739  -0.39612  -0.39491  -0.39172
 Alpha  occ. eigenvalues --   -0.39057  -0.38866  -0.38655  -0.38370  -0.38200
 Alpha  occ. eigenvalues --   -0.38025  -0.37913  -0.37670  -0.37536  -0.37398
 Alpha  occ. eigenvalues --   -0.37049  -0.37039  -0.36966  -0.36821  -0.36553
 Alpha  occ. eigenvalues --   -0.36528  -0.36311  -0.36086  -0.36052  -0.35963
 Alpha  occ. eigenvalues --   -0.35655  -0.35450  -0.35298  -0.34996  -0.34768
 Alpha  occ. eigenvalues --   -0.34498  -0.34452  -0.34225  -0.33909  -0.33753
 Alpha  occ. eigenvalues --   -0.33595  -0.33245  -0.32990  -0.32948  -0.32489
 Alpha  occ. eigenvalues --   -0.32099  -0.31773  -0.31683  -0.31453  -0.31282
 Alpha  occ. eigenvalues --   -0.31126  -0.31096  -0.30764  -0.30197  -0.29902
 Alpha  occ. eigenvalues --   -0.29649  -0.28754  -0.28033  -0.27318  -0.27115
 Alpha  occ. eigenvalues --   -0.27097  -0.26936  -0.26412  -0.26308  -0.26083
 Alpha  occ. eigenvalues --   -0.25541  -0.24190  -0.24082  -0.22069  -0.19724
 Alpha  occ. eigenvalues --   -0.18745
 Alpha virt. eigenvalues --   -0.10671  -0.07422  -0.04336  -0.03015  -0.00831
 Alpha virt. eigenvalues --    0.00005   0.00357   0.00476   0.01801   0.02941
 Alpha virt. eigenvalues --    0.03482   0.03973   0.03975   0.04332   0.04655

 Mulliken charges:
               1
     1  C    0.118463
     2  C   -0.096703
     3  C   -0.046681
     4  C   -0.081340
     5  N   -0.208294
     6  C   -0.090733
     7  C   -0.107078
     8  C    0.011855
     9  C   -0.045632
    10  C    0.117387
    11  C   -0.006816
    12  C   -0.015072
    13  C    0.184310
    14  O   -0.247156
    15  O   -0.249816
    16  N   -0.101037
    17  C    0.190779
    18  C   -0.101267
    19  C    0.064951
    20  C    0.073411
    21  C    0.057936
    22  C   -0.031621
    23  C   -0.093643
    24  N   -0.320070
    25  C    0.138410
    26  C   -0.135724
    27  C   -0.083794
    28  C    0.043646
    29  C    0.032254
    30  C    0.123418
    31  C    0.006651
    32  N   -0.096681
    33  C    0.089685
    34  C   -0.149390
    35  C    0.102458
    36  C    0.029501
    37  C    0.141360
    38  C    0.016402
    39  O   -0.192478
    40  C   -0.125213
    41  C    0.236258
    42  O   -0.300727
    43  O   -0.295827
    44  C    0.209535
    45  C    0.269970
    46  C   -0.080150
    47  C   -0.228684
    48  C    0.089954
    49  C    0.115454
    50  C    0.020560
    51  C    0.086052
    52  C   -0.069105
    53  C   -0.028244
    54  C    0.078295
    55  C    0.179714
    56  C   -0.025106
    57  C   -0.107039
    58  C   -0.015050
    59  C    0.025490
    60  C    0.012947
    61  C   -0.058163
    62  C   -0.072957
    63  C    0.017249
    64  C   -0.004477
    65  H   -0.026733
    66  H   -0.071265
    67  H    0.003979
    68  H    0.041999
    69  H   -0.036871
    70  H   -0.001294
    71  H    0.010355
    72  H    0.022322
    73  H    0.048464
    74  H    0.034659
    75  H    0.058394
    76  H    0.073416
    77  H    0.012723
    78  H   -0.006885
    79  H    0.039508
    80  H    0.019835
    81  H    0.036342
    82  H    0.035383
    83  H    0.046360
    84  H    0.042256
    85  H    0.041781
    86  H    0.011513
    87  H    0.002901
    88  H   -0.004929
    89  H   -0.020632
    90  H   -0.010561
    91  H    0.028872
    92  H    0.019620
    93  H    0.017602
    94  H    0.066447
    95  H    0.042312
    96  H    0.027356
    97  H    0.035154
    98  H    0.021501
    99  H    0.032716
   100  H   -0.008201
   101  H    0.027542
   102  H   -0.003545
   103  H   -0.002659
   104  H    0.000079
   105  H   -0.033058
   106  H   -0.005368
   107  H   -0.022865
   108  H   -0.010706
   109  H    0.013054
   110  H   -0.017846
   111  H    0.006198
   112  H    0.027141
   113  H    0.008649
   114  H   -0.011060
   115  H   -0.023019
   116  H   -0.026088
   117  H   -0.108848
   118  H    0.011775
   119  H    0.020151
   120  H   -0.015567
   121  H   -0.014829
   122  H    0.018976
   123  H    0.046028
   124  H   -0.010588
   125  H   -0.019695
   126  H    0.007138
   127  H   -0.006816
   128  H    0.013034
   129  H    0.030338
   130  H   -0.008551
   131  H    0.022174
   132  H    0.018727
   133  H    0.001390
   134  H    0.012291
   135  H    0.016230
   136  H    0.018453
   137  H    0.148367
   138  H    0.214388
 Sum of Mulliken charges =   0.00000

 Dipole moment (field-independent basis, Debye):
    X=              1.7366    Y=              4.6266    Z=             -0.4905  Tot=              4.9661
 Quadrupole moment (field-independent basis, Debye-Ang):
   XX=           -358.9773   YY=           -379.7268   ZZ=           -396.1577
   XY=            -29.9359   XZ=              3.0791   YZ=             -3.1968

 Normal termination of Gaussian 09 at Sat Aug  3 13:26:12 2019.
