 Gaussian 09, Revision D.01,
 Gaussian 09:  ES64L-G09RevD.01 24-Apr-2013

 --------------------------
 # td=(NStates=1) B3LYP/SVP
 --------------------------

 --
 TD
 --
 Symbolic Z-matrix:
 Charge =  0 Multiplicity = 1

                         Standard orientation:
 ---------------------------------------------------------------------
 Center     Atomic      Atomic             Coordinates (Angstroms)
 Number     Number       Type             X           Y           Z
 ---------------------------------------------------------------------
      1          6           0       -5.067993   -1.884517    0.492813
      2          6           0       -4.652321    2.786663    1.421700
      3          6           0       -9.344536    3.349142   -0.240421
      4          6           0       -9.801643   -1.441437   -0.922309
      5          7           0       -5.127517    0.427088    0.856750
      6          6           0       -4.483620   -0.775229    0.755692
      7          6           0       -3.030754   -0.557214    1.243410
      8          6           0       -2.989416    0.877610    1.855800
      9          6           0       -4.304250    1.421170    1.371017
     10          6           0       -2.839592    1.017015    3.373510
     11          6           0       -2.134001   -0.696673    0.053357
     12          6           0       -0.713037   -0.735288    0.469732
     13          6           0        0.330296   -1.053961   -0.581312
     14          8           0        0.041020   -1.311619   -1.731105
     15          8           0        1.584803   -0.792818   -0.220931
     16          7           0       -7.077201    2.667619    0.433917
     17          6           0       -5.899481    3.328732    0.948960
     18          6           0       -6.235590    4.809941    0.980609
     19          6           0       -7.543822    4.869682    0.516652
     20          6           0       -8.018756    3.649952    0.095927
     21          6           0       -5.391896    5.881465    1.483547
     22          6           0       -8.221791    6.250680    0.350799
     23          6           0       -9.146704    6.653821   -0.539755
     24          7           0       -9.237791    0.871177   -0.522097
     25          6           0       -9.835774    2.052035   -0.525502
     26          6           0      -11.362383    1.738679   -0.956486
     27          6           0      -11.411916    0.411949   -1.147586
     28          6           0      -10.086656   -0.115302   -0.861440
     29          6           0      -12.318116    2.884237   -1.085502
     30          6           0      -12.628273   -0.322664   -1.624601
     31          6           0      -12.550981   -0.683211   -3.095908
     32          7           0       -7.532497   -1.330552   -0.303293
     33          6           0       -8.588227   -2.073369   -0.716254
     34          6           0       -8.157215   -3.430010   -0.592523
     35          6           0       -6.815665   -3.450838   -0.198853
     36          6           0       -6.453799   -2.093367    0.038037
     37          6           0       -8.875049   -4.659024   -1.034858
     38          6           0       -5.658046   -4.384333    0.180855
     39          8           0       -5.664478   -5.558110    0.255920
     40          6           0       -4.483544   -3.313406    0.405349
     41          6           0       -3.865876   -3.762071    1.725536
     42          8           0       -4.094276   -3.328818    2.802451
     43          8           0       -2.913488   -4.695565    1.424557
     44          6           0       -2.161867   -5.323870    2.534439
     45          6           0        2.554351   -0.971727   -1.158903
     46          6           0        3.982762   -0.640296   -0.546530
     47          6           0        4.955689    0.264828   -0.932701
     48          6           0        4.686422    0.959662   -2.299911
     49          6           0        6.250669    0.428141   -0.319287
     50          6           0        7.399599   -0.164761   -0.926748
     51          6           0        8.757002   -0.067480   -0.198802
     52          6           0       10.100115   -0.728736   -0.764010
     53          6           0        9.943307   -2.267256   -0.817490
     54          6           0       11.226596   -0.269795    0.032200
     55          6           0       12.595375   -0.638270   -0.508047
     56          6           0       13.743015   -0.093157    0.335545
     57          6           0       15.235532   -0.241183   -0.348861
     58          6           0       15.423493   -1.723445   -0.571124
     59          6           0       16.314912    0.569302    0.496514
     60          6           0       17.619654    0.734251   -0.391073
     61          6           0       18.612236    1.469250    0.642859
     62          6           0       20.107636    1.618033    0.063428
     63          6           0       20.121378    2.314065   -1.357742
     64          6           0       21.041655    2.210111    1.063927
     65          1           0       -3.968972    3.519900    1.815204
     66          1           0      -10.176838    3.916472   -0.350513
     67          1           0      -10.653530   -2.088288   -1.312880
     68          1           0       -2.631815   -1.205830    2.013319
     69          1           0       -2.117203    1.352436    1.438791
     70          1           0       -1.763405    0.360930    3.447422
     71          1           0       -2.673644    2.085746    3.666041
     72          1           0       -3.769750    0.576567    3.929539
     73          1           0       -2.257463   -1.589585   -0.650783
     74          1           0       -2.410598   -0.037014   -0.816498
     75          1           0       -0.272325    0.091280    0.999317
     76          1           0       -0.462865   -1.470797    1.186363
     77          1           0       -4.535994    6.065808    0.784652
     78          1           0       -5.754183    7.076989    1.680133
     79          1           0       -4.929337    5.669435    2.513655
     80          1           0       -8.294787    6.786608    1.370084
     81          1           0       -9.166273    5.810426   -1.468569
     82          1           0       -9.478666    7.649798   -0.314187
     83          1           0      -12.651829    3.302980   -0.027810
     84          1           0      -12.096635    3.652246   -1.633470
     85          1           0      -13.197895    2.447224   -1.257167
     86          1           0      -12.761953   -1.279552   -0.999988
     87          1           0      -13.489299    0.333479   -1.300238
     88          1           0      -12.387601    0.216061   -3.702368
     89          1           0      -11.476400   -1.208200   -3.342224
     90          1           0      -13.226072   -1.333414   -3.350743
     91          1           0       -9.822101   -4.799433   -0.459117
     92          1           0       -9.080434   -4.524147   -2.220200
     93          1           0       -8.205214   -5.573951   -1.006257
     94          1           0       -3.689884   -3.520679   -0.360374
     95          1           0       -1.793423   -6.248353    2.033882
     96          1           0       -1.665225   -4.675838    3.149188
     97          1           0       -3.082729   -5.988043    3.003383
     98          1           0        2.657301   -2.102820   -1.397408
     99          1           0        2.229798   -0.509508   -1.974739
    100          1           0        4.102833   -1.254350    0.341019
    101          1           0        4.942964    2.198633   -2.225155
    102          1           0        5.351817    0.767631   -3.046192
    103          1           0        3.758554    1.114076   -2.597324
    104          1           0        6.333029    1.534732   -0.259291
    105          1           0        6.209385    0.015753    0.848288
    106          1           0        7.189405   -1.262697   -0.955903
    107          1           0        7.698754    0.199901   -1.904142
    108          1           0        8.917787    1.113005   -0.334452
    109          1           0        8.643485   -0.418569    0.952125
    110          1           0       10.365033   -0.328790   -1.827090
    111          1           0        9.101394   -2.591767   -1.228811
    112          1           0       10.828611   -2.771009   -1.374928
    113          1           0        9.902881   -2.706150    0.184059
    114          1           0       11.172147    0.834633    0.045518
    115          1           0       11.088917   -0.543347    1.015991
    116          1           0       12.689549   -1.761230   -0.840658
    117          1           0       12.456665   -0.228690   -1.579996
    118          1           0       13.421720    1.007914    0.618239
    119          1           0       13.618968   -0.658310    1.331472
    120          1           0       15.243898    0.161014   -1.394702
    121          1           0       14.971559   -1.989983   -1.568320
    122          1           0       16.677892   -2.019224   -0.685040
    123          1           0       14.985591   -2.335179    0.295473
    124          1           0       15.772127    1.413297    0.810106
    125          1           0       16.562877    0.049765    1.491170
    126          1           0       18.156018   -0.338684   -0.522581
    127          1           0       17.382301    1.339953   -1.367168
    128          1           0       18.416480    2.579863    1.068035
    129          1           0       18.707384    0.907331    1.651906
    130          1           0       20.121146    0.412726   -0.193287
    131          1           0       19.886639    3.362259   -1.306630
    132          1           0       21.161450    2.377570   -1.635067
    133          1           0       19.534874    1.663476   -2.090570
    134          1           0       21.164046    1.699367    1.940566
    135          1           0       21.977705    2.226103    0.531505
    136          1           0       20.768095    3.207882    1.360541
    137          1           0       -7.015714    1.700517    0.248691
    138          1           0       -7.589241   -0.321394   -0.392949
 ---------------------------------------------------------------------

 SCF Done:  E(RB3LYP) =  -2733.03864340     A.U. after   16 cycles

 Excitation energies and oscillator strengths:

 Excited State   1:      Singlet-A      2.1313 eV  581.72 nm  f=0.1890  <S**2>=0.000
     235 -> 237       -0.18004
     235 -> 238        0.27151
     236 -> 237        0.61588
     236 -> 238        0.11493
 This state for optimization and/or second-order correction.
 Total Energy, E(TD-HF/TD-KS) =  -2732.96031817
 Copying the excited state density for this state as the 1-particle RhoCI density.

 The electronic state is 1-A.
 Alpha  occ. eigenvalues --  -19.18110 -19.16727 -19.13549 -19.12272 -19.11965
 Alpha  occ. eigenvalues --  -14.36887 -14.36521 -14.31692 -14.29867 -10.31341
 Alpha  occ. eigenvalues --  -10.30761 -10.28872 -10.25330 -10.25146 -10.24475
 Alpha  occ. eigenvalues --  -10.24073 -10.23361 -10.23006 -10.22443 -10.21862
 Alpha  occ. eigenvalues --  -10.21555 -10.21508 -10.21499 -10.21285 -10.21202
 Alpha  occ. eigenvalues --  -10.21171 -10.20948 -10.20826 -10.20777 -10.20633
 Alpha  occ. eigenvalues --  -10.20541 -10.20446 -10.20209 -10.20081 -10.20061
 Alpha  occ. eigenvalues --  -10.20031 -10.20027 -10.19983 -10.19912 -10.19903
 Alpha  occ. eigenvalues --  -10.19793 -10.19758 -10.19749 -10.19695 -10.19693
 Alpha  occ. eigenvalues --  -10.19689 -10.19644 -10.19566 -10.19543 -10.19531
 Alpha  occ. eigenvalues --  -10.19486 -10.18836 -10.18773 -10.18768 -10.18648
 Alpha  occ. eigenvalues --  -10.18620 -10.18314 -10.18251 -10.17880 -10.17809
 Alpha  occ. eigenvalues --  -10.17803 -10.17389 -10.16747 -10.16725  -1.11823
 Alpha  occ. eigenvalues --   -1.08391  -1.05575  -1.01028  -1.00577  -0.98655
 Alpha  occ. eigenvalues --   -0.96303  -0.93759  -0.93045  -0.84142  -0.83293
 Alpha  occ. eigenvalues --   -0.82183  -0.81772  -0.81457  -0.80755  -0.79958
 Alpha  occ. eigenvalues --   -0.79713  -0.79695  -0.79048  -0.78572  -0.78168
 Alpha  occ. eigenvalues --   -0.77075  -0.76037  -0.75803  -0.75089  -0.74457
 Alpha  occ. eigenvalues --   -0.73695  -0.73373  -0.72801  -0.71686  -0.71027
 Alpha  occ. eigenvalues --   -0.70059  -0.69889  -0.68710  -0.68597  -0.68167
 Alpha  occ. eigenvalues --   -0.67762  -0.67211  -0.65728  -0.65682  -0.65461
 Alpha  occ. eigenvalues --   -0.63330  -0.62418  -0.62256  -0.61764  -0.61059
 Alpha  occ. eigenvalues --   -0.60791  -0.58888  -0.58714  -0.57632  -0.57417
 Alpha  occ. eigenvalues --   -0.56626  -0.56580  -0.55380  -0.55317  -0.54951
 Alpha  occ. eigenvalues --   -0.54383  -0.54302  -0.54039  -0.53135  -0.52901
 Alpha  occ. eigenvalues --   -0.52853  -0.52688  -0.51982  -0.51147  -0.50843
 Alpha  occ. eigenvalues --   -0.50524  -0.49485  -0.49191  -0.48939  -0.48791
 Alpha  occ. eigenvalues --   -0.48096  -0.48019  -0.47390  -0.47233  -0.46994
 Alpha  occ. eigenvalues --   -0.46719  -0.46626  -0.46211  -0.46142  -0.45797
 Alpha  occ. eigenvalues --   -0.45310  -0.45252  -0.45131  -0.45000  -0.44739
 Alpha  occ. eigenvalues --   -0.44462  -0.44383  -0.44270  -0.43874  -0.43701
 Alpha  occ. eigenvalues --   -0.43533  -0.43517  -0.43158  -0.43039  -0.42614
 Alpha  occ. eigenvalues --   -0.42292  -0.42110  -0.41881  -0.41746  -0.41544
 Alpha  occ. eigenvalues --   -0.41495  -0.41198  -0.40947  -0.40631  -0.40554
 Alpha  occ. eigenvalues --   -0.40463  -0.40127  -0.40107  -0.39785  -0.39420
 Alpha  occ. eigenvalues --   -0.39266  -0.39131  -0.38946  -0.38842  -0.38603
 Alpha  occ. eigenvalues --   -0.38520  -0.38341  -0.38093  -0.38070  -0.37717
 Alpha  occ. eigenvalues --   -0.37544  -0.37398  -0.37263  -0.36977  -0.36922
 Alpha  occ. eigenvalues --   -0.36517  -0.36309  -0.36071  -0.35698  -0.35573
 Alpha  occ. eigenvalues --   -0.35304  -0.35084  -0.34724  -0.34450  -0.34194
 Alpha  occ. eigenvalues --   -0.34111  -0.34063  -0.33973  -0.33845  -0.33713
 Alpha  occ. eigenvalues --   -0.33638  -0.32821  -0.32658  -0.32375  -0.32318
 Alpha  occ. eigenvalues --   -0.32089  -0.31922  -0.31679  -0.31665  -0.31031
 Alpha  occ. eigenvalues --   -0.30928  -0.30286  -0.30136  -0.29843  -0.29610
 Alpha  occ. eigenvalues --   -0.29490  -0.28958  -0.28114  -0.27782  -0.27554
 Alpha  occ. eigenvalues --   -0.26884  -0.26573  -0.25906  -0.25631  -0.25465
 Alpha  occ. eigenvalues --   -0.25015  -0.24803  -0.24569  -0.23432  -0.19858
 Alpha  occ. eigenvalues --   -0.19094
 Alpha virt. eigenvalues --   -0.10317  -0.06854  -0.03639  -0.01660  -0.00659
 Alpha virt. eigenvalues --   -0.00419   0.00584   0.01304   0.02755   0.03502
 Alpha virt. eigenvalues --    0.03518   0.04118   0.04284   0.04663   0.05054

 Mulliken charges:
               1
     1  C    0.147124
     2  C   -0.041074
     3  C    0.014879
     4  C   -0.100559
     5  N   -0.211735
     6  C   -0.110096
     7  C    0.000107
     8  C   -0.002245
     9  C    0.016379
    10  C   -0.000807
    11  C    0.032785
    12  C    0.118036
    13  C    0.121894
    14  O   -0.246491
    15  O   -0.264440
    16  N   -0.101332
    17  C    0.092742
    18  C   -0.071801
    19  C   -0.020038
    20  C    0.178445
    21  C   -0.017225
    22  C   -0.058008
    23  C   -0.044414
    24  N   -0.177247
    25  C   -0.072864
    26  C   -0.171388
    27  C   -0.107694
    28  C    0.072023
    29  C    0.239234
    30  C    0.033189
    31  C    0.078115
    32  N   -0.016894
    33  C    0.055917
    34  C   -0.152874
    35  C   -0.040659
    36  C    0.059247
    37  C    0.029357
    38  C    0.109083
    39  O   -0.116354
    40  C   -0.102747
    41  C    0.186318
    42  O   -0.188776
    43  O   -0.354167
    44  C    0.187574
    45  C    0.296126
    46  C   -0.101702
    47  C   -0.100793
    48  C    0.101015
    49  C    0.079797
    50  C    0.079931
    51  C   -0.086156
    52  C   -0.083761
    53  C    0.086014
    54  C    0.090338
    55  C   -0.024011
    56  C    0.002240
    57  C   -0.061721
    58  C   -0.042222
    59  C    0.073973
    60  C   -0.026519
    61  C   -0.054547
    62  C   -0.173135
    63  C    0.045939
    64  C    0.132820
    65  H   -0.034634
    66  H   -0.086636
    67  H   -0.000955
    68  H   -0.013529
    69  H   -0.013154
    70  H    0.030118
    71  H    0.030108
    72  H    0.057365
    73  H    0.021903
    74  H    0.006014
    75  H    0.003879
    76  H   -0.009139
    77  H    0.037330
    78  H    0.047693
    79  H    0.041041
    80  H    0.030651
    81  H    0.069164
    82  H    0.030809
    83  H    0.013795
    84  H   -0.009287
    85  H   -0.060593
    86  H    0.006309
    87  H    0.010610
    88  H    0.012971
    89  H    0.011029
    90  H   -0.020822
    91  H    0.036197
    92  H    0.041577
    93  H    0.044906
    94  H    0.070821
    95  H    0.040824
    96  H    0.041177
    97  H    0.038045
    98  H    0.018123
    99  H   -0.039422
   100  H   -0.014403
   101  H   -0.016843
   102  H    0.005309
   103  H   -0.016723
   104  H   -0.003711
   105  H    0.013056
   106  H   -0.008195
   107  H   -0.005526
   108  H    0.004098
   109  H    0.013658
   110  H   -0.007840
   111  H   -0.032550
   112  H    0.017729
   113  H   -0.008479
   114  H   -0.016560
   115  H   -0.045395
   116  H    0.007548
   117  H   -0.019495
   118  H    0.006764
   119  H    0.012186
   120  H   -0.005138
   121  H    0.031076
   122  H    0.014728
   123  H    0.028944
   124  H   -0.015115
   125  H   -0.001182
   126  H    0.040270
   127  H    0.047254
   128  H   -0.003205
   129  H    0.007619
   130  H   -0.002802
   131  H   -0.003241
   132  H   -0.009140
   133  H    0.031503
   134  H   -0.017153
   135  H   -0.002076
   136  H   -0.000962
   137  H    0.122379
   138  H    0.133184
 Sum of Mulliken charges =   0.00000

 Dipole moment (field-independent basis, Debye):
    X=              2.2315    Y=              3.9286    Z=              0.3723  Tot=              4.5335
 Quadrupole moment (field-independent basis, Debye-Ang):
   XX=           -354.5502   YY=           -379.5220   ZZ=           -396.6883
   XY=            -20.6222   XZ=             13.6962   YZ=              3.2042

 Normal termination of Gaussian 09 at Tue Jul 30 21:06:05 2019.
