 Gaussian 09, Revision D.01,
 Gaussian 09:  ES64L-G09RevD.01 24-Apr-2013

 --------------------------
 # td=(NStates=1) B3LYP/SVP
 --------------------------

 --
 TD
 --
 Symbolic Z-matrix:
 Charge =  0 Multiplicity = 1

                         Standard orientation:
 ---------------------------------------------------------------------
 Center     Atomic      Atomic             Coordinates (Angstroms)
 Number     Number       Type             X           Y           Z
 ---------------------------------------------------------------------
      1          6           0       -5.105245   -1.936977    0.460522
      2          6           0       -4.684061    2.788596    1.559421
      3          6           0       -9.234052    3.335065   -0.290969
      4          6           0       -9.765653   -1.403382   -0.916097
      5          7           0       -5.111751    0.511433    0.929999
      6          6           0       -4.461096   -0.747673    0.878451
      7          6           0       -3.184495   -0.702110    1.404783
      8          6           0       -3.085368    0.837441    1.915963
      9          6           0       -4.331921    1.345439    1.408734
     10          6           0       -2.821273    0.998821    3.464819
     11          6           0       -2.106613   -0.871487    0.283269
     12          6           0       -0.558491   -0.842921    0.704161
     13          6           0        0.374823   -1.092116   -0.376342
     14          8           0        0.065548   -1.596061   -1.477844
     15          8           0        1.646853   -0.735109   -0.168009
     16          7           0       -6.970599    2.755839    0.534223
     17          6           0       -5.833803    3.438787    1.073912
     18          6           0       -6.204263    4.809275    1.063627
     19          6           0       -7.413921    4.900204    0.548292
     20          6           0       -7.941566    3.645011    0.206550
     21          6           0       -5.178424    5.905696    1.538832
     22          6           0       -8.022681    6.279301    0.347331
     23          6           0       -8.892576    6.685324   -0.625309
     24          7           0       -9.193093    0.911239   -0.598103
     25          6           0       -9.825175    2.108269   -0.598702
     26          6           0      -11.166304    1.950992   -1.077127
     27          6           0      -11.292839    0.575097   -1.204788
     28          6           0      -10.057414   -0.046023   -0.846554
     29          6           0      -12.172437    3.128605   -1.353009
     30          6           0      -12.646843   -0.107500   -1.678833
     31          6           0      -12.577782   -0.519069   -3.092119
     32          7           0       -7.492722   -1.247026   -0.278220
     33          6           0       -8.602814   -2.028367   -0.631466
     34          6           0       -8.160589   -3.434302   -0.672845
     35          6           0       -6.873312   -3.426573   -0.359780
     36          6           0       -6.462751   -1.966737   -0.063957
     37          6           0       -9.065951   -4.558506   -0.979899
     38          6           0       -5.711820   -4.278204    0.002313
     39          8           0       -5.633962   -5.489739   -0.053304
     40          6           0       -4.494698   -3.292676    0.453429
     41          6           0       -3.914763   -3.820173    1.802759
     42          8           0       -4.332403   -3.592473    2.856515
     43          8           0       -3.052004   -4.817580    1.571475
     44          6           0       -2.657875   -5.445347    2.712042
     45          6           0        2.643944   -1.135943   -1.163661
     46          6           0        3.993175   -0.835959   -0.627100
     47          6           0        4.844150   -0.038823   -1.242056
     48          6           0        4.822675    0.713487   -2.548615
     49          6           0        6.153370    0.205119   -0.359669
     50          6           0        7.364719   -0.408564   -1.047705
     51          6           0        8.716172   -0.247953   -0.293211
     52          6           0        9.877729   -0.739781   -0.886276
     53          6           0        9.801938   -2.328848   -1.311165
     54          6           0       11.264721   -0.339451   -0.165636
     55          6           0       12.612635   -0.672257   -0.720462
     56          6           0       13.756503    0.104554    0.147989
     57          6           0       15.171002   -0.146895   -0.451284
     58          6           0       15.553916   -1.649788   -0.129840
     59          6           0       16.149791    0.839239    0.296549
     60          6           0       17.625177    0.702445   -0.168395
     61          6           0       18.538851    1.679530    0.564770
     62          6           0       20.122726    1.656963    0.311741
     63          6           0       20.369303    2.013690   -1.212939
     64          6           0       20.871033    2.546600    1.210209
     65          1           0       -3.925460    3.450082    2.221540
     66          1           0       -9.869476    4.300924   -0.383464
     67          1           0      -10.664471   -1.933276   -1.055521
     68          1           0       -2.959354   -1.509789    1.924899
     69          1           0       -2.455086    1.389165    1.539030
     70          1           0       -1.992294    0.296185    3.610051
     71          1           0       -3.010533    2.028371    3.922556
     72          1           0       -3.543931    0.412703    4.104553
     73          1           0       -2.361705   -1.678370   -0.165243
     74          1           0       -2.087506    0.120794   -0.464184
     75          1           0       -0.384442    0.289508    1.112723
     76          1           0       -0.207008   -1.644897    1.568599
     77          1           0       -4.452370    5.955377    0.705517
     78          1           0       -5.833039    6.871628    1.401254
     79          1           0       -4.676552    5.849192    2.520140
     80          1           0       -7.771910    7.215006    1.085028
     81          1           0       -9.161972    6.132644   -1.553673
     82          1           0       -9.186019    7.904302   -0.579052
     83          1           0      -12.318827    3.698050   -0.609396
     84          1           0      -11.888854    3.709548   -2.014073
     85          1           0      -13.128544    2.781903   -1.544269
     86          1           0      -12.718942   -1.083268   -1.112547
     87          1           0      -13.271997    0.613741   -1.305391
     88          1           0      -12.387314    0.298862   -3.800180
     89          1           0      -11.662538   -1.215036   -3.250200
     90          1           0      -13.632284   -0.952664   -3.269830
     91          1           0       -9.778442   -4.651017   -0.429449
     92          1           0       -9.417505   -4.552361   -2.073681
     93          1           0       -8.461823   -5.583603   -0.846641
     94          1           0       -3.721585   -3.310089   -0.439122
     95          1           0       -2.189779   -6.371267    2.213694
     96          1           0       -2.042093   -4.839264    3.329714
     97          1           0       -3.592842   -5.913563    3.235238
     98          1           0        2.388363   -2.286589   -1.170612
     99          1           0        2.533660   -0.551661   -2.205461
    100          1           0        4.289233   -1.233076    0.359117
    101          1           0        5.194355    1.636892   -2.409606
    102          1           0        5.269303    0.036373   -3.160232
    103          1           0        3.787658    0.568259   -3.033097
    104          1           0        6.366894    1.335302   -0.350137
    105          1           0        6.080359   -0.181744    0.760251
    106          1           0        7.352770   -1.449889   -1.116243
    107          1           0        7.504092   -0.065477   -2.020629
    108          1           0        8.847824    0.980790   -0.313298
    109          1           0        8.649163   -0.643536    0.774605
    110          1           0        9.948795   -0.145781   -1.954730
    111          1           0        9.143837   -2.365259   -2.162932
    112          1           0       10.857521   -2.777868   -1.668467
    113          1           0        9.527695   -3.006417   -0.455898
    114          1           0       11.306895    0.687580    0.084036
    115          1           0       11.313785   -0.680991    0.880577
    116          1           0       12.739195   -1.846242   -0.621597
    117          1           0       12.719909   -0.395995   -1.722602
    118          1           0       13.581947    1.114911    0.074466
    119          1           0       13.628125   -0.093630    1.250954
    120          1           0       15.054234   -0.182470   -1.549267
    121          1           0       14.981174   -2.353190   -0.730721
    122          1           0       16.674663   -1.933515   -0.508668
    123          1           0       15.424638   -1.731257    1.068633
    124          1           0       15.731101    1.916973    0.052178
    125          1           0       16.019130    0.468594    1.382953
    126          1           0       18.108676   -0.264814   -0.148136
    127          1           0       17.641702    0.813379   -1.178813
    128          1           0       18.135815    2.805095    0.691949
    129          1           0       18.491826    1.237763    1.544438
    130          1           0       20.708570    0.637078    0.407530
    131          1           0       20.184319    3.028916   -1.324054
    132          1           0       21.368968    2.012368   -1.586949
    133          1           0       19.713753    1.361453   -1.867936
    134          1           0       20.685905    2.364796    2.289066
    135          1           0       21.957526    2.551193    1.201273
    136          1           0       20.423580    3.521543    1.014254
    137          1           0       -6.899175    1.848925    0.451535
    138          1           0       -7.573284   -0.265860   -0.160248
 ---------------------------------------------------------------------

 SCF Done:  E(RB3LYP) =  -2732.94808260     A.U. after   17 cycles

 Excitation energies and oscillator strengths:

 Excited State   1:      Singlet-A      2.0812 eV  595.74 nm  f=0.2078  <S**2>=0.000
     235 -> 237       -0.11505
     235 -> 238        0.22730
     236 -> 237        0.64079
     236 -> 238        0.14525
 This state for optimization and/or second-order correction.
 Total Energy, E(TD-HF/TD-KS) =  -2732.87160018
 Copying the excited state density for this state as the 1-particle RhoCI density.

 The electronic state is 1-A.
 Alpha  occ. eigenvalues --  -19.17734 -19.17315 -19.13393 -19.12966 -19.11149
 Alpha  occ. eigenvalues --  -14.38036 -14.35419 -14.32025 -14.28156 -10.31714
 Alpha  occ. eigenvalues --  -10.31229 -10.28867 -10.25992 -10.24584 -10.24448
 Alpha  occ. eigenvalues --  -10.23505 -10.23450 -10.23442 -10.23363 -10.22981
 Alpha  occ. eigenvalues --  -10.22701 -10.22617 -10.22127 -10.21739 -10.21169
 Alpha  occ. eigenvalues --  -10.21095 -10.20987 -10.20905 -10.20684 -10.20596
 Alpha  occ. eigenvalues --  -10.20589 -10.20573 -10.20231 -10.20206 -10.20138
 Alpha  occ. eigenvalues --  -10.20073 -10.20047 -10.19923 -10.19760 -10.19722
 Alpha  occ. eigenvalues --  -10.19690 -10.19623 -10.19506 -10.19502 -10.19405
 Alpha  occ. eigenvalues --  -10.19382 -10.19362 -10.19349 -10.19243 -10.19045
 Alpha  occ. eigenvalues --  -10.18935 -10.18604 -10.18594 -10.18348 -10.18211
 Alpha  occ. eigenvalues --  -10.18087 -10.17693 -10.17630 -10.17630 -10.17347
 Alpha  occ. eigenvalues --  -10.17295 -10.17147 -10.16694 -10.15416  -1.12940
 Alpha  occ. eigenvalues --   -1.08688  -1.03926  -1.03099  -1.00571  -0.98295
 Alpha  occ. eigenvalues --   -0.97932  -0.97314  -0.94024  -0.84777  -0.83107
 Alpha  occ. eigenvalues --   -0.82562  -0.82306  -0.82021  -0.81504  -0.80796
 Alpha  occ. eigenvalues --   -0.80019  -0.79396  -0.79366  -0.78560  -0.77984
 Alpha  occ. eigenvalues --   -0.77117  -0.76515  -0.75770  -0.74691  -0.74396
 Alpha  occ. eigenvalues --   -0.74145  -0.73617  -0.73053  -0.72215  -0.72079
 Alpha  occ. eigenvalues --   -0.70568  -0.69697  -0.69321  -0.68767  -0.67915
 Alpha  occ. eigenvalues --   -0.67723  -0.66461  -0.66054  -0.65802  -0.65526
 Alpha  occ. eigenvalues --   -0.65325  -0.64080  -0.62984  -0.62359  -0.61362
 Alpha  occ. eigenvalues --   -0.60790  -0.60399  -0.59503  -0.58840  -0.57798
 Alpha  occ. eigenvalues --   -0.57594  -0.56621  -0.56148  -0.55285  -0.54847
 Alpha  occ. eigenvalues --   -0.54556  -0.54478  -0.53832  -0.53695  -0.53277
 Alpha  occ. eigenvalues --   -0.53010  -0.52228  -0.51979  -0.51789  -0.51498
 Alpha  occ. eigenvalues --   -0.50392  -0.50083  -0.49307  -0.48982  -0.48874
 Alpha  occ. eigenvalues --   -0.48298  -0.48047  -0.47804  -0.47649  -0.47342
 Alpha  occ. eigenvalues --   -0.47298  -0.46871  -0.46635  -0.46351  -0.46084
 Alpha  occ. eigenvalues --   -0.45871  -0.45513  -0.45324  -0.45181  -0.44986
 Alpha  occ. eigenvalues --   -0.44673  -0.44629  -0.44524  -0.44217  -0.43923
 Alpha  occ. eigenvalues --   -0.43902  -0.43746  -0.43395  -0.43064  -0.42914
 Alpha  occ. eigenvalues --   -0.42636  -0.42405  -0.42141  -0.41888  -0.41483
 Alpha  occ. eigenvalues --   -0.41373  -0.41327  -0.41180  -0.40922  -0.40436
 Alpha  occ. eigenvalues --   -0.40403  -0.40298  -0.39959  -0.39776  -0.39467
 Alpha  occ. eigenvalues --   -0.39277  -0.39176  -0.39055  -0.38875  -0.38639
 Alpha  occ. eigenvalues --   -0.38467  -0.38365  -0.37987  -0.37855  -0.37794
 Alpha  occ. eigenvalues --   -0.37585  -0.37420  -0.37121  -0.37036  -0.36991
 Alpha  occ. eigenvalues --   -0.36904  -0.36728  -0.36207  -0.35936  -0.35655
 Alpha  occ. eigenvalues --   -0.35498  -0.35326  -0.35145  -0.34951  -0.34716
 Alpha  occ. eigenvalues --   -0.34656  -0.34486  -0.34397  -0.34158  -0.33685
 Alpha  occ. eigenvalues --   -0.33387  -0.33332  -0.33229  -0.33119  -0.32720
 Alpha  occ. eigenvalues --   -0.32124  -0.31777  -0.31588  -0.31192  -0.31111
 Alpha  occ. eigenvalues --   -0.31072  -0.30988  -0.30626  -0.30110  -0.29727
 Alpha  occ. eigenvalues --   -0.29623  -0.29372  -0.29323  -0.28396  -0.28271
 Alpha  occ. eigenvalues --   -0.27829  -0.27513  -0.27086  -0.25998  -0.25393
 Alpha  occ. eigenvalues --   -0.25334  -0.24963  -0.24549  -0.21784  -0.20538
 Alpha  occ. eigenvalues --   -0.17936
 Alpha virt. eigenvalues --   -0.09605  -0.07569  -0.04686  -0.01498  -0.00818
 Alpha virt. eigenvalues --   -0.00226   0.00390   0.00806   0.02282   0.03254
 Alpha virt. eigenvalues --    0.03484   0.03614   0.04539   0.04690   0.04889

 Mulliken charges:
               1
     1  C   -0.044562
     2  C   -0.115896
     3  C   -0.122314
     4  C   -0.063119
     5  N   -0.110388
     6  C    0.008987
     7  C    0.045942
     8  C    0.162114
     9  C   -0.084654
    10  C    0.043520
    11  C    0.053647
    12  C   -0.031602
    13  C    0.184351
    14  O   -0.284454
    15  O   -0.315987
    16  N   -0.003401
    17  C    0.074136
    18  C   -0.123412
    19  C    0.045535
    20  C    0.083888
    21  C    0.086641
    22  C   -0.084686
    23  C   -0.105695
    24  N   -0.201173
    25  C    0.061729
    26  C   -0.185321
    27  C   -0.166019
    28  C    0.016734
    29  C    0.378695
    30  C    0.113852
    31  C    0.008925
    32  N    0.074104
    33  C    0.089261
    34  C   -0.149739
    35  C   -0.009429
    36  C    0.017782
    37  C    0.180311
    38  C    0.090751
    39  O   -0.162015
    40  C   -0.084323
    41  C    0.161098
    42  O   -0.163009
    43  O   -0.258693
    44  C    0.148505
    45  C    0.235927
    46  C   -0.066828
    47  C   -0.194818
    48  C    0.221047
    49  C    0.019858
    50  C    0.074574
    51  C   -0.019360
    52  C   -0.058919
    53  C   -0.027429
    54  C    0.066100
    55  C    0.029346
    56  C    0.025563
    57  C   -0.087643
    58  C   -0.044929
    59  C    0.006100
    60  C    0.109801
    61  C    0.002987
    62  C   -0.118205
    63  C    0.057089
    64  C    0.055777
    65  H    0.010637
    66  H   -0.001328
    67  H   -0.048008
    68  H   -0.073854
    69  H   -0.101583
    70  H    0.013017
    71  H    0.041558
    72  H    0.007401
    73  H   -0.054478
    74  H    0.035608
    75  H    0.064388
    76  H    0.060515
    77  H    0.032074
    78  H    0.013744
    79  H    0.046821
    80  H    0.053888
    81  H    0.044364
    82  H    0.045263
    83  H   -0.060175
    84  H   -0.070057
    85  H   -0.034777
    86  H   -0.005984
    87  H   -0.015328
    88  H    0.007871
    89  H    0.020501
    90  H    0.023497
    91  H   -0.059075
    92  H    0.038431
    93  H    0.043985
    94  H    0.097984
    95  H    0.036504
    96  H    0.021695
    97  H    0.038200
    98  H    0.033185
    99  H    0.045165
   100  H   -0.010725
   101  H    0.012710
   102  H    0.001974
   103  H    0.000239
   104  H    0.005099
   105  H    0.022891
   106  H   -0.028317
   107  H   -0.029494
   108  H    0.000311
   109  H    0.001399
   110  H   -0.007523
   111  H    0.021693
   112  H    0.023787
   113  H    0.022876
   114  H   -0.042425
   115  H   -0.031050
   116  H    0.019744
   117  H   -0.020805
   118  H   -0.034060
   119  H   -0.001576
   120  H   -0.005169
   121  H    0.015067
   122  H    0.019256
   123  H    0.026165
   124  H    0.025542
   125  H    0.013271
   126  H   -0.014070
   127  H   -0.042211
   128  H    0.015173
   129  H   -0.012253
   130  H    0.002489
   131  H   -0.029516
   132  H   -0.014311
   133  H    0.017519
   134  H   -0.005320
   135  H    0.007798
   136  H   -0.008973
   137  H    0.043522
   138  H    0.120971
 Sum of Mulliken charges =   0.00000

 Dipole moment (field-independent basis, Debye):
    X=              3.4171    Y=              3.5963    Z=              0.8153  Tot=              5.0274
 Quadrupole moment (field-independent basis, Debye-Ang):
   XX=           -376.1543   YY=           -386.3492   ZZ=           -393.2853
   XY=            -15.9872   XZ=              2.2777   YZ=             -2.2750

 Normal termination of Gaussian 09 at Fri Jul 26 22:56:54 2019.
