 Gaussian 09, Revision D.01,
 Gaussian 09:  ES64L-G09RevD.01 24-Apr-2013

 --------------------------
 # td=(NStates=1) B3LYP/SVP
 --------------------------

 --
 TD
 --
 Symbolic Z-matrix:
 Charge =  0 Multiplicity = 1

                         Standard orientation:
 ---------------------------------------------------------------------
 Center     Atomic      Atomic             Coordinates (Angstroms)
 Number     Number       Type             X           Y           Z
 ---------------------------------------------------------------------
      1          6           0       -5.178369   -1.921988    0.485488
      2          6           0       -4.765200    2.766765    1.446620
      3          6           0       -9.420549    3.285529   -0.183556
      4          6           0       -9.755411   -1.458778   -1.027224
      5          7           0       -5.196923    0.426956    0.833168
      6          6           0       -4.513445   -0.721290    0.842729
      7          6           0       -3.004124   -0.586057    1.194003
      8          6           0       -3.066919    0.858468    1.798914
      9          6           0       -4.445290    1.416558    1.383212
     10          6           0       -2.995573    0.854033    3.372404
     11          6           0       -2.057925   -0.696147    0.085850
     12          6           0       -0.572240   -0.797499    0.633476
     13          6           0        0.320326   -0.895598   -0.574994
     14          8           0        0.015502   -1.118314   -1.734415
     15          8           0        1.643246   -0.691086   -0.122521
     16          7           0       -7.069540    2.716244    0.501744
     17          6           0       -6.025386    3.393197    1.023530
     18          6           0       -6.317974    4.745450    1.021042
     19          6           0       -7.573790    4.954279    0.522399
     20          6           0       -8.078304    3.609302    0.210236
     21          6           0       -5.406819    5.893351    1.632426
     22          6           0       -8.300839    6.183005    0.472685
     23          6           0       -9.209911    6.686783   -0.489206
     24          7           0       -9.269405    0.836727   -0.606598
     25          6           0       -9.958489    1.939870   -0.541099
     26          6           0      -11.297581    1.836987   -1.176588
     27          6           0      -11.387472    0.400649   -1.305982
     28          6           0      -10.108380   -0.126116   -0.921322
     29          6           0      -12.187066    2.983530   -1.322368
     30          6           0      -12.663463   -0.304624   -1.724926
     31          6           0      -12.710163   -0.659969   -3.220030
     32          7           0       -7.505991   -1.183310   -0.258052
     33          6           0       -8.450412   -2.031425   -0.725161
     34          6           0       -8.070194   -3.357308   -0.730744
     35          6           0       -6.772748   -3.490884   -0.301807
     36          6           0       -6.528730   -2.113097    0.033481
     37          6           0       -9.021737   -4.478817   -1.111575
     38          6           0       -5.593130   -4.314496    0.065615
     39          8           0       -5.509513   -5.502155   -0.069029
     40          6           0       -4.515489   -3.265081    0.512974
     41          6           0       -3.934885   -3.772098    1.794126
     42          8           0       -4.224805   -3.381796    2.930276
     43          8           0       -3.174589   -4.886645    1.671001
     44          6           0       -2.552921   -5.430486    2.778266
     45          6           0        2.646390   -0.909936   -1.114761
     46          6           0        3.942472   -0.473097   -0.340666
     47          6           0        5.050542    0.072619   -0.879145
     48          6           0        5.024902    0.564816   -2.264599
     49          6           0        6.379592    0.222569   -0.176883
     50          6           0        7.593680   -0.376826   -0.913475
     51          6           0        8.807313   -0.274597   -0.107534
     52          6           0       10.161340   -0.754010   -0.784510
     53          6           0       10.034977   -2.265191   -1.083615
     54          6           0       11.308660   -0.416471    0.196189
     55          6           0       12.559346   -0.585786   -0.592803
     56          6           0       13.800460   -0.146806    0.255380
     57          6           0       15.168541   -0.197573   -0.367671
     58          6           0       15.689322   -1.647291   -0.575667
     59          6           0       16.282168    0.674172    0.308118
     60          6           0       17.671361    0.665862   -0.221016
     61          6           0       18.614600    1.781368    0.500810
     62          6           0       20.197672    1.635431    0.064463
     63          6           0       20.357162    2.088583   -1.395998
     64          6           0       20.961845    2.472152    1.020239
     65          1           0       -3.958587    3.441315    1.967633
     66          1           0      -10.072285    4.215692   -0.320828
     67          1           0      -10.447275   -2.229762   -1.378093
     68          1           0       -2.698200   -1.325154    1.986088
     69          1           0       -2.239455    1.312699    1.476480
     70          1           0       -1.992784    0.571365    3.797621
     71          1           0       -3.040361    1.867908    3.659544
     72          1           0       -3.717462    0.348892    4.091421
     73          1           0       -2.387243   -1.584380   -0.556037
     74          1           0       -1.974762    0.191904   -0.567605
     75          1           0       -0.509716    0.234557    1.075431
     76          1           0       -0.675513   -1.498925    1.506822
     77          1           0       -4.327087    5.987199    1.008760
     78          1           0       -6.040629    6.821127    1.434059
     79          1           0       -5.019722    5.716365    2.629434
     80          1           0       -8.011594    6.866194    1.419412
     81          1           0       -9.652093    5.979540   -1.380587
     82          1           0       -9.693058    7.755268   -0.519188
     83          1           0      -12.308693    3.315405   -0.366042
     84          1           0      -11.905641    3.660415   -2.253985
     85          1           0      -13.249614    2.655815   -1.557171
     86          1           0      -12.675142   -1.366376   -1.250411
     87          1           0      -13.390138    0.369011   -1.564544
     88          1           0      -12.267359    0.360966   -3.865926
     89          1           0      -11.981526   -1.293981   -3.327867
     90          1           0      -13.708710   -1.080033   -3.651736
     91          1           0       -9.899582   -4.610004   -0.495125
     92          1           0       -9.535064   -3.957596   -2.058118
     93          1           0       -8.361397   -5.460712   -1.439480
     94          1           0       -3.627127   -3.508660   -0.091525
     95          1           0       -1.867720   -6.421438    2.555434
     96          1           0       -2.286587   -4.677216    3.386063
     97          1           0       -3.342407   -6.037972    3.488229
     98          1           0        2.547566   -1.881518   -1.548130
     99          1           0        2.472703   -0.235673   -1.989407
    100          1           0        4.084998   -0.975493    0.679198
    101          1           0        5.928988    1.405907   -2.104761
    102          1           0        5.663135   -0.184465   -2.833044
    103          1           0        4.119600    0.872528   -2.702842
    104          1           0        6.460545    1.376459    0.002601
    105          1           0        6.230614   -0.205729    0.799391
    106          1           0        7.180447   -1.276070   -1.277861
    107          1           0        7.796933    0.034954   -1.892180
    108          1           0        8.908647    0.935684    0.091760
    109          1           0        8.696253   -0.909545    0.752020
    110          1           0       10.215213   -0.148329   -1.663586
    111          1           0        9.101486   -2.222612   -1.675810
    112          1           0       10.917244   -2.925684   -1.635758
    113          1           0        9.816207   -2.699232    0.023820
    114          1           0       11.426201    0.637261    0.567868
    115          1           0       11.110299   -1.150394    1.107015
    116          1           0       12.574921   -1.622640   -0.936260
    117          1           0       12.589699    0.055598   -1.323049
    118          1           0       13.405429    0.962950    0.416132
    119          1           0       13.947140   -0.597606    1.293357
    120          1           0       15.114458    0.169713   -1.359313
    121          1           0       15.107676   -2.388568   -1.195149
    122          1           0       16.637045   -1.673829   -1.038881
    123          1           0       15.760775   -2.065194    0.531003
    124          1           0       15.802243    1.791597    0.207354
    125          1           0       16.149752    0.380530    1.155484
    126          1           0       17.898883   -0.335538   -0.088540
    127          1           0       17.629397    0.909032   -1.247423
    128          1           0       18.353721    2.771872    0.308933
    129          1           0       18.581325    1.580248    1.429304
    130          1           0       20.424885    0.638640    0.186925
    131          1           0       20.447342    3.236868   -1.490250
    132          1           0       21.463100    1.850119   -1.536317
    133          1           0       19.681134    1.646481   -2.158265
    134          1           0       20.904076    2.348267    2.030140
    135          1           0       22.119831    2.356962    0.835100
    136          1           0       20.498944    3.430327    0.765462
    137          1           0       -6.918059    1.597109    0.306566
    138          1           0       -7.482444   -0.142690   -0.203609
 ---------------------------------------------------------------------

 SCF Done:  E(RB3LYP) =  -2732.98912189     A.U. after   17 cycles

 Excitation energies and oscillator strengths:

 Excited State   1:      Singlet-A      2.0458 eV  606.03 nm  f=0.2081  <S**2>=0.000
     235 -> 237       -0.24502
     235 -> 238        0.25668
     236 -> 237        0.58700
     236 -> 238        0.16632
 This state for optimization and/or second-order correction.
 Total Energy, E(TD-HF/TD-KS) =  -2732.91393915
 Copying the excited state density for this state as the 1-particle RhoCI density.

 The electronic state is 1-A.
 Alpha  occ. eigenvalues --  -19.17924 -19.17269 -19.14335 -19.13180 -19.11904
 Alpha  occ. eigenvalues --  -14.38018 -14.37684 -14.32867 -14.29413 -10.32795
 Alpha  occ. eigenvalues --  -10.31915 -10.29122 -10.25320 -10.24752 -10.24479
 Alpha  occ. eigenvalues --  -10.24043 -10.23998 -10.23391 -10.23327 -10.23107
 Alpha  occ. eigenvalues --  -10.23018 -10.22948 -10.22049 -10.21865 -10.21717
 Alpha  occ. eigenvalues --  -10.21625 -10.21437 -10.21334 -10.21195 -10.20917
 Alpha  occ. eigenvalues --  -10.20883 -10.20775 -10.20646 -10.20519 -10.20386
 Alpha  occ. eigenvalues --  -10.20378 -10.20260 -10.20108 -10.19810 -10.19694
 Alpha  occ. eigenvalues --  -10.19688 -10.19596 -10.19593 -10.19534 -10.19364
 Alpha  occ. eigenvalues --  -10.19221 -10.18846 -10.18830 -10.18810 -10.18778
 Alpha  occ. eigenvalues --  -10.18738 -10.18733 -10.18696 -10.18645 -10.18616
 Alpha  occ. eigenvalues --  -10.18366 -10.18179 -10.18137 -10.17873 -10.17328
 Alpha  occ. eigenvalues --  -10.17179 -10.16744 -10.16575 -10.16491  -1.10060
 Alpha  occ. eigenvalues --   -1.08240  -1.04402  -1.01069  -0.99804  -0.99421
 Alpha  occ. eigenvalues --   -0.98883  -0.95706  -0.94864  -0.85464  -0.83475
 Alpha  occ. eigenvalues --   -0.82433  -0.82185  -0.82021  -0.81659  -0.81159
 Alpha  occ. eigenvalues --   -0.79878  -0.79839  -0.79534  -0.78826  -0.78061
 Alpha  occ. eigenvalues --   -0.77454  -0.76447  -0.75823  -0.74852  -0.74304
 Alpha  occ. eigenvalues --   -0.73583  -0.72876  -0.72317  -0.71811  -0.69844
 Alpha  occ. eigenvalues --   -0.69567  -0.69156  -0.68540  -0.67907  -0.67578
 Alpha  occ. eigenvalues --   -0.67401  -0.66941  -0.66310  -0.66130  -0.65064
 Alpha  occ. eigenvalues --   -0.64180  -0.63312  -0.62659  -0.62089  -0.61551
 Alpha  occ. eigenvalues --   -0.61227  -0.60005  -0.58720  -0.58281  -0.57746
 Alpha  occ. eigenvalues --   -0.57738  -0.56572  -0.56509  -0.56304  -0.56203
 Alpha  occ. eigenvalues --   -0.56120  -0.54947  -0.54666  -0.53958  -0.53788
 Alpha  occ. eigenvalues --   -0.53183  -0.52523  -0.51185  -0.50789  -0.50648
 Alpha  occ. eigenvalues --   -0.49914  -0.49642  -0.49572  -0.48987  -0.48924
 Alpha  occ. eigenvalues --   -0.48347  -0.48029  -0.47933  -0.47773  -0.47124
 Alpha  occ. eigenvalues --   -0.46911  -0.46729  -0.46658  -0.46218  -0.46055
 Alpha  occ. eigenvalues --   -0.45788  -0.45509  -0.45301  -0.45177  -0.45026
 Alpha  occ. eigenvalues --   -0.44804  -0.44632  -0.44570  -0.44515  -0.43901
 Alpha  occ. eigenvalues --   -0.43867  -0.43721  -0.43459  -0.43009  -0.42707
 Alpha  occ. eigenvalues --   -0.42459  -0.42014  -0.41869  -0.41611  -0.41534
 Alpha  occ. eigenvalues --   -0.40887  -0.40823  -0.40658  -0.40388  -0.40320
 Alpha  occ. eigenvalues --   -0.39939  -0.39899  -0.39611  -0.39409  -0.39206
 Alpha  occ. eigenvalues --   -0.39023  -0.38949  -0.38681  -0.38455  -0.38422
 Alpha  occ. eigenvalues --   -0.38102  -0.38018  -0.37947  -0.37727  -0.37478
 Alpha  occ. eigenvalues --   -0.37456  -0.37312  -0.37158  -0.37085  -0.36932
 Alpha  occ. eigenvalues --   -0.36803  -0.36710  -0.36434  -0.36207  -0.36183
 Alpha  occ. eigenvalues --   -0.36076  -0.35909  -0.35698  -0.35321  -0.35043
 Alpha  occ. eigenvalues --   -0.35038  -0.34965  -0.34615  -0.34484  -0.34125
 Alpha  occ. eigenvalues --   -0.33432  -0.33300  -0.33156  -0.32872  -0.32433
 Alpha  occ. eigenvalues --   -0.32071  -0.31748  -0.31744  -0.31625  -0.31504
 Alpha  occ. eigenvalues --   -0.31408  -0.30322  -0.30197  -0.30101  -0.29842
 Alpha  occ. eigenvalues --   -0.29498  -0.29293  -0.28973  -0.28230  -0.27886
 Alpha  occ. eigenvalues --   -0.27605  -0.27306  -0.26898  -0.26683  -0.26425
 Alpha  occ. eigenvalues --   -0.25884  -0.24504  -0.24221  -0.21980  -0.20190
 Alpha  occ. eigenvalues --   -0.18905
 Alpha virt. eigenvalues --   -0.10619  -0.07989  -0.04847  -0.03056  -0.02066
 Alpha virt. eigenvalues --   -0.00922  -0.00013   0.00322   0.01998   0.03416
 Alpha virt. eigenvalues --    0.03718   0.03769   0.03998   0.04723   0.04741

 Mulliken charges:
               1
     1  C    0.091422
     2  C   -0.089521
     3  C   -0.093388
     4  C   -0.123872
     5  N   -0.197483
     6  C   -0.084320
     7  C   -0.034860
     8  C    0.032733
     9  C    0.037929
    10  C    0.040859
    11  C    0.018787
    12  C   -0.003461
    13  C    0.239210
    14  O   -0.221850
    15  O   -0.344565
    16  N   -0.109798
    17  C    0.072470
    18  C   -0.125231
    19  C    0.052634
    20  C    0.078195
    21  C    0.041521
    22  C   -0.103631
    23  C   -0.111296
    24  N   -0.159552
    25  C    0.030294
    26  C   -0.191244
    27  C   -0.144911
    28  C    0.131400
    29  C    0.122824
    30  C    0.158478
    31  C   -0.004515
    32  N   -0.021782
    33  C    0.063454
    34  C   -0.174782
    35  C    0.021604
    36  C    0.037105
    37  C    0.034532
    38  C    0.079066
    39  O   -0.131180
    40  C   -0.031417
    41  C    0.152392
    42  O   -0.251214
    43  O   -0.275056
    44  C    0.163949
    45  C    0.273038
    46  C   -0.095660
    47  C   -0.191582
    48  C    0.072116
    49  C    0.094955
    50  C    0.031541
    51  C    0.020554
    52  C   -0.081690
    53  C   -0.029951
    54  C    0.008225
    55  C    0.150069
    56  C   -0.021946
    57  C   -0.025190
    58  C   -0.009937
    59  C    0.078225
    60  C    0.097830
    61  C    0.108300
    62  C   -0.067908
    63  C    0.007225
    64  C    0.050355
    65  H    0.009241
    66  H    0.004953
    67  H   -0.036548
    68  H    0.015229
    69  H   -0.057730
    70  H    0.002415
    71  H   -0.022059
    72  H    0.042165
    73  H    0.031534
    74  H    0.008223
    75  H    0.037107
    76  H    0.050055
    77  H    0.036271
    78  H    0.034372
    79  H    0.034227
    80  H    0.051061
    81  H    0.064184
    82  H    0.061373
    83  H    0.014497
    84  H    0.053010
    85  H   -0.002318
    86  H    0.010669
    87  H   -0.035790
    88  H    0.013390
    89  H   -0.039855
    90  H    0.036301
    91  H    0.035547
    92  H    0.032191
    93  H    0.074955
    94  H    0.045210
    95  H    0.065067
    96  H   -0.000893
    97  H    0.018369
    98  H    0.017096
    99  H    0.004216
   100  H   -0.002057
   101  H    0.014484
   102  H    0.026825
   103  H    0.025069
   104  H    0.021160
   105  H   -0.019093
   106  H   -0.003835
   107  H   -0.023129
   108  H    0.022127
   109  H   -0.013825
   110  H   -0.024324
   111  H    0.015827
   112  H    0.057716
   113  H    0.023389
   114  H   -0.010522
   115  H    0.005046
   116  H   -0.013864
   117  H   -0.056675
   118  H   -0.007207
   119  H   -0.001661
   120  H   -0.044152
   121  H    0.013535
   122  H    0.001118
   123  H    0.002503
   124  H   -0.006672
   125  H   -0.100551
   126  H   -0.017613
   127  H   -0.021470
   128  H   -0.021434
   129  H   -0.064049
   130  H   -0.031743
   131  H    0.008202
   132  H    0.002725
   133  H    0.034430
   134  H   -0.016964
   135  H    0.010067
   136  H    0.000353
   137  H    0.216532
   138  H    0.151497
 Sum of Mulliken charges =   0.00000

 Dipole moment (field-independent basis, Debye):
    X=              2.2123    Y=              3.7704    Z=              0.1571  Tot=              4.3743
 Quadrupole moment (field-independent basis, Debye-Ang):
   XX=           -356.0497   YY=           -385.3743   ZZ=           -398.8002
   XY=            -32.2063   XZ=              5.2101   YZ=              2.7027

 Normal termination of Gaussian 09 at Thu Jul 25 16:17:19 2019.
