 Gaussian 09, Revision D.01,
 Gaussian 09:  ES64L-G09RevD.01 24-Apr-2013

 --------------------------
 # td=(NStates=1) B3LYP/SVP
 --------------------------

 --
 TD
 --
 Symbolic Z-matrix:
 Charge =  0 Multiplicity = 1

                         Standard orientation:
 ---------------------------------------------------------------------
 Center     Atomic      Atomic             Coordinates (Angstroms)
 Number     Number       Type             X           Y           Z
 ---------------------------------------------------------------------
      1          6           0       -5.062061   -1.936853    0.408515
      2          6           0       -4.888884    2.729002    1.471605
      3          6           0       -9.383804    3.205369   -0.172101
      4          6           0       -9.793039   -1.592683   -1.065751
      5          7           0       -5.183199    0.394401    0.821684
      6          6           0       -4.478599   -0.732935    0.841648
      7          6           0       -3.072683   -0.517962    1.374736
      8          6           0       -3.256516    0.886018    2.181018
      9          6           0       -4.437383    1.406755    1.353448
     10          6           0       -3.547714    0.757776    3.734121
     11          6           0       -2.077801   -0.407464    0.164280
     12          6           0       -0.529238   -0.543149    0.597147
     13          6           0        0.282835   -0.676271   -0.703031
     14          8           0       -0.071456   -0.879303   -1.814840
     15          8           0        1.560715   -0.505423   -0.264898
     16          7           0       -7.087534    2.591828    0.555489
     17          6           0       -6.042272    3.288914    1.084601
     18          6           0       -6.335894    4.667545    1.170975
     19          6           0       -7.597963    4.917291    0.565355
     20          6           0       -7.986830    3.574848    0.162415
     21          6           0       -5.489319    5.727017    1.769703
     22          6           0       -8.315633    6.085230    0.556546
     23          6           0       -9.144114    6.497936   -0.433980
     24          7           0       -9.144078    0.817124   -0.500709
     25          6           0       -9.843806    1.941724   -0.556344
     26          6           0      -11.288964    1.694905   -0.969261
     27          6           0      -11.385429    0.381228   -1.277924
     28          6           0       -9.982091   -0.276748   -0.884132
     29          6           0      -12.291815    2.773159   -1.296112
     30          6           0      -12.501225   -0.561700   -1.843472
     31          6           0      -12.575956   -0.470982   -3.322233
     32          7           0       -7.427691   -1.267322   -0.375603
     33          6           0       -8.455311   -2.117466   -0.844181
     34          6           0       -7.991610   -3.453575   -0.822427
     35          6           0       -6.717010   -3.442807   -0.326952
     36          6           0       -6.358423   -2.113133    0.003568
     37          6           0       -8.738045   -4.708655   -1.150864
     38          6           0       -5.600296   -4.354734    0.024037
     39          8           0       -5.553095   -5.556863    0.041013
     40          6           0       -4.356024   -3.316584    0.443539
     41          6           0       -3.853675   -3.872769    1.798057
     42          8           0       -4.261135   -3.460512    2.882060
     43          8           0       -2.965997   -4.827543    1.641626
     44          6           0       -2.471106   -5.402792    2.854903
     45          6           0        2.641959   -0.772734   -1.302001
     46          6           0        3.928260   -0.436938   -0.623071
     47          6           0        4.984580    0.411296   -1.122411
     48          6           0        4.784152    1.057179   -2.410710
     49          6           0        6.263472    0.602155   -0.375538
     50          6           0        7.554263    0.079080   -1.090971
     51          6           0        8.802559    0.235402   -0.294103
     52          6           0        9.998149   -0.480740   -0.821693
     53          6           0        9.882676   -2.005791   -0.984550
     54          6           0       11.279763   -0.173115    0.251184
     55          6           0       12.594572   -0.461683   -0.454228
     56          6           0       13.775340    0.042482    0.360705
     57          6           0       15.215813   -0.137864   -0.213875
     58          6           0       15.428266   -1.711064   -0.418520
     59          6           0       16.426113    0.496558    0.559270
     60          6           0       17.702538    0.437278   -0.215046
     61          6           0       18.751408    1.348101    0.539394
     62          6           0       20.221026    1.276945    0.016008
     63          6           0       20.273874    1.767224   -1.411496
     64          6           0       21.177900    1.976890    0.976506
     65          1           0       -4.027069    3.510132    1.833811
     66          1           0      -10.118785    4.004516   -0.186883
     67          1           0      -10.410392   -2.176319   -1.602378
     68          1           0       -2.622340   -1.285493    2.002823
     69          1           0       -2.387290    1.490561    1.641846
     70          1           0       -2.599627    0.465540    3.945093
     71          1           0       -3.674092    1.702757    4.039851
     72          1           0       -4.376744   -0.020219    3.878824
     73          1           0       -2.267005   -1.377141   -0.374506
     74          1           0       -2.279488    0.473936   -0.504366
     75          1           0       -0.204591    0.395147    0.968437
     76          1           0       -0.876894   -1.541926    1.136335
     77          1           0       -4.486863    5.720420    1.265514
     78          1           0       -5.938997    6.734169    1.621999
     79          1           0       -5.373532    5.595025    2.956748
     80          1           0       -8.074495    6.806839    1.366320
     81          1           0       -9.184427    5.841102   -1.445836
     82          1           0       -9.557541    7.475819   -0.797674
     83          1           0      -12.377057    3.713690   -0.421228
     84          1           0      -12.208423    3.229653   -2.463905
     85          1           0      -13.254467    2.249396   -1.419189
     86          1           0      -12.316401   -1.574495   -1.361291
     87          1           0      -13.416400   -0.169975   -1.440912
     88          1           0      -12.926858    0.517021   -3.812146
     89          1           0      -11.565704   -0.773496   -3.832957
     90          1           0      -13.455215   -1.258885   -3.665478
     91          1           0       -9.940652   -4.610760   -0.953178
     92          1           0       -8.588905   -4.922899   -2.299051
     93          1           0       -8.252003   -5.691432   -0.742560
     94          1           0       -3.675208   -3.571519   -0.582609
     95          1           0       -1.802438   -6.418724    2.761698
     96          1           0       -1.771221   -4.764160    3.535701
     97          1           0       -3.194455   -5.816411    3.540201
     98          1           0        2.578872   -1.720187   -1.600190
     99          1           0        2.384340   -0.038658   -2.027231
    100          1           0        4.216695   -0.865399    0.303418
    101          1           0        5.177913    2.048400   -2.119666
    102          1           0        5.465358    0.625282   -3.065572
    103          1           0        3.845125    1.272822   -2.935947
    104          1           0        6.526138    1.597999   -0.018869
    105          1           0        6.055987   -0.010481    0.627921
    106          1           0        7.312375   -0.964315   -1.550410
    107          1           0        7.611467    0.660396   -2.021875
    108          1           0        9.150792    1.208899   -0.225216
    109          1           0        8.403221   -0.250391    0.891132
    110          1           0       10.399894   -0.156143   -1.876084
    111          1           0        8.870249   -2.292428   -1.571792
    112          1           0       10.738251   -2.360735   -1.658838
    113          1           0        9.990781   -2.606720   -0.010242
    114          1           0       11.241770    0.851462    0.447509
    115          1           0       11.382328   -0.597418    1.144250
    116          1           0       12.682671   -1.474154   -0.549445
    117          1           0       12.590861   -0.203854   -1.536115
    118          1           0       13.553826    1.288409    0.471993
    119          1           0       13.985281   -0.597352    1.408434
    120          1           0       15.186364    0.380816   -1.196010
    121          1           0       14.743739   -2.034349   -1.500336
    122          1           0       16.440871   -1.922489   -0.873684
    123          1           0       15.377289   -2.288554    0.633389
    124          1           0       16.062377    1.623253    0.801695
    125          1           0       16.541536    0.093714    1.514070
    126          1           0       18.131312   -0.528688   -0.130375
    127          1           0       17.634293    0.988366   -1.190522
    128          1           0       18.263622    2.402751    0.615816
    129          1           0       18.760349    0.889148    1.582719
    130          1           0       20.719573    0.242987    0.082816
    131          1           0       20.277280    3.135224   -1.449933
    132          1           0       21.166049    1.350101   -1.900700
    133          1           0       19.597881    1.272936   -2.024401
    134          1           0       21.177667    1.264359    1.758003
    135          1           0       22.069456    1.934422    0.550351
    136          1           0       20.921079    3.138432    0.979356
    137          1           0       -6.894814    1.600903    0.319819
    138          1           0       -7.623215   -0.342407   -0.211837
 ---------------------------------------------------------------------

 SCF Done:  E(RB3LYP) =  -2732.97177017     A.U. after   17 cycles

 Excitation energies and oscillator strengths:

 Excited State   1:      Singlet-A      1.9961 eV  621.13 nm  f=0.2251  <S**2>=0.000
     235 -> 237       -0.14340
     235 -> 238        0.27481
     236 -> 237        0.63140
 This state for optimization and/or second-order correction.
 Total Energy, E(TD-HF/TD-KS) =  -2732.89841443
 Copying the excited state density for this state as the 1-particle RhoCI density.

 The electronic state is 1-A.
 Alpha  occ. eigenvalues --  -19.19569 -19.16355 -19.12920 -19.12723 -19.11898
 Alpha  occ. eigenvalues --  -14.36749 -14.35908 -14.32248 -14.30288 -10.32130
 Alpha  occ. eigenvalues --  -10.30883 -10.28391 -10.26048 -10.24651 -10.23897
 Alpha  occ. eigenvalues --  -10.23084 -10.23007 -10.22915 -10.22520 -10.22369
 Alpha  occ. eigenvalues --  -10.22277 -10.21781 -10.21666 -10.21521 -10.21228
 Alpha  occ. eigenvalues --  -10.21172 -10.21103 -10.21093 -10.21091 -10.21024
 Alpha  occ. eigenvalues --  -10.20959 -10.20776 -10.20737 -10.20590 -10.20572
 Alpha  occ. eigenvalues --  -10.20440 -10.20366 -10.20357 -10.20318 -10.20243
 Alpha  occ. eigenvalues --  -10.20064 -10.20062 -10.19813 -10.19649 -10.19633
 Alpha  occ. eigenvalues --  -10.19606 -10.19552 -10.19493 -10.19446 -10.19299
 Alpha  occ. eigenvalues --  -10.19146 -10.19138 -10.18954 -10.18865 -10.18815
 Alpha  occ. eigenvalues --  -10.18720 -10.18525 -10.18391 -10.18376 -10.18334
 Alpha  occ. eigenvalues --  -10.18054 -10.17143 -10.17024 -10.17015  -1.10919
 Alpha  occ. eigenvalues --   -1.08247  -1.03536  -1.00484  -0.99922  -0.98248
 Alpha  occ. eigenvalues --   -0.96687  -0.94465  -0.91722  -0.84080  -0.83172
 Alpha  occ. eigenvalues --   -0.82842  -0.81554  -0.80980  -0.80800  -0.79952
 Alpha  occ. eigenvalues --   -0.79723  -0.79428  -0.79319  -0.78351  -0.77566
 Alpha  occ. eigenvalues --   -0.76979  -0.76303  -0.75108  -0.74676  -0.74069
 Alpha  occ. eigenvalues --   -0.73794  -0.73184  -0.72110  -0.71865  -0.70323
 Alpha  occ. eigenvalues --   -0.69821  -0.68759  -0.68535  -0.68345  -0.67689
 Alpha  occ. eigenvalues --   -0.65983  -0.65962  -0.65771  -0.65139  -0.64562
 Alpha  occ. eigenvalues --   -0.63575  -0.63403  -0.61864  -0.61108  -0.60727
 Alpha  occ. eigenvalues --   -0.60381  -0.59259  -0.58055  -0.57719  -0.57571
 Alpha  occ. eigenvalues --   -0.56936  -0.56264  -0.55012  -0.54995  -0.54824
 Alpha  occ. eigenvalues --   -0.54549  -0.54307  -0.54058  -0.53377  -0.52596
 Alpha  occ. eigenvalues --   -0.51714  -0.51576  -0.50832  -0.50503  -0.50338
 Alpha  occ. eigenvalues --   -0.49609  -0.48887  -0.48797  -0.48474  -0.48363
 Alpha  occ. eigenvalues --   -0.48225  -0.47966  -0.47837  -0.47545  -0.47305
 Alpha  occ. eigenvalues --   -0.47006  -0.46604  -0.46168  -0.46044  -0.45448
 Alpha  occ. eigenvalues --   -0.45325  -0.44921  -0.44700  -0.44615  -0.44429
 Alpha  occ. eigenvalues --   -0.44341  -0.44224  -0.44094  -0.43607  -0.43570
 Alpha  occ. eigenvalues --   -0.43475  -0.43168  -0.42837  -0.42561  -0.42475
 Alpha  occ. eigenvalues --   -0.42160  -0.41986  -0.41849  -0.41405  -0.41309
 Alpha  occ. eigenvalues --   -0.41238  -0.40937  -0.40754  -0.40440  -0.40386
 Alpha  occ. eigenvalues --   -0.40057  -0.40027  -0.39477  -0.39404  -0.39254
 Alpha  occ. eigenvalues --   -0.38860  -0.38793  -0.38583  -0.38197  -0.38060
 Alpha  occ. eigenvalues --   -0.37932  -0.37767  -0.37626  -0.37389  -0.37108
 Alpha  occ. eigenvalues --   -0.36890  -0.36626  -0.36595  -0.36369  -0.36211
 Alpha  occ. eigenvalues --   -0.36059  -0.35850  -0.35747  -0.35488  -0.35360
 Alpha  occ. eigenvalues --   -0.35319  -0.35006  -0.34936  -0.34580  -0.34506
 Alpha  occ. eigenvalues --   -0.34403  -0.34179  -0.34061  -0.34036  -0.33435
 Alpha  occ. eigenvalues --   -0.33200  -0.32771  -0.32690  -0.32662  -0.32423
 Alpha  occ. eigenvalues --   -0.32074  -0.31475  -0.31363  -0.31103  -0.31043
 Alpha  occ. eigenvalues --   -0.30943  -0.30889  -0.30766  -0.30634  -0.30346
 Alpha  occ. eigenvalues --   -0.30259  -0.29081  -0.28257  -0.28020  -0.27891
 Alpha  occ. eigenvalues --   -0.27549  -0.27082  -0.26289  -0.25756  -0.25504
 Alpha  occ. eigenvalues --   -0.24769  -0.23859  -0.23561  -0.23061  -0.19502
 Alpha  occ. eigenvalues --   -0.18481
 Alpha virt. eigenvalues --   -0.10339  -0.06875  -0.04389  -0.02557  -0.01371
 Alpha virt. eigenvalues --   -0.00461   0.00263   0.00530   0.02117   0.03056
 Alpha virt. eigenvalues --    0.03390   0.03850   0.03898   0.04206   0.04475

 Mulliken charges:
               1
     1  C    0.011818
     2  C   -0.126322
     3  C   -0.067051
     4  C   -0.058881
     5  N   -0.168915
     6  C   -0.038787
     7  C   -0.058779
     8  C   -0.097334
     9  C   -0.062922
    10  C    0.223340
    11  C   -0.035195
    12  C    0.040775
    13  C    0.171424
    14  O   -0.202071
    15  O   -0.368879
    16  N   -0.049014
    17  C    0.129968
    18  C   -0.147584
    19  C    0.088650
    20  C    0.100382
    21  C    0.054502
    22  C   -0.064918
    23  C   -0.103339
    24  N   -0.247633
    25  C    0.056442
    26  C   -0.112659
    27  C   -0.112011
    28  C    0.125321
    29  C   -0.028410
    30  C    0.103980
    31  C   -0.066691
    32  N   -0.055260
    33  C    0.052258
    34  C   -0.135212
    35  C    0.020749
    36  C    0.132170
    37  C   -0.004044
    38  C    0.057030
    39  O   -0.153290
    40  C   -0.137678
    41  C    0.231177
    42  O   -0.251144
    43  O   -0.245802
    44  C    0.132121
    45  C    0.415673
    46  C   -0.104211
    47  C   -0.181443
    48  C    0.104705
    49  C    0.052301
    50  C   -0.021068
    51  C    0.082446
    52  C   -0.124958
    53  C   -0.029916
    54  C    0.129578
    55  C    0.069420
    56  C   -0.055438
    57  C   -0.053410
    58  C   -0.077325
    59  C    0.028738
    60  C    0.073918
    61  C   -0.037440
    62  C   -0.146974
    63  C    0.040238
    64  C    0.137675
    65  H    0.010603
    66  H   -0.023001
    67  H   -0.042871
    68  H   -0.016131
    69  H    0.004854
    70  H   -0.007994
    71  H   -0.018967
    72  H    0.066416
    73  H    0.020785
    74  H    0.021521
    75  H    0.021598
    76  H    0.066847
    77  H    0.039278
    78  H    0.014292
    79  H    0.046031
    80  H    0.014338
    81  H    0.045559
    82  H    0.045196
    83  H    0.055795
    84  H    0.047072
    85  H    0.009765
    86  H    0.026710
    87  H   -0.005592
    88  H    0.035926
    89  H    0.035130
    90  H    0.022340
    91  H    0.045911
    92  H    0.038802
    93  H    0.058047
    94  H    0.097339
    95  H    0.040735
    96  H    0.040624
    97  H    0.032207
    98  H   -0.002477
    99  H    0.000797
   100  H   -0.029450
   101  H    0.005042
   102  H    0.009411
   103  H    0.025057
   104  H    0.008679
   105  H    0.010129
   106  H    0.017062
   107  H   -0.012074
   108  H   -0.013704
   109  H    0.015652
   110  H    0.013710
   111  H    0.024075
   112  H    0.018196
   113  H    0.027404
   114  H   -0.040886
   115  H   -0.042876
   116  H   -0.036937
   117  H   -0.018367
   118  H    0.012898
   119  H    0.013493
   120  H   -0.016141
   121  H    0.033162
   122  H    0.017609
   123  H    0.040103
   124  H   -0.001283
   125  H   -0.031651
   126  H   -0.004414
   127  H    0.016585
   128  H    0.011270
   129  H   -0.013907
   130  H   -0.006705
   131  H    0.027340
   132  H   -0.008852
   133  H   -0.013301
   134  H   -0.002297
   135  H   -0.046672
   136  H    0.018427
   137  H    0.166196
   138  H    0.085746
 Sum of Mulliken charges =   0.00000

 Dipole moment (field-independent basis, Debye):
    X=              4.3141    Y=              3.9173    Z=             -0.5226  Tot=              5.8507
 Quadrupole moment (field-independent basis, Debye-Ang):
   XX=           -341.2777   YY=           -380.4988   ZZ=           -393.7866
   XY=            -34.1604   XZ=              5.4454   YZ=             -0.8978

 Normal termination of Gaussian 09 at Sun Aug  4 17:28:21 2019.
