 Gaussian 09, Revision D.01,
 Gaussian 09:  ES64L-G09RevD.01 24-Apr-2013

 --------------------------
 # td=(NStates=1) B3LYP/SVP
 --------------------------

 --
 TD
 --
 Symbolic Z-matrix:
 Charge =  0 Multiplicity = 1

                         Standard orientation:
 ---------------------------------------------------------------------
 Center     Atomic      Atomic             Coordinates (Angstroms)
 Number     Number       Type             X           Y           Z
 ---------------------------------------------------------------------
      1          6           0       -5.015707   -1.944412    0.481511
      2          6           0       -4.843371    2.806665    1.184802
      3          6           0       -9.436349    3.129305   -0.237886
      4          6           0       -9.751155   -1.665482   -1.031358
      5          7           0       -5.178672    0.536365    0.761984
      6          6           0       -4.496252   -0.693436    0.934622
      7          6           0       -2.944912   -0.391998    1.236548
      8          6           0       -3.053886    1.062259    1.692428
      9          6           0       -4.466890    1.471985    1.250026
     10          6           0       -2.798787    1.226940    3.125142
     11          6           0       -2.052806   -0.712801    0.016024
     12          6           0       -0.560826   -0.488637    0.464860
     13          6           0        0.321583   -0.949236   -0.711598
     14          8           0       -0.027607   -1.295639   -1.832102
     15          8           0        1.623737   -0.695450   -0.338692
     16          7           0       -7.144081    2.703814    0.450679
     17          6           0       -6.082041    3.333449    0.914633
     18          6           0       -6.436794    4.763211    1.006076
     19          6           0       -7.689385    4.891669    0.486843
     20          6           0       -8.184689    3.523058    0.181079
     21          6           0       -5.584520    5.864308    1.587946
     22          6           0       -8.597810    6.111024    0.505568
     23          6           0       -9.384997    6.533169   -0.534833
     24          7           0       -9.196728    0.718386   -0.514986
     25          6           0       -9.934946    1.797504   -0.427907
     26          6           0      -11.334223    1.645079   -0.772794
     27          6           0      -11.468914    0.331612   -1.057541
     28          6           0      -10.128521   -0.323693   -0.812832
     29          6           0      -12.336766    2.690313   -0.982424
     30          6           0      -12.594218   -0.530494   -1.634964
     31          6           0      -12.552080   -0.723152   -3.160139
     32          7           0       -7.393985   -1.317981   -0.243199
     33          6           0       -8.468240   -2.188966   -0.663122
     34          6           0       -8.070334   -3.459687   -0.599353
     35          6           0       -6.706630   -3.491054   -0.161950
     36          6           0       -6.299622   -2.041726    0.047469
     37          6           0       -8.871086   -4.663360   -1.027631
     38          6           0       -5.549420   -4.374062    0.163028
     39          8           0       -5.567752   -5.543480    0.046839
     40          6           0       -4.341367   -3.288127    0.482489
     41          6           0       -3.822911   -3.625817    1.785739
     42          8           0       -3.928458   -3.147674    2.887036
     43          8           0       -2.799294   -4.645010    1.706002
     44          6           0       -2.315431   -5.282452    2.812389
     45          6           0        2.742741   -1.052246   -1.292785
     46          6           0        4.095664   -0.547513   -0.628786
     47          6           0        4.881312    0.277752   -1.329048
     48          6           0        4.820142    0.955018   -2.659146
     49          6           0        6.186276    0.484381   -0.466897
     50          6           0        7.435158   -0.070412   -1.116751
     51          6           0        8.657873    0.132648   -0.132746
     52          6           0       10.056004   -0.638152   -0.715448
     53          6           0       10.039029   -2.148560   -0.499659
     54          6           0       11.240983   -0.060612    0.083374
     55          6           0       12.662678   -0.303115   -0.539168
     56          6           0       13.834998    0.032678    0.339622
     57          6           0       15.202191   -0.380504   -0.250263
     58          6           0       15.386186   -1.916967   -0.279431
     59          6           0       16.266690    0.422904    0.543892
     60          6           0       17.593604    0.554113   -0.173857
     61          6           0       18.748563    1.379561    0.625882
     62          6           0       20.183361    1.516304   -0.017247
     63          6           0       20.110641    2.146108   -1.314885
     64          6           0       21.049290    2.279320    0.897962
     65          1           0       -4.051768    3.378870    1.550663
     66          1           0      -10.192719    3.930826   -0.308643
     67          1           0      -10.541492   -2.318093   -1.202336
     68          1           0       -2.542654   -0.754561    2.258296
     69          1           0       -2.355785    1.815442    1.286380
     70          1           0       -1.827954    0.919603    3.465088
     71          1           0       -3.130604    2.343604    3.751692
     72          1           0       -3.664821    0.612120    3.651156
     73          1           0       -2.160836   -1.755157   -0.380901
     74          1           0       -2.048558   -0.090796   -0.799633
     75          1           0       -0.191677    0.552500    0.694723
     76          1           0       -0.383895   -1.357533    1.307477
     77          1           0       -4.847263    6.428192    0.898094
     78          1           0       -6.032423    6.857879    1.984589
     79          1           0       -4.889478    5.504424    2.332255
     80          1           0       -8.359217    6.691897    1.341514
     81          1           0       -9.578867    5.848704   -1.500861
     82          1           0       -9.930776    7.641479   -0.517009
     83          1           0      -12.228183    3.610383   -0.329110
     84          1           0      -12.021132    2.953092   -1.991015
     85          1           0      -13.438289    2.148519   -1.162968
     86          1           0      -12.700225   -1.604820   -1.098628
     87          1           0      -13.662337   -0.048377   -1.245401
     88          1           0      -12.728516    0.416383   -3.713433
     89          1           0      -11.616271   -1.315158   -3.704269
     90          1           0      -13.411443   -1.357364   -3.371250
     91          1           0       -9.589816   -4.753688   -0.241769
     92          1           0       -9.164278   -4.581339   -1.975390
     93          1           0       -8.158093   -5.457468   -1.061637
     94          1           0       -3.669087   -3.504365   -0.227476
     95          1           0       -1.549999   -6.001647    2.467684
     96          1           0       -1.720500   -4.665485    3.512412
     97          1           0       -3.078920   -5.849256    3.448350
     98          1           0        2.716512   -2.016701   -1.518594
     99          1           0        2.384716   -0.439982   -2.184959
    100          1           0        4.360841   -1.031578    0.254990
    101          1           0        4.979150    2.010528   -2.517077
    102          1           0        5.587474    0.328594   -3.332933
    103          1           0        3.822522    0.861899   -3.204578
    104          1           0        6.341378    1.622741   -0.265242
    105          1           0        6.124768   -0.290585    0.440450
    106          1           0        7.580362   -1.165141   -1.239343
    107          1           0        7.731562    0.360885   -2.020899
    108          1           0        8.757382    1.038686   -0.042626
    109          1           0        8.550950   -0.268309    0.907511
    110          1           0       10.184972   -0.204989   -1.706195
    111          1           0        9.372505   -2.784763   -1.140161
    112          1           0       10.930077   -2.662105   -0.806009
    113          1           0        9.576246   -2.457583    0.585889
    114          1           0       11.233886    1.089922    0.061394
    115          1           0       11.072861   -0.437831    1.079357
    116          1           0       12.691322   -1.447405   -0.703429
    117          1           0       12.790475    0.022588   -1.668003
    118          1           0       13.915724    1.139241    0.541573
    119          1           0       13.723037   -0.337047    1.250604
    120          1           0       15.197270    0.014359   -1.237992
    121          1           0       14.676152   -2.429806   -1.010355
    122          1           0       16.415252   -2.188877   -0.653334
    123          1           0       15.508118   -2.334743    0.666909
    124          1           0       15.837003    1.384296    0.742554
    125          1           0       16.381189   -0.093334    1.329951
    126          1           0       18.127150   -0.241331   -0.521387
    127          1           0       17.569920    0.943062   -1.239797
    128          1           0       18.206026    2.392379    0.932063
    129          1           0       18.955494    0.866559    1.803802
    130          1           0       20.396924    0.405706   -0.024376
    131          1           0       19.587399    3.203735   -1.150221
    132          1           0       21.099579    2.253174   -1.697005
    133          1           0       19.664550    1.540786   -2.026412
    134          1           0       21.270092    1.667892    1.827524
    135          1           0       22.184742    2.481513    0.619127
    136          1           0       20.631196    3.255795    1.060915
    137          1           0       -7.215018    1.748527    0.255701
    138          1           0       -7.499108   -0.339620   -0.207076
 ---------------------------------------------------------------------

 SCF Done:  E(RB3LYP) =  -2733.02380555     A.U. after   17 cycles

 Excitation energies and oscillator strengths:

 Excited State   1:      Singlet-A      2.1679 eV  571.91 nm  f=0.1695  <S**2>=0.000
     235 -> 237       -0.10329
     235 -> 238       -0.30619
     236 -> 237        0.62389
 This state for optimization and/or second-order correction.
 Total Energy, E(TD-HF/TD-KS) =  -2732.94413651
 Copying the excited state density for this state as the 1-particle RhoCI density.

 The electronic state is 1-A.
 Alpha  occ. eigenvalues --  -19.16017 -19.14528 -19.12920 -19.12359 -19.12255
 Alpha  occ. eigenvalues --  -14.37135 -14.36440 -14.32307 -14.30281 -10.31207
 Alpha  occ. eigenvalues --  -10.30995 -10.28378 -10.24470 -10.23972 -10.23960
 Alpha  occ. eigenvalues --  -10.23856 -10.23150 -10.22829 -10.22790 -10.22489
 Alpha  occ. eigenvalues --  -10.22172 -10.22087 -10.21614 -10.21508 -10.21503
 Alpha  occ. eigenvalues --  -10.21489 -10.21465 -10.21399 -10.21380 -10.21276
 Alpha  occ. eigenvalues --  -10.21219 -10.21163 -10.21007 -10.20667 -10.20657
 Alpha  occ. eigenvalues --  -10.20637 -10.20616 -10.20575 -10.20418 -10.20377
 Alpha  occ. eigenvalues --  -10.19957 -10.19783 -10.19711 -10.19675 -10.19384
 Alpha  occ. eigenvalues --  -10.19289 -10.18973 -10.18943 -10.18789 -10.18753
 Alpha  occ. eigenvalues --  -10.18617 -10.18486 -10.18299 -10.18209 -10.18117
 Alpha  occ. eigenvalues --  -10.18107 -10.17971 -10.17951 -10.17855 -10.17491
 Alpha  occ. eigenvalues --  -10.17158 -10.17149 -10.16735 -10.16518  -1.07287
 Alpha  occ. eigenvalues --   -1.06359  -1.05193  -1.00635  -0.99086  -0.98717
 Alpha  occ. eigenvalues --   -0.97046  -0.95123  -0.93489  -0.85109  -0.82255
 Alpha  occ. eigenvalues --   -0.82172  -0.81988  -0.81479  -0.81440  -0.81069
 Alpha  occ. eigenvalues --   -0.80747  -0.79747  -0.79700  -0.78684  -0.77619
 Alpha  occ. eigenvalues --   -0.76638  -0.76213  -0.75529  -0.74727  -0.74509
 Alpha  occ. eigenvalues --   -0.73516  -0.72988  -0.72162  -0.71375  -0.71032
 Alpha  occ. eigenvalues --   -0.70239  -0.69105  -0.68452  -0.68039  -0.67685
 Alpha  occ. eigenvalues --   -0.67556  -0.67308  -0.66540  -0.66429  -0.64915
 Alpha  occ. eigenvalues --   -0.63803  -0.62316  -0.61950  -0.61489  -0.60863
 Alpha  occ. eigenvalues --   -0.60451  -0.59103  -0.58993  -0.58393  -0.58014
 Alpha  occ. eigenvalues --   -0.57361  -0.56923  -0.56868  -0.55429  -0.55336
 Alpha  occ. eigenvalues --   -0.54599  -0.54435  -0.54324  -0.53922  -0.52988
 Alpha  occ. eigenvalues --   -0.52826  -0.52345  -0.51975  -0.51044  -0.50554
 Alpha  occ. eigenvalues --   -0.49588  -0.49053  -0.48754  -0.48272  -0.48115
 Alpha  occ. eigenvalues --   -0.47843  -0.47528  -0.47315  -0.46998  -0.46813
 Alpha  occ. eigenvalues --   -0.46571  -0.46280  -0.46086  -0.45921  -0.45568
 Alpha  occ. eigenvalues --   -0.45346  -0.45172  -0.45140  -0.45008  -0.44887
 Alpha  occ. eigenvalues --   -0.44749  -0.44128  -0.43877  -0.43657  -0.43567
 Alpha  occ. eigenvalues --   -0.43279  -0.43127  -0.43000  -0.42859  -0.42693
 Alpha  occ. eigenvalues --   -0.42510  -0.42454  -0.42032  -0.41836  -0.41786
 Alpha  occ. eigenvalues --   -0.41478  -0.41100  -0.40960  -0.40885  -0.40773
 Alpha  occ. eigenvalues --   -0.40112  -0.39897  -0.39723  -0.39504  -0.39384
 Alpha  occ. eigenvalues --   -0.39275  -0.39009  -0.38978  -0.38713  -0.38554
 Alpha  occ. eigenvalues --   -0.38434  -0.38260  -0.38195  -0.38059  -0.37970
 Alpha  occ. eigenvalues --   -0.37914  -0.37798  -0.37412  -0.37216  -0.37058
 Alpha  occ. eigenvalues --   -0.36743  -0.36429  -0.36317  -0.35687  -0.35500
 Alpha  occ. eigenvalues --   -0.35176  -0.35109  -0.34891  -0.34497  -0.34301
 Alpha  occ. eigenvalues --   -0.34178  -0.33898  -0.33760  -0.33723  -0.33376
 Alpha  occ. eigenvalues --   -0.33317  -0.33141  -0.32969  -0.32437  -0.32421
 Alpha  occ. eigenvalues --   -0.32010  -0.31985  -0.31709  -0.31200  -0.31191
 Alpha  occ. eigenvalues --   -0.30657  -0.30599  -0.30001  -0.29510  -0.29311
 Alpha  occ. eigenvalues --   -0.29279  -0.28449  -0.27974  -0.27871  -0.27440
 Alpha  occ. eigenvalues --   -0.27111  -0.26911  -0.26742  -0.26573  -0.25581
 Alpha  occ. eigenvalues --   -0.25461  -0.25132  -0.24885  -0.23001  -0.20091
 Alpha  occ. eigenvalues --   -0.18970
 Alpha virt. eigenvalues --   -0.09816  -0.07539  -0.04414  -0.02055  -0.00737
 Alpha virt. eigenvalues --    0.00134   0.00492   0.01174   0.02126   0.02973
 Alpha virt. eigenvalues --    0.03793   0.03987   0.04460   0.04581   0.04863

 Mulliken charges:
               1
     1  C   -0.060156
     2  C   -0.051472
     3  C   -0.106551
     4  C   -0.019602
     5  N   -0.156359
     6  C    0.004777
     7  C   -0.024215
     8  C   -0.036402
     9  C   -0.048478
    10  C   -0.045537
    11  C    0.141154
    12  C   -0.082067
    13  C    0.191380
    14  O   -0.251501
    15  O   -0.373114
    16  N    0.049978
    17  C    0.133489
    18  C   -0.079063
    19  C   -0.012998
    20  C    0.061216
    21  C    0.036939
    22  C    0.011275
    23  C   -0.100095
    24  N   -0.244145
    25  C    0.077220
    26  C   -0.172214
    27  C   -0.026325
    28  C    0.034064
    29  C    0.073420
    30  C   -0.059263
    31  C   -0.046452
    32  N   -0.029264
    33  C    0.114142
    34  C   -0.216282
    35  C   -0.070966
    36  C    0.132196
    37  C    0.237342
    38  C    0.050477
    39  O   -0.115019
    40  C    0.027466
    41  C    0.215103
    42  O   -0.195454
    43  O   -0.356163
    44  C    0.181916
    45  C    0.290768
    46  C   -0.060346
    47  C   -0.112736
    48  C    0.066942
    49  C    0.009915
    50  C    0.038927
    51  C    0.085982
    52  C   -0.062959
    53  C    0.018063
    54  C    0.021932
    55  C   -0.013416
    56  C    0.113315
    57  C   -0.096639
    58  C    0.058066
    59  C    0.206505
    60  C    0.063165
    61  C   -0.120493
    62  C   -0.082791
    63  C    0.104212
    64  C    0.025487
    65  H   -0.062862
    66  H   -0.033343
    67  H   -0.048799
    68  H    0.024333
    69  H   -0.002350
    70  H    0.032840
    71  H    0.028869
    72  H    0.033338
    73  H    0.028697
    74  H   -0.009879
    75  H    0.063687
    76  H    0.061157
    77  H    0.026928
    78  H    0.027181
    79  H    0.016077
    80  H   -0.010627
    81  H    0.067761
    82  H    0.062817
    83  H    0.047915
    84  H    0.026141
    85  H    0.041841
    86  H    0.029075
    87  H    0.024137
    88  H    0.035669
    89  H    0.051581
    90  H    0.019318
    91  H    0.025937
    92  H   -0.012928
    93  H    0.009984
    94  H    0.019344
    95  H    0.012414
    96  H   -0.000958
    97  H    0.020496
    98  H   -0.007143
    99  H    0.024262
   100  H   -0.016083
   101  H    0.029555
   102  H    0.063310
   103  H    0.021554
   104  H    0.023188
   105  H    0.026782
   106  H   -0.005178
   107  H   -0.022872
   108  H   -0.098671
   109  H   -0.009194
   110  H   -0.014809
   111  H    0.001257
   112  H    0.008308
   113  H    0.029340
   114  H    0.000350
   115  H   -0.011309
   116  H   -0.018286
   117  H    0.002285
   118  H   -0.020568
   119  H   -0.060202
   120  H   -0.033223
   121  H    0.031209
   122  H   -0.010136
   123  H   -0.012856
   124  H   -0.014446
   125  H   -0.072553
   126  H   -0.053920
   127  H   -0.020897
   128  H    0.002313
   129  H    0.001130
   130  H    0.001820
   131  H    0.019826
   132  H   -0.011753
   133  H   -0.016828
   134  H    0.009149
   135  H    0.007502
   136  H    0.003826
   137  H    0.109799
   138  H    0.110079
 Sum of Mulliken charges =   0.00000

 Dipole moment (field-independent basis, Debye):
    X=              1.9475    Y=              5.4968    Z=             -1.0678  Tot=              5.9286
 Quadrupole moment (field-independent basis, Debye-Ang):
   XX=           -338.3204   YY=           -382.7341   ZZ=           -397.0729
   XY=            -36.8248   XZ=              3.7589   YZ=              4.7254

 Normal termination of Gaussian 09 at Tue Jul 30 00:12:57 2019.
