 Gaussian 09, Revision D.01,
 Gaussian 09:  ES64L-G09RevD.01 24-Apr-2013

 --------------------------
 # td=(NStates=1) B3LYP/SVP
 --------------------------

 --
 TD
 --
 Symbolic Z-matrix:
 Charge =  0 Multiplicity = 1

                         Standard orientation:
 ---------------------------------------------------------------------
 Center     Atomic      Atomic             Coordinates (Angstroms)
 Number     Number       Type             X           Y           Z
 ---------------------------------------------------------------------
      1          6           0       -5.182421   -2.018559    0.353977
      2          6           0       -4.578127    2.812122    1.211456
      3          6           0       -9.163497    3.455077   -0.230739
      4          6           0       -9.828691   -1.285614   -0.821515
      5          7           0       -5.275865    0.395952    0.801722
      6          6           0       -4.541854   -0.774788    0.721848
      7          6           0       -3.157866   -0.666154    1.291190
      8          6           0       -3.102517    0.758221    1.885530
      9          6           0       -4.436488    1.303154    1.239976
     10          6           0       -3.210622    0.882517    3.419544
     11          6           0       -2.161093   -0.800254    0.044464
     12          6           0       -0.735261   -0.849211    0.532933
     13          6           0        0.285971   -1.085198   -0.537755
     14          8           0        0.096633   -1.455424   -1.726595
     15          8           0        1.612398   -0.901824   -0.162403
     16          7           0       -6.916359    2.823601    0.476663
     17          6           0       -5.730044    3.448076    0.923395
     18          6           0       -6.023640    4.811837    1.017866
     19          6           0       -7.268271    5.032799    0.475322
     20          6           0       -7.912453    3.708463    0.118391
     21          6           0       -5.050435    5.900613    1.483954
     22          6           0       -7.944441    6.296434    0.446071
     23          6           0       -8.755876    6.696038   -0.568481
     24          7           0       -9.206657    1.007537   -0.429991
     25          6           0       -9.791791    2.211558   -0.567405
     26          6           0      -11.203821    2.099548   -0.901278
     27          6           0      -11.400035    0.676617   -1.107552
     28          6           0      -10.096922    0.047907   -0.780139
     29          6           0      -12.165428    3.172045   -1.008166
     30          6           0      -12.732844   -0.013498   -1.493122
     31          6           0      -12.833614   -0.386046   -3.056253
     32          7           0       -7.566686   -1.256636   -0.207359
     33          6           0       -8.693440   -1.997719   -0.604496
     34          6           0       -8.285494   -3.397301   -0.612474
     35          6           0       -6.920101   -3.475868   -0.261363
     36          6           0       -6.550370   -2.033424    0.003675
     37          6           0       -9.130871   -4.581425   -1.077141
     38          6           0       -5.861508   -4.347876    0.014692
     39          8           0       -5.747588   -5.489279   -0.165368
     40          6           0       -4.572928   -3.463436    0.440643
     41          6           0       -4.037788   -3.906888    1.764070
     42          8           0       -4.146084   -3.419769    2.859598
     43          8           0       -3.260316   -4.965429    1.506919
     44          6           0       -2.640406   -5.598141    2.586166
     45          6           0        2.660906   -1.252188   -1.136836
     46          6           0        4.001032   -0.915310   -0.458656
     47          6           0        4.947826   -0.126086   -1.091107
     48          6           0        4.808289    0.408494   -2.551850
     49          6           0        6.246439    0.143146   -0.498470
     50          6           0        7.432051   -0.548481   -1.077454
     51          6           0        8.701801   -0.315352   -0.184426
     52          6           0       10.045800   -0.698641   -0.751222
     53          6           0       10.056063   -2.202805   -0.887172
     54          6           0       11.281377   -0.190115   -0.165011
     55          6           0       12.660650   -0.475115   -0.644228
     56          6           0       13.763435    0.112329    0.257011
     57          6           0       15.324843   -0.125812   -0.382932
     58          6           0       15.681837   -1.589750   -0.506786
     59          6           0       16.277364    0.719547    0.566738
     60          6           0       17.795516    0.634932   -0.010136
     61          6           0       18.707765    1.698022    0.687483
     62          6           0       20.214136    1.690762    0.185422
     63          6           0       20.263845    2.235167   -1.251450
     64          6           0       21.000184    2.380085    1.208549
     65          1           0       -3.882224    3.409082    1.647076
     66          1           0       -9.728745    4.248231   -0.445072
     67          1           0      -10.785637   -1.884335   -1.089567
     68          1           0       -3.292130   -1.388729    2.079739
     69          1           0       -2.359733    1.304154    1.299228
     70          1           0       -2.311576    0.601519    3.719475
     71          1           0       -3.290537    1.943523    3.684072
     72          1           0       -3.793525    0.214287    3.956034
     73          1           0       -2.494831   -1.516334   -0.513028
     74          1           0       -2.295893   -0.012978   -0.627353
     75          1           0       -0.451735    0.173511    1.121407
     76          1           0       -0.513835   -1.549162    1.255659
     77          1           0       -4.406620    6.341086    0.555577
     78          1           0       -5.860463    6.803576    2.200057
     79          1           0       -4.441843    5.278863    2.321372
     80          1           0       -7.756579    6.886997    1.208101
     81          1           0       -8.753466    6.011123   -1.563026
     82          1           0       -9.512663    7.663278   -0.645534
     83          1           0      -12.102226    3.754099   -0.109064
     84          1           0      -11.836508    3.716399   -2.036410
     85          1           0      -13.304197    2.755142   -0.959164
     86          1           0      -12.748619   -1.045589   -0.976715
     87          1           0      -13.485850    0.658163   -1.007918
     88          1           0      -12.799358    0.562938   -3.584601
     89          1           0      -11.976195   -1.151104   -3.289448
     90          1           0      -13.648276   -0.919123   -3.243309
     91          1           0       -9.946909   -4.645397   -0.386149
     92          1           0       -9.301699   -4.319072   -2.035630
     93          1           0       -8.516336   -5.572932   -1.134772
     94          1           0       -3.980279   -3.564712   -0.342273
     95          1           0       -2.254060   -6.436672    2.308304
     96          1           0       -2.011650   -4.988104    3.284005
     97          1           0       -3.458859   -5.941424    3.167699
     98          1           0        2.697932   -2.306593   -1.166364
     99          1           0        2.459431   -0.579478   -1.867874
    100          1           0        4.068013   -1.166132    0.712319
    101          1           0        4.933815    1.535514   -2.353148
    102          1           0        5.492357   -0.186691   -3.281874
    103          1           0        3.773747    0.379755   -3.138030
    104          1           0        6.268778    1.308632   -0.448867
    105          1           0        6.262788    0.003624    0.492013
    106          1           0        7.238152   -1.537753   -1.417482
    107          1           0        7.614426   -0.207612   -2.070259
    108          1           0        8.730418    0.743886    0.017397
    109          1           0        8.567702   -0.749615    0.728485
    110          1           0       10.051835   -0.411739   -1.813365
    111          1           0        9.277150   -2.584035   -1.444621
    112          1           0       11.080697   -2.449400   -1.503151
    113          1           0       10.132058   -2.920885    0.103350
    114          1           0       11.401483    0.904250   -0.305636
    115          1           0       11.302857   -0.376048    0.954331
    116          1           0       12.875866   -1.511464   -1.084411
    117          1           0       12.672910    0.256733   -1.593788
    118          1           0       13.543000    1.233320    0.194084
    119          1           0       13.883469   -0.567208    1.277228
    120          1           0       15.186081    0.698877   -1.267858
    121          1           0       14.814757   -2.256038   -0.787507
    122          1           0       16.676671   -1.940728   -1.116303
    123          1           0       15.923277   -1.896492    0.683824
    124          1           0       15.947981    1.842082    0.578423
    125          1           0       16.440377    0.185963    1.674610
    126          1           0       18.185755   -0.416179    0.003421
    127          1           0       17.874238    0.455537   -1.282556
    128          1           0       18.373219    2.573419    0.648140
    129          1           0       18.840933    1.394350    1.654307
    130          1           0       20.683820    0.612784   -0.135778
    131          1           0       19.745402    3.167844   -1.601447
    132          1           0       21.333090    2.203407   -1.549792
    133          1           0       19.607776    1.468888   -1.987144
    134          1           0       20.830308    1.913395    2.281971
    135          1           0       21.995811    2.591109    0.882984
    136          1           0       20.494996    3.378745    1.441533
    137          1           0       -7.103925    1.725864    0.322000
    138          1           0       -7.294801   -0.130311   -0.164900
 ---------------------------------------------------------------------

 SCF Done:  E(RB3LYP) =  -2732.88812634     A.U. after   19 cycles

 Excitation energies and oscillator strengths:

 Excited State   1:      Singlet-A      2.1283 eV  582.55 nm  f=0.1615  <S**2>=0.000
     235 -> 238        0.29795
     236 -> 237        0.63325
 This state for optimization and/or second-order correction.
 Total Energy, E(TD-HF/TD-KS) =  -2732.80991277
 Copying the excited state density for this state as the 1-particle RhoCI density.

 The electronic state is 1-A.
 Alpha  occ. eigenvalues --  -19.17618 -19.15969 -19.12714 -19.11917 -19.11586
 Alpha  occ. eigenvalues --  -14.37790 -14.36069 -14.33359 -14.28957 -10.31707
 Alpha  occ. eigenvalues --  -10.31538 -10.27094 -10.24708 -10.24212 -10.23494
 Alpha  occ. eigenvalues --  -10.23473 -10.23436 -10.23408 -10.23333 -10.22990
 Alpha  occ. eigenvalues --  -10.22764 -10.22319 -10.21718 -10.21641 -10.21390
 Alpha  occ. eigenvalues --  -10.21377 -10.21328 -10.20950 -10.20875 -10.20659
 Alpha  occ. eigenvalues --  -10.20626 -10.20566 -10.20497 -10.20359 -10.20278
 Alpha  occ. eigenvalues --  -10.20182 -10.20178 -10.20148 -10.20110 -10.19998
 Alpha  occ. eigenvalues --  -10.19935 -10.19844 -10.19762 -10.19678 -10.19517
 Alpha  occ. eigenvalues --  -10.19375 -10.19174 -10.19111 -10.18805 -10.18790
 Alpha  occ. eigenvalues --  -10.18710 -10.18605 -10.18521 -10.18487 -10.18456
 Alpha  occ. eigenvalues --  -10.18212 -10.18207 -10.18133 -10.17995 -10.17945
 Alpha  occ. eigenvalues --  -10.17911 -10.17821 -10.17606 -10.16473  -1.10596
 Alpha  occ. eigenvalues --   -1.06281  -1.05655  -1.01360  -0.98674  -0.97018
 Alpha  occ. eigenvalues --   -0.96458  -0.95329  -0.92622  -0.83972  -0.83472
 Alpha  occ. eigenvalues --   -0.82246  -0.81862  -0.81644  -0.81405  -0.80851
 Alpha  occ. eigenvalues --   -0.80401  -0.79148  -0.78963  -0.78330  -0.77753
 Alpha  occ. eigenvalues --   -0.77082  -0.76615  -0.75668  -0.74916  -0.74618
 Alpha  occ. eigenvalues --   -0.73989  -0.73293  -0.72426  -0.71760  -0.70842
 Alpha  occ. eigenvalues --   -0.69978  -0.69266  -0.67834  -0.67526  -0.67289
 Alpha  occ. eigenvalues --   -0.67102  -0.66446  -0.66280  -0.66057  -0.65190
 Alpha  occ. eigenvalues --   -0.64582  -0.64117  -0.62599  -0.61623  -0.61355
 Alpha  occ. eigenvalues --   -0.60993  -0.60086  -0.58716  -0.58086  -0.57358
 Alpha  occ. eigenvalues --   -0.56966  -0.56702  -0.55239  -0.54824  -0.54684
 Alpha  occ. eigenvalues --   -0.54345  -0.54122  -0.53042  -0.52908  -0.52715
 Alpha  occ. eigenvalues --   -0.52577  -0.52352  -0.51486  -0.51132  -0.50838
 Alpha  occ. eigenvalues --   -0.50424  -0.49351  -0.49271  -0.49007  -0.48592
 Alpha  occ. eigenvalues --   -0.48186  -0.47738  -0.47145  -0.47077  -0.46764
 Alpha  occ. eigenvalues --   -0.46710  -0.46462  -0.46210  -0.45943  -0.45905
 Alpha  occ. eigenvalues --   -0.45573  -0.45399  -0.45211  -0.45023  -0.44773
 Alpha  occ. eigenvalues --   -0.44705  -0.44276  -0.44121  -0.43840  -0.43609
 Alpha  occ. eigenvalues --   -0.43542  -0.43354  -0.42976  -0.42902  -0.42752
 Alpha  occ. eigenvalues --   -0.42345  -0.42257  -0.42033  -0.41719  -0.41563
 Alpha  occ. eigenvalues --   -0.41420  -0.41168  -0.41135  -0.40729  -0.40439
 Alpha  occ. eigenvalues --   -0.40299  -0.40176  -0.39995  -0.39930  -0.39711
 Alpha  occ. eigenvalues --   -0.39574  -0.39306  -0.39174  -0.38950  -0.38748
 Alpha  occ. eigenvalues --   -0.38570  -0.38155  -0.38113  -0.37846  -0.37777
 Alpha  occ. eigenvalues --   -0.37535  -0.37280  -0.37071  -0.36805  -0.36634
 Alpha  occ. eigenvalues --   -0.36552  -0.36076  -0.35979  -0.35712  -0.35539
 Alpha  occ. eigenvalues --   -0.35492  -0.35126  -0.34966  -0.34870  -0.34696
 Alpha  occ. eigenvalues --   -0.34516  -0.34308  -0.34162  -0.33823  -0.33734
 Alpha  occ. eigenvalues --   -0.33049  -0.32810  -0.32732  -0.32636  -0.32494
 Alpha  occ. eigenvalues --   -0.32296  -0.32234  -0.31626  -0.31055  -0.30336
 Alpha  occ. eigenvalues --   -0.30302  -0.30210  -0.30034  -0.29498  -0.29282
 Alpha  occ. eigenvalues --   -0.29197  -0.28943  -0.28629  -0.28258  -0.27991
 Alpha  occ. eigenvalues --   -0.27239  -0.26728  -0.26597  -0.25869  -0.25434
 Alpha  occ. eigenvalues --   -0.24678  -0.24428  -0.23704  -0.21073  -0.20031
 Alpha  occ. eigenvalues --   -0.18503
 Alpha virt. eigenvalues --   -0.09416  -0.07857  -0.04408  -0.01305  -0.00673
 Alpha virt. eigenvalues --   -0.00221  -0.00096   0.00982   0.01490   0.02331
 Alpha virt. eigenvalues --    0.02954   0.03882   0.03890   0.04147   0.04178

 Mulliken charges:
               1
     1  C   -0.110300
     2  C   -0.038199
     3  C   -0.029952
     4  C   -0.118422
     5  N   -0.165614
     6  C   -0.093764
     7  C   -0.030266
     8  C   -0.061503
     9  C   -0.059065
    10  C    0.223088
    11  C    0.203882
    12  C    0.083681
    13  C    0.192245
    14  O   -0.286820
    15  O   -0.383800
    16  N   -0.186997
    17  C    0.179125
    18  C   -0.109464
    19  C    0.046839
    20  C    0.152267
    21  C   -0.064554
    22  C    0.008614
    23  C   -0.105843
    24  N   -0.220428
    25  C    0.036922
    26  C   -0.163702
    27  C   -0.089156
    28  C    0.044650
    29  C    0.057314
    30  C    0.000701
    31  C    0.059533
    32  N   -0.062923
    33  C    0.113507
    34  C   -0.151623
    35  C    0.001244
    36  C    0.049182
    37  C    0.143697
    38  C   -0.022995
    39  O   -0.111983
    40  C    0.065237
    41  C    0.222527
    42  O   -0.223635
    43  O   -0.289802
    44  C    0.283388
    45  C    0.421227
    46  C   -0.165010
    47  C   -0.166862
    48  C   -0.024020
    49  C    0.148541
    50  C    0.060622
    51  C    0.106543
    52  C    0.007085
    53  C   -0.031915
    54  C    0.057186
    55  C   -0.029035
    56  C   -0.043861
    57  C   -0.106822
    58  C   -0.033761
    59  C   -0.011993
    60  C   -0.081843
    61  C    0.209107
    62  C   -0.149080
    63  C   -0.035990
    64  C    0.064755
    65  H   -0.081745
    66  H   -0.101994
    67  H   -0.008484
    68  H    0.009958
    69  H   -0.008490
    70  H   -0.041168
    71  H    0.006050
    72  H    0.013662
    73  H   -0.058026
    74  H   -0.015634
    75  H    0.048495
    76  H    0.010162
    77  H    0.089254
    78  H    0.055371
    79  H    0.057227
    80  H   -0.062691
    81  H    0.055130
    82  H    0.060891
    83  H    0.024180
    84  H    0.056818
    85  H    0.026485
    86  H    0.005743
    87  H    0.015253
    88  H    0.024890
    89  H    0.019195
    90  H   -0.017921
    91  H    0.031044
    92  H    0.007848
    93  H    0.047224
    94  H    0.002370
    95  H   -0.030235
    96  H    0.029714
    97  H   -0.008972
    98  H    0.012841
    99  H   -0.018855
   100  H    0.029004
   101  H    0.038063
   102  H    0.057356
   103  H    0.034154
   104  H   -0.003077
   105  H   -0.061213
   106  H   -0.015989
   107  H   -0.031915
   108  H   -0.024086
   109  H   -0.031702
   110  H   -0.030053
   111  H   -0.011624
   112  H    0.010108
   113  H    0.017025
   114  H   -0.016994
   115  H   -0.010437
   116  H    0.016266
   117  H   -0.014369
   118  H    0.021014
   119  H    0.024887
   120  H    0.018117
   121  H    0.034379
   122  H    0.054047
   123  H    0.024829
   124  H    0.022678
   125  H    0.024876
   126  H   -0.003498
   127  H   -0.000615
   128  H   -0.064835
   129  H   -0.032828
   130  H    0.011547
   131  H    0.010111
   132  H    0.012774
   133  H    0.015193
   134  H    0.020350
   135  H    0.001978
   136  H   -0.004006
   137  H    0.191904
   138  H    0.229285
 Sum of Mulliken charges =   0.00000

 Dipole moment (field-independent basis, Debye):
    X=              2.4435    Y=              3.3731    Z=              1.3138  Tot=              4.3674
 Quadrupole moment (field-independent basis, Debye-Ang):
   XX=           -370.6175   YY=           -382.1412   ZZ=           -395.6822
   XY=            -15.7860   XZ=              8.6839   YZ=             -1.3728

 Normal termination of Gaussian 09 at Sun Aug  4 04:41:30 2019.
