 Gaussian 09, Revision D.01,
 Gaussian 09:  ES64L-G09RevD.01 24-Apr-2013

 --------------------------
 # td=(NStates=1) B3LYP/SVP
 --------------------------

 --
 TD
 --
 Symbolic Z-matrix:
 Charge =  0 Multiplicity = 1

                         Standard orientation:
 ---------------------------------------------------------------------
 Center     Atomic      Atomic             Coordinates (Angstroms)
 Number     Number       Type             X           Y           Z
 ---------------------------------------------------------------------
      1          6           0       -4.996660   -1.930944    0.457534
      2          6           0       -4.852469    2.799696    1.406695
      3          6           0       -9.411805    3.288354   -0.222096
      4          6           0       -9.769589   -1.377610   -0.964628
      5          7           0       -5.141221    0.452484    0.883621
      6          6           0       -4.508093   -0.725691    0.897265
      7          6           0       -2.977209   -0.572474    1.316749
      8          6           0       -3.030947    0.951915    1.787819
      9          6           0       -4.370344    1.473488    1.433468
     10          6           0       -2.867321    1.021075    3.300299
     11          6           0       -2.026477   -0.645735    0.146816
     12          6           0       -0.567768   -0.638379    0.565979
     13          6           0        0.343223   -0.948311   -0.613583
     14          8           0        0.084614   -1.403716   -1.685499
     15          8           0        1.640053   -0.876853   -0.228832
     16          7           0       -7.102054    2.737309    0.429877
     17          6           0       -5.917127    3.359537    0.917308
     18          6           0       -6.216447    4.803573    1.020798
     19          6           0       -7.520233    4.959873    0.548072
     20          6           0       -8.086094    3.590042    0.150213
     21          6           0       -5.238720    5.957949    1.464360
     22          6           0       -8.203185    6.177830    0.366866
     23          6           0       -9.113914    6.530363   -0.644745
     24          7           0       -9.189023    0.922607   -0.505257
     25          6           0       -9.848753    2.068030   -0.509402
     26          6           0      -11.204758    1.798852   -1.051394
     27          6           0      -11.369886    0.502300   -1.085301
     28          6           0       -9.988593   -0.018443   -0.915784
     29          6           0      -12.365618    2.924454   -1.139709
     30          6           0      -12.484312   -0.277323   -1.532025
     31          6           0      -12.607011   -0.493459   -3.113181
     32          7           0       -7.484753   -1.327226   -0.236668
     33          6           0       -8.552692   -2.051989   -0.677522
     34          6           0       -8.141687   -3.365322   -0.625314
     35          6           0       -6.842518   -3.341062   -0.206568
     36          6           0       -6.368636   -1.995828    0.029051
     37          6           0       -9.094478   -4.616532   -0.889369
     38          6           0       -5.696991   -4.272441   -0.003985
     39          8           0       -5.565040   -5.545541    0.083204
     40          6           0       -4.509145   -3.332191    0.449797
     41          6           0       -3.834966   -3.764810    1.704828
     42          8           0       -4.161724   -3.286697    2.728881
     43          8           0       -3.008256   -4.731599    1.435245
     44          6           0       -2.576581   -5.410529    2.491251
     45          6           0        2.672264   -1.155664   -1.214079
     46          6           0        4.016630   -0.811727   -0.617768
     47          6           0        4.929074   -0.100083   -1.216801
     48          6           0        4.712426    0.724739   -2.421179
     49          6           0        6.269530    0.023367   -0.363074
     50          6           0        7.526323   -0.528062   -1.031766
     51          6           0        8.717124   -0.321702   -0.121029
     52          6           0       10.052558   -0.805228   -0.680236
     53          6           0        9.989530   -2.272897   -0.743942
     54          6           0       11.189374   -0.396273    0.137181
     55          6           0       12.632742   -0.565073   -0.376606
     56          6           0       13.831480    0.010658    0.348679
     57          6           0       15.184468   -0.193791   -0.433590
     58          6           0       15.596906   -1.690742   -0.265633
     59          6           0       16.208716    0.829482    0.248416
     60          6           0       17.645518    0.822083   -0.236354
     61          6           0       18.579484    1.763679    0.455274
     62          6           0       20.053314    1.663110    0.102294
     63          6           0       20.235118    2.165891   -1.290928
     64          6           0       20.970635    2.454865    1.092409
     65          1           0       -4.182821    3.467551    1.888577
     66          1           0      -10.139548    4.088736   -0.350731
     67          1           0      -10.574064   -2.028205   -1.082134
     68          1           0       -3.058892   -1.389637    2.094420
     69          1           0       -2.216821    1.649724    1.331594
     70          1           0       -2.017439    0.360946    3.631981
     71          1           0       -2.727167    1.966765    3.730869
     72          1           0       -3.674671    0.470829    3.890255
     73          1           0       -2.028416   -1.543253   -0.329917
     74          1           0       -2.517197    0.195882   -0.572976
     75          1           0       -0.148012    0.402614    0.860213
     76          1           0       -0.395283   -1.389752    1.278512
     77          1           0       -4.197413    5.655277    0.999026
     78          1           0       -5.670307    6.797141    1.017552
     79          1           0       -5.058907    5.789189    2.540175
     80          1           0       -7.676200    7.075632    0.985487
     81          1           0       -9.516924    5.902149   -1.323651
     82          1           0       -9.603094    7.614957   -0.500833
     83          1           0      -12.453685    3.331271   -0.104119
     84          1           0      -12.037931    3.804878   -1.744059
     85          1           0      -13.281279    2.417284   -1.471279
     86          1           0      -12.588575   -1.187051   -1.008739
     87          1           0      -13.489425    0.055516   -1.096446
     88          1           0      -12.523776    0.554575   -3.510642
     89          1           0      -11.625807   -1.120748   -3.707742
     90          1           0      -13.449299   -1.165924   -3.265163
     91          1           0       -9.860956   -4.715282   -0.116078
     92          1           0       -9.843203   -4.573119   -1.824477
     93          1           0       -8.436524   -5.633164   -0.851386
     94          1           0       -3.683407   -3.312034   -0.302644
     95          1           0       -1.815100   -6.205231    2.039338
     96          1           0       -1.969683   -4.984993    3.438996
     97          1           0       -3.524183   -6.110695    2.733409
     98          1           0        2.714240   -2.261048   -1.554733
     99          1           0        2.798513   -0.527171   -1.895240
    100          1           0        3.982717   -1.349049    0.276078
    101          1           0        4.761734    2.017040   -2.111760
    102          1           0        5.517589    0.454883   -3.116649
    103          1           0        3.806040    0.261566   -2.807700
    104          1           0        6.295532    1.202906   -0.181152
    105          1           0        6.095438   -0.429119    0.544616
    106          1           0        7.179354   -1.498741   -1.369436
    107          1           0        7.841027    0.154389   -2.018320
    108          1           0        8.673202    0.717002    0.194880
    109          1           0        8.434792   -0.806091    0.834428
    110          1           0       10.048774   -0.390527   -1.667925
    111          1           0        9.242910   -2.502937   -1.413362
    112          1           0       10.823710   -2.654935   -1.276141
    113          1           0        9.696317   -2.852890    0.153826
    114          1           0       10.891717    0.636396    0.228785
    115          1           0       10.972839   -0.900707    1.292577
    116          1           0       12.708583   -1.748964   -0.491281
    117          1           0       12.691684   -0.302425   -1.289127
    118          1           0       13.678605    1.019033    0.503846
    119          1           0       13.798561   -0.203163    1.392728
    120          1           0       15.239875    0.097787   -1.535088
    121          1           0       14.811520   -2.202512   -0.782907
    122          1           0       16.551931   -1.866166   -0.846156
    123          1           0       15.795431   -2.113477    0.795678
    124          1           0       15.793681    1.816326    0.006979
    125          1           0       16.143508    0.573189    1.287445
    126          1           0       18.401542   -0.302748   -0.050393
    127          1           0       17.865072    0.726214   -1.417136
    128          1           0       18.233670    2.891375    0.251425
    129          1           0       18.539151    1.783023    1.652292
    130          1           0       20.210644    0.629030   -0.247489
    131          1           0       19.788991    3.286022   -1.422088
    132          1           0       21.283625    2.084341   -1.752083
    133          1           0       19.405088    1.580599   -2.060270
    134          1           0       20.771387    2.101025    2.121918
    135          1           0       22.036049    2.471285    0.785806
    136          1           0       20.772714    3.603304    1.089741
    137          1           0       -7.280825    1.753183    0.423517
    138          1           0       -7.701215   -0.199395   -0.283519
 ---------------------------------------------------------------------

 SCF Done:  E(RB3LYP) =  -2732.96126566     A.U. after   18 cycles

 Excitation energies and oscillator strengths:

 Excited State   1:      Singlet-A      2.0472 eV  605.62 nm  f=0.2240  <S**2>=0.000
     235 -> 238        0.25876
     236 -> 237        0.65624
 This state for optimization and/or second-order correction.
 Total Energy, E(TD-HF/TD-KS) =  -2732.88603109
 Copying the excited state density for this state as the 1-particle RhoCI density.

 The electronic state is 1-A.
 Alpha  occ. eigenvalues --  -19.19682 -19.17130 -19.12878 -19.12260 -19.11794
 Alpha  occ. eigenvalues --  -14.37587 -14.36531 -14.32235 -14.30281 -10.31440
 Alpha  occ. eigenvalues --  -10.31162 -10.28163 -10.26469 -10.24743 -10.24202
 Alpha  occ. eigenvalues --  -10.23423 -10.23050 -10.22994 -10.22374 -10.22107
 Alpha  occ. eigenvalues --  -10.21922 -10.21799 -10.21674 -10.21290 -10.21221
 Alpha  occ. eigenvalues --  -10.21143 -10.21134 -10.21123 -10.21081 -10.21071
 Alpha  occ. eigenvalues --  -10.20912 -10.20851 -10.20557 -10.20518 -10.20500
 Alpha  occ. eigenvalues --  -10.20367 -10.20317 -10.20159 -10.20030 -10.19947
 Alpha  occ. eigenvalues --  -10.19908 -10.19715 -10.19698 -10.19578 -10.19408
 Alpha  occ. eigenvalues --  -10.19310 -10.19238 -10.19232 -10.19154 -10.19126
 Alpha  occ. eigenvalues --  -10.18978 -10.18802 -10.18686 -10.18619 -10.18526
 Alpha  occ. eigenvalues --  -10.18390 -10.18023 -10.17977 -10.17757 -10.17561
 Alpha  occ. eigenvalues --  -10.17519 -10.17447 -10.17369 -10.15804  -1.14558
 Alpha  occ. eigenvalues --   -1.09443  -1.04521  -1.00332  -0.99300  -0.98458
 Alpha  occ. eigenvalues --   -0.98199  -0.96411  -0.93716  -0.84862  -0.83911
 Alpha  occ. eigenvalues --   -0.83126  -0.82667  -0.81776  -0.81635  -0.81495
 Alpha  occ. eigenvalues --   -0.80635  -0.80160  -0.79933  -0.79040  -0.78117
 Alpha  occ. eigenvalues --   -0.77584  -0.76992  -0.75746  -0.75276  -0.75142
 Alpha  occ. eigenvalues --   -0.74040  -0.73518  -0.72532  -0.72000  -0.70841
 Alpha  occ. eigenvalues --   -0.69855  -0.69510  -0.68641  -0.68327  -0.67921
 Alpha  occ. eigenvalues --   -0.67719  -0.67217  -0.66329  -0.66150  -0.65114
 Alpha  occ. eigenvalues --   -0.64759  -0.63405  -0.62743  -0.62448  -0.62186
 Alpha  occ. eigenvalues --   -0.61308  -0.59396  -0.58594  -0.58375  -0.58023
 Alpha  occ. eigenvalues --   -0.57454  -0.56879  -0.56489  -0.55979  -0.55968
 Alpha  occ. eigenvalues --   -0.54826  -0.54398  -0.54232  -0.53982  -0.53553
 Alpha  occ. eigenvalues --   -0.53214  -0.52438  -0.52250  -0.51931  -0.51212
 Alpha  occ. eigenvalues --   -0.50638  -0.50103  -0.49823  -0.49144  -0.48994
 Alpha  occ. eigenvalues --   -0.48616  -0.48519  -0.47922  -0.47402  -0.47251
 Alpha  occ. eigenvalues --   -0.46676  -0.46641  -0.46256  -0.46189  -0.45611
 Alpha  occ. eigenvalues --   -0.45414  -0.45220  -0.45195  -0.45099  -0.44856
 Alpha  occ. eigenvalues --   -0.44361  -0.44260  -0.43865  -0.43815  -0.43588
 Alpha  occ. eigenvalues --   -0.43349  -0.43165  -0.43146  -0.42701  -0.42624
 Alpha  occ. eigenvalues --   -0.42194  -0.42094  -0.42028  -0.41841  -0.41411
 Alpha  occ. eigenvalues --   -0.41190  -0.41065  -0.40621  -0.40544  -0.40252
 Alpha  occ. eigenvalues --   -0.40137  -0.40031  -0.39759  -0.39628  -0.39506
 Alpha  occ. eigenvalues --   -0.39281  -0.39191  -0.39129  -0.39070  -0.38519
 Alpha  occ. eigenvalues --   -0.38318  -0.37966  -0.37939  -0.37818  -0.37619
 Alpha  occ. eigenvalues --   -0.37464  -0.37357  -0.37089  -0.36969  -0.36924
 Alpha  occ. eigenvalues --   -0.36703  -0.36448  -0.36295  -0.36203  -0.36086
 Alpha  occ. eigenvalues --   -0.35938  -0.35607  -0.35121  -0.34930  -0.34868
 Alpha  occ. eigenvalues --   -0.34688  -0.34579  -0.34271  -0.34210  -0.34072
 Alpha  occ. eigenvalues --   -0.33465  -0.33356  -0.32899  -0.32808  -0.32204
 Alpha  occ. eigenvalues --   -0.31762  -0.31726  -0.31522  -0.31298  -0.31280
 Alpha  occ. eigenvalues --   -0.30940  -0.30814  -0.30704  -0.30060  -0.30024
 Alpha  occ. eigenvalues --   -0.29224  -0.28844  -0.28824  -0.28396  -0.27902
 Alpha  occ. eigenvalues --   -0.27367  -0.27009  -0.26832  -0.25805  -0.25667
 Alpha  occ. eigenvalues --   -0.25301  -0.24532  -0.24233  -0.23586  -0.20181
 Alpha  occ. eigenvalues --   -0.18813
 Alpha virt. eigenvalues --   -0.10438  -0.07291  -0.04855  -0.02986  -0.00218
 Alpha virt. eigenvalues --    0.00121   0.00525   0.00630   0.02624   0.03607
 Alpha virt. eigenvalues --    0.03834   0.04168   0.04249   0.04567   0.04586

 Mulliken charges:
               1
     1  C   -0.009768
     2  C   -0.078271
     3  C   -0.110176
     4  C   -0.058252
     5  N   -0.164268
     6  C   -0.121731
     7  C   -0.064108
     8  C   -0.041738
     9  C    0.011353
    10  C    0.053694
    11  C    0.089426
    12  C    0.066058
    13  C    0.148236
    14  O   -0.213750
    15  O   -0.349321
    16  N   -0.044728
    17  C    0.200900
    18  C   -0.165926
    19  C    0.027270
    20  C    0.086203
    21  C    0.123805
    22  C   -0.124519
    23  C   -0.025499
    24  N   -0.173186
    25  C    0.075301
    26  C   -0.154308
    27  C   -0.083936
    28  C    0.079562
    29  C    0.079395
    30  C    0.069609
    31  C   -0.036056
    32  N   -0.083106
    33  C    0.031055
    34  C   -0.098110
    35  C   -0.065404
    36  C    0.073308
    37  C    0.009561
    38  C    0.152960
    39  O   -0.244368
    40  C    0.024483
    41  C    0.133529
    42  O   -0.190289
    43  O   -0.179299
    44  C    0.055919
    45  C    0.453569
    46  C   -0.161764
    47  C   -0.162048
    48  C    0.096462
    49  C    0.074264
    50  C   -0.020575
    51  C    0.028298
    52  C   -0.033503
    53  C    0.131940
    54  C    0.029542
    55  C    0.119521
    56  C    0.129587
    57  C   -0.137163
    58  C    0.038433
    59  C    0.103385
    60  C   -0.094545
    61  C   -0.010771
    62  C   -0.033546
    63  C   -0.100902
    64  C    0.039669
    65  H   -0.057250
    66  H   -0.034830
    67  H   -0.052640
    68  H    0.034709
    69  H    0.021813
    70  H    0.005823
    71  H   -0.000187
    72  H    0.021691
    73  H   -0.025352
    74  H    0.043634
    75  H    0.041881
    76  H    0.025030
    77  H    0.037518
    78  H    0.028954
    79  H    0.043013
    80  H    0.029020
    81  H    0.001421
    82  H    0.047473
    83  H    0.030038
    84  H    0.022854
    85  H    0.025743
    86  H   -0.028707
    87  H   -0.003852
    88  H    0.038969
    89  H    0.029727
    90  H    0.029115
    91  H    0.023575
    92  H    0.034596
    93  H    0.068097
    94  H    0.048351
    95  H    0.032140
    96  H    0.063557
    97  H    0.049871
    98  H    0.042604
    99  H   -0.129374
   100  H   -0.034206
   101  H    0.065343
   102  H    0.018169
   103  H    0.008899
   104  H    0.005696
   105  H   -0.026197
   106  H    0.013706
   107  H    0.006247
   108  H   -0.021110
   109  H   -0.023576
   110  H   -0.033968
   111  H   -0.052592
   112  H   -0.019651
   113  H    0.004437
   114  H   -0.031704
   115  H   -0.000266
   116  H    0.003033
   117  H   -0.080773
   118  H   -0.055079
   119  H   -0.028418
   120  H    0.006896
   121  H   -0.001196
   122  H    0.007616
   123  H    0.025969
   124  H    0.007226
   125  H   -0.002984
   126  H   -0.009051
   127  H    0.027266
   128  H   -0.004744
   129  H    0.006396
   130  H   -0.004245
   131  H    0.005843
   132  H    0.032676
   133  H    0.014986
   134  H    0.021511
   135  H    0.012407
   136  H    0.015433
   137  H    0.126954
   138  H    0.202659
 Sum of Mulliken charges =   0.00000

 Dipole moment (field-independent basis, Debye):
    X=              1.5170    Y=              5.2706    Z=              1.0254  Tot=              5.5796
 Quadrupole moment (field-independent basis, Debye-Ang):
   XX=           -359.7567   YY=           -391.0006   ZZ=           -398.4069
   XY=            -22.3515   XZ=              2.6671   YZ=              1.1720

 Normal termination of Gaussian 09 at Sat Aug  3 11:19:00 2019.
