 Gaussian 09, Revision D.01,
 Gaussian 09:  ES64L-G09RevD.01 24-Apr-2013

 --------------------------
 # td=(NStates=1) B3LYP/SVP
 --------------------------

 --
 TD
 --
 Symbolic Z-matrix:
 Charge =  0 Multiplicity = 1

                         Standard orientation:
 ---------------------------------------------------------------------
 Center     Atomic      Atomic             Coordinates (Angstroms)
 Number     Number       Type             X           Y           Z
 ---------------------------------------------------------------------
      1          6           0       -5.050583   -1.904259    0.382697
      2          6           0       -4.952166    2.840294    1.256272
      3          6           0       -9.568258    3.341824   -0.126969
      4          6           0       -9.725931   -1.516986   -0.940575
      5          7           0       -5.233965    0.469763    0.764109
      6          6           0       -4.472706   -0.655661    0.790344
      7          6           0       -3.053214   -0.426310    1.164388
      8          6           0       -3.034491    1.057698    1.749564
      9          6           0       -4.494124    1.545755    1.166818
     10          6           0       -3.001525    1.154100    3.199190
     11          6           0       -2.083128   -0.698201    0.023101
     12          6           0       -0.652832   -0.536157    0.539215
     13          6           0        0.361404   -0.981546   -0.450808
     14          8           0        0.249857   -1.769423   -1.461494
     15          8           0        1.677301   -0.620940   -0.123447
     16          7           0       -7.164874    2.797402    0.283052
     17          6           0       -6.138758    3.463603    0.907474
     18          6           0       -6.461821    4.826552    0.959149
     19          6           0       -7.757643    4.969437    0.551993
     20          6           0       -8.242196    3.659586    0.227901
     21          6           0       -5.433771    5.823871    1.400255
     22          6           0       -8.488270    6.277016    0.426821
     23          6           0       -9.351342    6.547144   -0.635444
     24          7           0       -9.240022    0.875737   -0.474633
     25          6           0       -9.969821    1.986800   -0.534626
     26          6           0      -11.439901    1.707642   -0.925538
     27          6           0      -11.480855    0.334470   -1.157402
     28          6           0      -10.120601   -0.108554   -0.928162
     29          6           0      -12.490938    2.699114   -1.188946
     30          6           0      -12.677449   -0.466090   -1.536822
     31          6           0      -12.721036   -0.735309   -3.136861
     32          7           0       -7.421055   -1.263733   -0.143176
     33          6           0       -8.462592   -2.089117   -0.594241
     34          6           0       -8.105143   -3.364565   -0.691704
     35          6           0       -6.777478   -3.410245   -0.117264
     36          6           0       -6.347554   -2.049613    0.059591
     37          6           0       -8.865308   -4.607990   -1.102897
     38          6           0       -5.662237   -4.281605    0.029480
     39          8           0       -5.657356   -5.488945    0.135493
     40          6           0       -4.471967   -3.280947    0.385934
     41          6           0       -3.843560   -3.737927    1.726535
     42          8           0       -4.042811   -3.341467    2.815183
     43          8           0       -3.160083   -4.832686    1.583382
     44          6           0       -2.581219   -5.527249    2.670807
     45          6           0        2.701697   -0.929235   -1.031260
     46          6           0        4.052718   -0.744927   -0.403334
     47          6           0        5.020293    0.030685   -1.028297
     48          6           0        4.986101    0.808388   -2.312973
     49          6           0        6.387023    0.166757   -0.237361
     50          6           0        7.599681   -0.378324   -0.899286
     51          6           0        8.895152   -0.185022   -0.145885
     52          6           0       10.228025   -0.757437   -0.671961
     53          6           0       10.068000   -2.355938   -0.861968
     54          6           0       11.483908   -0.377506    0.139802
     55          6           0       12.730808   -0.544255   -0.616358
     56          6           0       13.868639   -0.142040    0.214309
     57          6           0       15.284379   -0.193221   -0.465747
     58          6           0       15.780473   -1.700264   -0.664886
     59          6           0       16.339761    0.508321    0.477082
     60          6           0       17.680240    0.844286   -0.186061
     61          6           0       18.632094    1.721517    0.598322
     62          6           0       20.147752    1.722326    0.179853
     63          6           0       20.403894    2.040562   -1.345138
     64          6           0       20.927593    2.732519    0.919268
     65          1           0       -4.107866    3.429958    1.840359
     66          1           0      -10.440975    4.095130   -0.217596
     67          1           0      -10.587213   -2.083076   -1.257387
     68          1           0       -2.934862   -1.083549    2.154339
     69          1           0       -2.338268    1.798898    1.230952
     70          1           0       -2.086848    0.744785    3.419815
     71          1           0       -3.177044    2.208330    3.703781
     72          1           0       -3.626614    0.148838    3.660484
     73          1           0       -2.202103   -1.891575   -0.106455
     74          1           0       -2.409182   -0.060293   -0.922118
     75          1           0       -0.515119    0.507130    0.764937
     76          1           0       -0.400884   -1.363651    1.270752
     77          1           0       -4.680567    5.965861    0.712962
     78          1           0       -5.786983    6.853763    1.521672
     79          1           0       -4.817532    5.668166    2.222304
     80          1           0       -8.059603    7.065072    1.125795
     81          1           0       -9.500246    5.999231   -1.571901
     82          1           0       -9.779626    7.598559   -0.789450
     83          1           0      -12.331975    3.586433   -0.309630
     84          1           0      -12.298595    3.417237   -2.227312
     85          1           0      -13.635350    2.368418   -1.150253
     86          1           0      -12.629789   -1.401321   -0.906385
     87          1           0      -13.509330    0.278852   -1.205241
     88          1           0      -12.504384    0.330504   -3.653510
     89          1           0      -11.747805   -1.421778   -3.350703
     90          1           0      -13.607961   -1.181817   -3.495883
     91          1           0       -9.847164   -4.718558   -0.547636
     92          1           0       -9.214408   -4.307296   -1.984942
     93          1           0       -8.331846   -5.509184   -0.934691
     94          1           0       -3.672329   -3.568125   -0.359331
     95          1           0       -1.867754   -6.314733    2.427816
     96          1           0       -1.885778   -4.818544    3.061960
     97          1           0       -3.545062   -5.992076    3.178606
     98          1           0        2.655884   -2.059671   -1.416710
     99          1           0        2.574725   -0.598277   -2.117200
    100          1           0        4.208754   -1.034641    0.519549
    101          1           0        5.236701    1.833464   -2.193827
    102          1           0        5.639611    0.403480   -3.001983
    103          1           0        4.138974    0.851298   -2.966051
    104          1           0        6.380548    1.278779    0.024022
    105          1           0        6.312664   -0.354731    0.786190
    106          1           0        7.483208   -1.439804   -0.836415
    107          1           0        7.745816   -0.143546   -1.924883
    108          1           0        9.055010    0.932953   -0.139303
    109          1           0        8.593583   -0.617385    0.874420
    110          1           0       10.280768   -0.264177   -1.610775
    111          1           0        9.436383   -2.602091   -1.856877
    112          1           0       10.980637   -2.712238   -1.029058
    113          1           0        9.411349   -2.864401    0.125497
    114          1           0       11.298339    0.620138    0.487212
    115          1           0       11.549703   -1.050825    1.082530
    116          1           0       12.948098   -1.670351   -0.875279
    117          1           0       12.604521    0.024038   -1.624122
    118          1           0       13.837425    1.016922    0.542794
    119          1           0       14.125633   -0.626366    1.214420
    120          1           0       15.171694    0.182704   -1.482639
    121          1           0       14.881062   -2.368610   -1.065057
    122          1           0       16.681961   -1.629674   -1.147451
    123          1           0       15.967219   -2.241873    0.232961
    124          1           0       16.002050    1.539896    0.746117
    125          1           0       16.499676   -0.053394    1.382586
    126          1           0       18.298011   -0.180136   -0.202807
    127          1           0       17.798370    1.100121   -1.420153
    128          1           0       18.276549    2.877010    0.590668
    129          1           0       18.526284    1.259917    1.649189
    130          1           0       20.580443    0.748155    0.492994
    131          1           0       19.919109    3.237159   -1.584941
    132          1           0       21.624136    1.982272   -1.261177
    133          1           0       19.927751    1.388205   -2.075180
    134          1           0       20.820975    2.645136    1.991060
    135          1           0       21.877509    2.515612    0.878007
    136          1           0       20.664170    3.775907    0.830595
    137          1           0       -7.163623    1.754288    0.377242
    138          1           0       -7.481760   -0.273957   -0.145025
 ---------------------------------------------------------------------

 SCF Done:  E(RB3LYP) =  -2733.05210908     A.U. after   17 cycles

 Excitation energies and oscillator strengths:

 Excited State   1:      Singlet-A      2.0583 eV  602.35 nm  f=0.1511  <S**2>=0.000
     235 -> 237       -0.28912
     235 -> 238        0.27221
     236 -> 237        0.55173
     236 -> 238        0.18273
 This state for optimization and/or second-order correction.
 Total Energy, E(TD-HF/TD-KS) =  -2732.97646665
 Copying the excited state density for this state as the 1-particle RhoCI density.

 The electronic state is 1-A.
 Alpha  occ. eigenvalues --  -19.17551 -19.16043 -19.12348 -19.11292 -19.10714
 Alpha  occ. eigenvalues --  -14.37181 -14.36195 -14.32502 -14.30666 -10.32412
 Alpha  occ. eigenvalues --  -10.30281 -10.26701 -10.24791 -10.24527 -10.24208
 Alpha  occ. eigenvalues --  -10.23669 -10.23442 -10.23021 -10.22887 -10.22830
 Alpha  occ. eigenvalues --  -10.22763 -10.22452 -10.22355 -10.22337 -10.22305
 Alpha  occ. eigenvalues --  -10.21777 -10.21508 -10.21436 -10.21395 -10.21192
 Alpha  occ. eigenvalues --  -10.21080 -10.20967 -10.20849 -10.20795 -10.20781
 Alpha  occ. eigenvalues --  -10.20771 -10.20600 -10.20444 -10.20435 -10.20340
 Alpha  occ. eigenvalues --  -10.20055 -10.19970 -10.19704 -10.19590 -10.19473
 Alpha  occ. eigenvalues --  -10.19457 -10.19355 -10.19321 -10.19313 -10.19193
 Alpha  occ. eigenvalues --  -10.18926 -10.18898 -10.18847 -10.18835 -10.18645
 Alpha  occ. eigenvalues --  -10.18538 -10.18241 -10.18123 -10.17999 -10.17863
 Alpha  occ. eigenvalues --  -10.17823 -10.17446 -10.17174 -10.15687  -1.10997
 Alpha  occ. eigenvalues --   -1.07481  -1.01953  -1.00453  -0.98942  -0.98433
 Alpha  occ. eigenvalues --   -0.97195  -0.93834  -0.93214  -0.85166  -0.82571
 Alpha  occ. eigenvalues --   -0.82365  -0.82241  -0.81470  -0.81339  -0.80699
 Alpha  occ. eigenvalues --   -0.80609  -0.79620  -0.79357  -0.78725  -0.77831
 Alpha  occ. eigenvalues --   -0.77275  -0.76415  -0.75391  -0.74857  -0.74210
 Alpha  occ. eigenvalues --   -0.73440  -0.73233  -0.72580  -0.72069  -0.71921
 Alpha  occ. eigenvalues --   -0.71458  -0.69538  -0.69236  -0.67831  -0.67416
 Alpha  occ. eigenvalues --   -0.66957  -0.66564  -0.66492  -0.65801  -0.65099
 Alpha  occ. eigenvalues --   -0.63267  -0.62753  -0.62420  -0.61913  -0.61529
 Alpha  occ. eigenvalues --   -0.60640  -0.58406  -0.58401  -0.57715  -0.57081
 Alpha  occ. eigenvalues --   -0.56499  -0.56152  -0.55954  -0.55659  -0.55613
 Alpha  occ. eigenvalues --   -0.55028  -0.54640  -0.54406  -0.53643  -0.53475
 Alpha  occ. eigenvalues --   -0.52332  -0.51919  -0.51602  -0.50887  -0.50375
 Alpha  occ. eigenvalues --   -0.50319  -0.49331  -0.48858  -0.48418  -0.48178
 Alpha  occ. eigenvalues --   -0.47557  -0.47326  -0.47188  -0.47095  -0.46928
 Alpha  occ. eigenvalues --   -0.46572  -0.46378  -0.46292  -0.46069  -0.45961
 Alpha  occ. eigenvalues --   -0.45739  -0.45404  -0.45092  -0.44893  -0.44439
 Alpha  occ. eigenvalues --   -0.44380  -0.44150  -0.44073  -0.43755  -0.43568
 Alpha  occ. eigenvalues --   -0.43423  -0.43288  -0.43062  -0.42954  -0.42703
 Alpha  occ. eigenvalues --   -0.42378  -0.42227  -0.42204  -0.41731  -0.41648
 Alpha  occ. eigenvalues --   -0.41229  -0.41021  -0.40795  -0.40762  -0.40558
 Alpha  occ. eigenvalues --   -0.40173  -0.40162  -0.40088  -0.39561  -0.39446
 Alpha  occ. eigenvalues --   -0.39047  -0.39006  -0.38936  -0.38539  -0.38424
 Alpha  occ. eigenvalues --   -0.38313  -0.37994  -0.37817  -0.37657  -0.37622
 Alpha  occ. eigenvalues --   -0.37493  -0.36971  -0.36734  -0.36624  -0.36399
 Alpha  occ. eigenvalues --   -0.36298  -0.36151  -0.36003  -0.35919  -0.35579
 Alpha  occ. eigenvalues --   -0.35462  -0.35371  -0.35104  -0.35003  -0.34930
 Alpha  occ. eigenvalues --   -0.34397  -0.34162  -0.33969  -0.33940  -0.33729
 Alpha  occ. eigenvalues --   -0.33413  -0.32723  -0.32675  -0.32504  -0.32443
 Alpha  occ. eigenvalues --   -0.31936  -0.31832  -0.31694  -0.31439  -0.31226
 Alpha  occ. eigenvalues --   -0.30825  -0.30453  -0.30327  -0.29643  -0.29487
 Alpha  occ. eigenvalues --   -0.29103  -0.28864  -0.28409  -0.28323  -0.27487
 Alpha  occ. eigenvalues --   -0.27390  -0.26963  -0.26682  -0.26258  -0.25526
 Alpha  occ. eigenvalues --   -0.24757  -0.24246  -0.23430  -0.22712  -0.19978
 Alpha  occ. eigenvalues --   -0.18975
 Alpha virt. eigenvalues --   -0.10423  -0.07937  -0.04531  -0.02866  -0.01822
 Alpha virt. eigenvalues --    0.00078   0.00406   0.01753   0.02353   0.03053
 Alpha virt. eigenvalues --    0.03384   0.03858   0.04104   0.04158   0.04677

 Mulliken charges:
               1
     1  C    0.057190
     2  C   -0.063066
     3  C   -0.111266
     4  C   -0.085583
     5  N   -0.190541
     6  C   -0.070886
     7  C   -0.073075
     8  C   -0.093915
     9  C   -0.068447
    10  C    0.075991
    11  C    0.007251
    12  C    0.099879
    13  C    0.186178
    14  O   -0.293040
    15  O   -0.317262
    16  N   -0.073177
    17  C    0.104733
    18  C   -0.091084
    19  C   -0.019840
    20  C    0.130432
    21  C    0.185686
    22  C   -0.019371
    23  C   -0.067434
    24  N   -0.221904
    25  C    0.019223
    26  C   -0.089322
    27  C   -0.089489
    28  C    0.015193
    29  C   -0.089488
    30  C    0.026392
    31  C   -0.034232
    32  N   -0.000346
    33  C    0.157629
    34  C   -0.172022
    35  C   -0.031976
    36  C    0.073448
    37  C    0.217110
    38  C    0.049475
    39  O   -0.178153
    40  C   -0.101335
    41  C    0.143758
    42  O   -0.205255
    43  O   -0.270956
    44  C    0.187576
    45  C    0.224683
    46  C    0.012880
    47  C   -0.141066
    48  C    0.146688
    49  C    0.010460
    50  C    0.094249
    51  C   -0.023437
    52  C   -0.032060
    53  C    0.004838
    54  C    0.056914
    55  C    0.050644
    56  C   -0.035273
    57  C   -0.069731
    58  C    0.038969
    59  C    0.068844
    60  C   -0.073683
    61  C   -0.003053
    62  C   -0.101675
    63  C   -0.052260
    64  C    0.147996
    65  H   -0.008867
    66  H    0.017667
    67  H   -0.040561
    68  H    0.040875
    69  H    0.012524
    70  H   -0.017921
    71  H    0.050499
    72  H    0.044768
    73  H    0.045724
    74  H    0.055519
    75  H    0.033868
    76  H    0.060777
    77  H   -0.016227
    78  H   -0.009466
    79  H   -0.005833
    80  H    0.033041
    81  H    0.049209
    82  H    0.037731
    83  H    0.040606
    84  H    0.054577
    85  H    0.053849
    86  H    0.028376
    87  H    0.017235
    88  H    0.040590
    89  H    0.032017
    90  H    0.025419
    91  H    0.014637
    92  H   -0.019174
    93  H    0.036569
    94  H    0.057526
    95  H    0.023985
    96  H    0.009711
    97  H    0.067038
    98  H    0.023051
    99  H    0.008919
   100  H   -0.073518
   101  H    0.003760
   102  H   -0.006316
   103  H   -0.013380
   104  H    0.008034
   105  H   -0.001405
   106  H   -0.021303
   107  H   -0.021864
   108  H   -0.011892
   109  H   -0.007316
   110  H   -0.030696
   111  H    0.025653
   112  H   -0.030841
   113  H    0.037797
   114  H   -0.017892
   115  H   -0.001589
   116  H    0.016120
   117  H    0.008507
   118  H   -0.002909
   119  H    0.001862
   120  H   -0.011441
   121  H    0.015827
   122  H   -0.002486
   123  H   -0.018349
   124  H    0.000785
   125  H    0.001260
   126  H   -0.006666
   127  H    0.020808
   128  H    0.007645
   129  H    0.001044
   130  H   -0.003740
   131  H    0.028389
   132  H    0.037212
   133  H    0.027821
   134  H   -0.034702
   135  H   -0.047310
   136  H   -0.001221
   137  H    0.175330
   138  H    0.111117
 Sum of Mulliken charges =   0.00000

 Dipole moment (field-independent basis, Debye):
    X=              1.5712    Y=              5.5939    Z=              0.1714  Tot=              5.8129
 Quadrupole moment (field-independent basis, Debye-Ang):
   XX=           -345.3323   YY=           -383.0461   ZZ=           -396.0817
   XY=            -32.2474   XZ=             22.7126   YZ=             -2.6380

 Normal termination of Gaussian 09 at Fri Aug  2 21:34:52 2019.
