 Gaussian 09, Revision D.01,
 Gaussian 09:  ES64L-G09RevD.01 24-Apr-2013

 --------------------------
 # td=(NStates=1) B3LYP/SVP
 --------------------------

 --
 TD
 --
 Symbolic Z-matrix:
 Charge =  0 Multiplicity = 1

                         Standard orientation:
 ---------------------------------------------------------------------
 Center     Atomic      Atomic             Coordinates (Angstroms)
 Number     Number       Type             X           Y           Z
 ---------------------------------------------------------------------
      1          6           0       -5.135917   -1.953325    0.532237
      2          6           0       -4.662955    2.852329    1.252566
      3          6           0       -9.300762    3.291581   -0.235220
      4          6           0       -9.891147   -1.417279   -0.869456
      5          7           0       -5.212964    0.503922    0.656590
      6          6           0       -4.532262   -0.714533    0.812775
      7          6           0       -3.039687   -0.515037    1.208072
      8          6           0       -3.054556    0.995417    1.704729
      9          6           0       -4.423231    1.451367    1.166722
     10          6           0       -2.745764    1.235371    3.203105
     11          6           0       -2.161061   -0.904485    0.153679
     12          6           0       -0.668514   -0.983401    0.462223
     13          6           0        0.387538   -1.234646   -0.523398
     14          8           0        0.119976   -1.624956   -1.692764
     15          8           0        1.651510   -1.015413   -0.046227
     16          7           0       -6.941046    2.779210    0.439108
     17          6           0       -5.890098    3.421125    0.895226
     18          6           0       -6.223110    4.924907    0.968300
     19          6           0       -7.469136    4.985505    0.503566
     20          6           0       -8.003935    3.654171    0.099315
     21          6           0       -5.252148    5.982227    1.431135
     22          6           0       -8.232933    6.177028    0.405492
     23          6           0       -9.072967    6.714515   -0.537344
     24          7           0       -9.202800    0.851771   -0.334482
     25          6           0       -9.933543    1.978777   -0.446500
     26          6           0      -11.231148    1.914606   -0.859432
     27          6           0      -11.487844    0.537425   -1.092056
     28          6           0      -10.166927   -0.054780   -0.722241
     29          6           0      -12.133839    3.099185   -1.093712
     30          6           0      -12.688163   -0.276077   -1.573947
     31          6           0      -12.637411   -0.579459   -3.111107
     32          7           0       -7.621644   -1.277715   -0.099104
     33          6           0       -8.701751   -2.053285   -0.516197
     34          6           0       -8.272846   -3.335884   -0.511072
     35          6           0       -6.943688   -3.350969   -0.193276
     36          6           0       -6.456772   -2.010321    0.085639
     37          6           0       -9.021183   -4.637366   -0.990824
     38          6           0       -5.783303   -4.260532    0.064649
     39          8           0       -5.594300   -5.494524    0.030744
     40          6           0       -4.486524   -3.347108    0.558197
     41          6           0       -3.944292   -3.778581    1.753474
     42          8           0       -4.131507   -3.266573    2.846865
     43          8           0       -3.056286   -4.777568    1.568133
     44          6           0       -2.629244   -5.450677    2.747251
     45          6           0        2.640156   -1.285195   -1.041771
     46          6           0        3.960236   -0.786783   -0.621192
     47          6           0        4.933917   -0.145174   -1.262091
     48          6           0        5.010946    0.089907   -2.915923
     49          6           0        6.290270    0.374104   -0.620059
     50          6           0        7.495896   -0.461415   -1.084805
     51          6           0        8.721966    0.013839   -0.359041
     52          6           0       10.089030   -0.768509   -0.840592
     53          6           0       10.048332   -2.215949   -0.773013
     54          6           0       11.370458   -0.121920   -0.111031
     55          6           0       12.667556   -0.466006   -0.620845
     56          6           0       13.764508    0.193417    0.227485
     57          6           0       15.279238   -0.138201   -0.289782
     58          6           0       15.637651   -1.651263   -0.317042
     59          6           0       16.275559    0.719017    0.495771
     60          6           0       17.654074    0.708759    0.025492
     61          6           0       18.661073    1.517402    0.794411
     62          6           0       20.143303    1.631761    0.159307
     63          6           0       20.019618    2.286316   -1.253149
     64          6           0       21.045475    2.388238    1.087399
     65          1           0       -4.043290    3.612898    1.794464
     66          1           0       -9.892537    4.250827   -0.201895
     67          1           0      -10.595461   -2.161943   -1.273361
     68          1           0       -2.926361   -1.189845    2.124697
     69          1           0       -2.424585    1.694372    1.148070
     70          1           0       -1.761989    0.873121    3.540756
     71          1           0       -2.771233    2.383233    3.286804
     72          1           0       -3.577613    0.805624    3.878668
     73          1           0       -2.413741   -1.839802   -0.102449
     74          1           0       -2.441313   -0.287338   -0.649595
     75          1           0       -0.400710   -0.037463    1.016558
     76          1           0       -0.527429   -1.681728    1.352360
     77          1           0       -4.167683    5.757525    0.816651
     78          1           0       -5.631224    6.924600    1.227117
     79          1           0       -4.875118    5.918269    2.414229
     80          1           0       -8.127294    6.942016    1.233656
     81          1           0       -9.362533    6.139633   -1.698122
     82          1           0       -9.642390    7.742810   -0.520370
     83          1           0      -12.392777    3.594210   -0.149920
     84          1           0      -11.586891    3.758606   -1.803867
     85          1           0      -13.067671    2.555588   -1.554172
     86          1           0      -12.665028   -1.182386   -0.977789
     87          1           0      -13.467549    0.456278   -1.349679
     88          1           0      -12.609863    0.294165   -3.706197
     89          1           0      -11.648560   -1.001081   -3.472486
     90          1           0      -13.591610   -1.143176   -3.351235
     91          1           0      -10.165864   -4.519831   -0.749564
     92          1           0       -9.058130   -4.624082   -2.230691
     93          1           0       -8.616452   -5.637748   -0.776785
     94          1           0       -3.734748   -3.538792   -0.400889
     95          1           0       -1.848187   -6.270824    2.541531
     96          1           0       -2.253575   -4.614770    3.479969
     97          1           0       -3.394767   -5.907721    3.334103
     98          1           0        2.670248   -2.326934   -1.183477
     99          1           0        2.460288   -0.970120   -2.245793
    100          1           0        4.291030   -1.008830    0.515366
    101          1           0        5.473235    1.186358   -3.400162
    102          1           0        5.662168   -0.717552   -3.464802
    103          1           0        4.084804    0.117691   -3.669775
    104          1           0        6.575108    1.412877   -0.662182
    105          1           0        6.045078    0.187845    0.499954
    106          1           0        7.243906   -1.590888   -0.944142
    107          1           0        7.608323   -0.184553   -2.086387
    108          1           0        9.012494    1.040407   -0.427883
    109          1           0        8.539785   -0.093714    0.860013
    110          1           0       10.349757   -0.380265   -1.854947
    111          1           0        8.986786   -2.597305   -1.212705
    112          1           0       10.822202   -2.716521   -1.238897
    113          1           0        9.680016   -2.560005    0.191709
    114          1           0       11.226095    0.824104   -0.221495
    115          1           0       11.243666   -0.416222    1.101074
    116          1           0       13.082217   -1.630139   -0.653649
    117          1           0       12.625712   -0.209240   -1.661073
    118          1           0       13.920813    1.248760    0.196005
    119          1           0       13.410234   -0.297085    1.250890
    120          1           0       15.585350    0.089225   -1.387765
    121          1           0       14.995208   -2.055249   -1.007887
    122          1           0       16.829037   -1.687505   -0.431937
    123          1           0       15.397689   -2.115655    0.745755
    124          1           0       15.869416    1.687174    0.459979
    125          1           0       16.108815    0.403701    1.662054
    126          1           0       17.900246   -0.398477   -0.071953
    127          1           0       17.507643    1.094480   -1.009842
    128          1           0       18.143751    2.613902    0.825197
    129          1           0       18.795544    0.917472    1.846014
    130          1           0       20.405948    0.680792    0.139549
    131          1           0       19.515461    3.378271   -1.183072
    132          1           0       20.970920    2.380956   -1.795822
    133          1           0       19.390948    1.736028   -1.775650
    134          1           0       21.178051    1.732033    1.898791
    135          1           0       22.251741    2.225612    0.745999
    136          1           0       20.986613    3.427134    1.381351
    137          1           0       -7.110914    1.820134    0.183094
    138          1           0       -8.026069   -0.322791    0.106560
 ---------------------------------------------------------------------

 SCF Done:  E(RB3LYP) =  -2733.01387660     A.U. after   17 cycles

 Excitation energies and oscillator strengths:

 Excited State   1:      Singlet-A      2.1841 eV  567.66 nm  f=0.1702  <S**2>=0.000
     235 -> 238       -0.31727
     236 -> 237        0.62818
 This state for optimization and/or second-order correction.
 Total Energy, E(TD-HF/TD-KS) =  -2732.93361160
 Copying the excited state density for this state as the 1-particle RhoCI density.

 The electronic state is 1-A.
 Alpha  occ. eigenvalues --  -19.19200 -19.17315 -19.12270 -19.12201 -19.11553
 Alpha  occ. eigenvalues --  -14.37330 -14.35713 -14.32677 -14.30923 -10.32163
 Alpha  occ. eigenvalues --  -10.30651 -10.28781 -10.25560 -10.24812 -10.24420
 Alpha  occ. eigenvalues --  -10.24306 -10.24026 -10.23593 -10.23465 -10.23293
 Alpha  occ. eigenvalues --  -10.22334 -10.22250 -10.22021 -10.21873 -10.21825
 Alpha  occ. eigenvalues --  -10.21730 -10.21696 -10.21634 -10.21625 -10.21600
 Alpha  occ. eigenvalues --  -10.21208 -10.20867 -10.20856 -10.20821 -10.20673
 Alpha  occ. eigenvalues --  -10.20631 -10.20369 -10.20301 -10.20215 -10.20212
 Alpha  occ. eigenvalues --  -10.20157 -10.20153 -10.19949 -10.19917 -10.19741
 Alpha  occ. eigenvalues --  -10.19741 -10.19415 -10.19361 -10.19321 -10.19288
 Alpha  occ. eigenvalues --  -10.19244 -10.19146 -10.18887 -10.18769 -10.18673
 Alpha  occ. eigenvalues --  -10.18580 -10.18346 -10.18207 -10.18124 -10.17739
 Alpha  occ. eigenvalues --  -10.17730 -10.17705 -10.17486 -10.17473  -1.09221
 Alpha  occ. eigenvalues --   -1.09206  -1.00575  -0.99703  -0.98970  -0.98896
 Alpha  occ. eigenvalues --   -0.97651  -0.94774  -0.93772  -0.84472  -0.83413
 Alpha  occ. eigenvalues --   -0.82503  -0.82388  -0.81658  -0.80764  -0.80583
 Alpha  occ. eigenvalues --   -0.80161  -0.79402  -0.79310  -0.79241  -0.78173
 Alpha  occ. eigenvalues --   -0.77392  -0.76448  -0.76168  -0.75325  -0.74843
 Alpha  occ. eigenvalues --   -0.73935  -0.73260  -0.72797  -0.71765  -0.71271
 Alpha  occ. eigenvalues --   -0.69695  -0.69172  -0.68175  -0.68085  -0.67695
 Alpha  occ. eigenvalues --   -0.67328  -0.66509  -0.65779  -0.65554  -0.65261
 Alpha  occ. eigenvalues --   -0.64932  -0.63462  -0.63089  -0.62475  -0.61910
 Alpha  occ. eigenvalues --   -0.61117  -0.59007  -0.58883  -0.58530  -0.57373
 Alpha  occ. eigenvalues --   -0.57276  -0.56755  -0.56413  -0.55424  -0.55236
 Alpha  occ. eigenvalues --   -0.55077  -0.53860  -0.53461  -0.53427  -0.52885
 Alpha  occ. eigenvalues --   -0.52637  -0.52110  -0.51212  -0.50714  -0.50108
 Alpha  occ. eigenvalues --   -0.49603  -0.49513  -0.48587  -0.48356  -0.48207
 Alpha  occ. eigenvalues --   -0.48084  -0.47844  -0.47665  -0.47394  -0.47275
 Alpha  occ. eigenvalues --   -0.46696  -0.46402  -0.46301  -0.46070  -0.45561
 Alpha  occ. eigenvalues --   -0.45334  -0.45171  -0.45009  -0.44844  -0.44645
 Alpha  occ. eigenvalues --   -0.44489  -0.44196  -0.44036  -0.43895  -0.43790
 Alpha  occ. eigenvalues --   -0.43401  -0.43228  -0.43121  -0.42797  -0.42542
 Alpha  occ. eigenvalues --   -0.42235  -0.42053  -0.41836  -0.41635  -0.41573
 Alpha  occ. eigenvalues --   -0.41321  -0.41104  -0.40659  -0.40350  -0.40246
 Alpha  occ. eigenvalues --   -0.40145  -0.39893  -0.39657  -0.39559  -0.39237
 Alpha  occ. eigenvalues --   -0.39156  -0.39016  -0.38806  -0.38574  -0.38300
 Alpha  occ. eigenvalues --   -0.38238  -0.38116  -0.37976  -0.37763  -0.37417
 Alpha  occ. eigenvalues --   -0.37278  -0.37055  -0.36937  -0.36543  -0.36411
 Alpha  occ. eigenvalues --   -0.36350  -0.36039  -0.35937  -0.35762  -0.35459
 Alpha  occ. eigenvalues --   -0.35359  -0.35192  -0.35014  -0.34796  -0.34750
 Alpha  occ. eigenvalues --   -0.34333  -0.34164  -0.34062  -0.33766  -0.33660
 Alpha  occ. eigenvalues --   -0.33568  -0.32978  -0.32935  -0.32585  -0.32363
 Alpha  occ. eigenvalues --   -0.32350  -0.31755  -0.31676  -0.31590  -0.31123
 Alpha  occ. eigenvalues --   -0.30987  -0.30656  -0.30303  -0.29994  -0.29467
 Alpha  occ. eigenvalues --   -0.29452  -0.29039  -0.28898  -0.28132  -0.27576
 Alpha  occ. eigenvalues --   -0.27456  -0.27407  -0.27278  -0.26368  -0.25699
 Alpha  occ. eigenvalues --   -0.25677  -0.25177  -0.24437  -0.23197  -0.20364
 Alpha  occ. eigenvalues --   -0.19328
 Alpha virt. eigenvalues --   -0.10066  -0.08066  -0.04730  -0.02629  -0.01356
 Alpha virt. eigenvalues --   -0.01265  -0.00134   0.00136   0.01687   0.03596
 Alpha virt. eigenvalues --    0.03718   0.03753   0.04226   0.04287   0.04709

 Mulliken charges:
               1
     1  C   -0.043466
     2  C   -0.099250
     3  C   -0.108031
     4  C   -0.068049
     5  N   -0.173744
     6  C   -0.070391
     7  C   -0.056876
     8  C   -0.049825
     9  C    0.040397
    10  C    0.039654
    11  C    0.252053
    12  C    0.009270
    13  C    0.218957
    14  O   -0.276763
    15  O   -0.302085
    16  N   -0.022554
    17  C    0.043457
    18  C   -0.106548
    19  C    0.098562
    20  C    0.037248
    21  C    0.108155
    22  C   -0.112782
    23  C   -0.142201
    24  N   -0.249601
    25  C    0.138721
    26  C   -0.217128
    27  C   -0.142171
    28  C    0.101214
    29  C    0.121861
    30  C    0.108293
    31  C    0.012393
    32  N   -0.100483
    33  C   -0.000077
    34  C   -0.113156
    35  C   -0.007401
    36  C    0.154440
    37  C    0.014864
    38  C    0.086316
    39  O   -0.198775
    40  C   -0.100115
    41  C    0.227196
    42  O   -0.239516
    43  O   -0.293837
    44  C    0.165917
    45  C    0.266732
    46  C   -0.097143
    47  C   -0.072638
    48  C   -0.121201
    49  C    0.039987
    50  C    0.062072
    51  C   -0.023046
    52  C   -0.096896
    53  C    0.103592
    54  C    0.074499
    55  C    0.013562
    56  C    0.043083
    57  C   -0.153262
    58  C    0.006504
    59  C    0.036837
    60  C    0.023201
    61  C   -0.044751
    62  C    0.001908
    63  C    0.066049
    64  C    0.045842
    65  H   -0.013897
    66  H   -0.004458
    67  H   -0.020130
    68  H    0.019234
    69  H   -0.001446
    70  H    0.027110
    71  H    0.012188
    72  H    0.040237
    73  H   -0.050678
    74  H   -0.016770
    75  H    0.018013
    76  H    0.033354
    77  H    0.044012
    78  H    0.008488
    79  H    0.024029
    80  H    0.026747
    81  H    0.051096
    82  H    0.059462
    83  H    0.032554
    84  H    0.036032
    85  H    0.022594
    86  H    0.015600
    87  H    0.006971
    88  H   -0.007368
    89  H    0.023160
    90  H    0.031326
    91  H    0.029603
    92  H    0.041238
    93  H    0.054351
    94  H    0.117917
    95  H    0.047267
    96  H    0.031402
    97  H    0.018583
    98  H    0.002863
    99  H    0.057389
   100  H    0.021101
   101  H    0.030456
   102  H    0.051923
   103  H    0.035399
   104  H    0.005490
   105  H   -0.001336
   106  H    0.034046
   107  H   -0.010126
   108  H   -0.014514
   109  H    0.004677
   110  H   -0.018887
   111  H   -0.011493
   112  H    0.006910
   113  H   -0.011094
   114  H   -0.065696
   115  H   -0.001810
   116  H    0.013979
   117  H   -0.024395
   118  H   -0.007173
   119  H    0.027908
   120  H   -0.007520
   121  H    0.009245
   122  H    0.026602
   123  H    0.008298
   124  H   -0.034042
   125  H   -0.008155
   126  H   -0.002273
   127  H   -0.004077
   128  H    0.013190
   129  H    0.016022
   130  H   -0.051526
   131  H    0.011679
   132  H    0.010011
   133  H   -0.032307
   134  H   -0.019427
   135  H   -0.009169
   136  H    0.023332
   137  H    0.146209
   138  H    0.161393
 Sum of Mulliken charges =   0.00000

 Dipole moment (field-independent basis, Debye):
    X=             -0.1369    Y=              5.7148    Z=              0.0723  Tot=              5.7169
 Quadrupole moment (field-independent basis, Debye-Ang):
   XX=           -344.0627   YY=           -380.2788   ZZ=           -396.8011
   XY=            -33.1173   XZ=              3.6394   YZ=              1.8534

 Normal termination of Gaussian 09 at Sat Jul 27 02:16:51 2019.
