 Gaussian 09, Revision D.01,
 Gaussian 09:  ES64L-G09RevD.01 24-Apr-2013

 --------------------------
 # td=(NStates=1) B3LYP/SVP
 --------------------------

 --
 TD
 --
 Symbolic Z-matrix:
 Charge =  0 Multiplicity = 1

                         Standard orientation:
 ---------------------------------------------------------------------
 Center     Atomic      Atomic             Coordinates (Angstroms)
 Number     Number       Type             X           Y           Z
 ---------------------------------------------------------------------
      1          6           0       -5.056764   -1.866320    0.427849
      2          6           0       -4.766060    2.805883    1.563371
      3          6           0       -9.311666    3.176959   -0.327882
      4          6           0       -9.768922   -1.394974   -1.041973
      5          7           0       -5.205439    0.471896    0.787494
      6          6           0       -4.517238   -0.703255    0.988017
      7          6           0       -3.164036   -0.554873    1.383527
      8          6           0       -3.101683    0.881014    2.062302
      9          6           0       -4.444745    1.423333    1.392213
     10          6           0       -3.126283    0.854411    3.615725
     11          6           0       -2.160691   -0.712504    0.256239
     12          6           0       -0.585410   -0.542598    0.576950
     13          6           0        0.293644   -0.884895   -0.406334
     14          8           0        0.122365   -1.321891   -1.660042
     15          8           0        1.618895   -0.779984   -0.027752
     16          7           0       -7.060753    2.643746    0.543604
     17          6           0       -5.958323    3.424343    1.063173
     18          6           0       -6.304090    4.758899    1.187586
     19          6           0       -7.559591    4.965198    0.458657
     20          6           0       -8.014999    3.676191    0.244511
     21          6           0       -5.384036    5.821515    1.704095
     22          6           0       -8.176769    6.213488    0.204367
     23          6           0       -9.151962    6.546362   -0.599974
     24          7           0       -9.154075    0.795623   -0.521901
     25          6           0       -9.835582    1.936279   -0.549301
     26          6           0      -11.252366    1.789879   -0.955569
     27          6           0      -11.368638    0.466765   -1.370557
     28          6           0      -10.088640   -0.125835   -0.978584
     29          6           0      -12.283423    2.934997   -1.215691
     30          6           0      -12.463302   -0.309700   -2.019062
     31          6           0      -12.399788   -0.438469   -3.549442
     32          7           0       -7.476479   -1.302956   -0.308343
     33          6           0       -8.495366   -1.984997   -0.764342
     34          6           0       -8.100181   -3.357344   -0.869183
     35          6           0       -6.662214   -3.327131   -0.481007
     36          6           0       -6.353267   -2.014087   -0.123542
     37          6           0       -8.927846   -4.514961   -1.170031
     38          6           0       -5.677790   -4.173388    0.056083
     39          8           0       -5.576753   -5.415156    0.071896
     40          6           0       -4.515872   -3.294728    0.519809
     41          6           0       -4.011268   -3.875523    1.888561
     42          8           0       -4.411202   -3.525347    3.003087
     43          8           0       -3.066160   -4.795908    1.659147
     44          6           0       -2.743600   -5.612227    2.876749
     45          6           0        2.711009   -1.082844   -1.022948
     46          6           0        4.011062   -0.755482   -0.323609
     47          6           0        4.929096    0.224123   -0.743081
     48          6           0        4.894128    0.970425   -2.107432
     49          6           0        6.307210    0.236051   -0.127702
     50          6           0        7.436079   -0.441313   -0.864415
     51          6           0        8.855203   -0.214025   -0.197077
     52          6           0       10.110328   -0.708404   -0.944755
     53          6           0       10.057202   -2.324717   -1.095899
     54          6           0       11.318675   -0.280181   -0.042825
     55          6           0       12.609310   -0.562313   -0.785175
     56          6           0       13.820494   -0.134909    0.003970
     57          6           0       15.209606   -0.121162   -0.674353
     58          6           0       15.483401   -1.589666   -1.128091
     59          6           0       16.287629    0.497985    0.360575
     60          6           0       17.702363    0.691260   -0.289207
     61          6           0       18.708814    1.411611    0.698793
     62          6           0       20.084795    1.631849    0.163301
     63          6           0       20.116895    2.664673   -1.183613
     64          6           0       20.937609    2.195717    1.379536
     65          1           0       -3.890347    3.527135    2.009463
     66          1           0      -10.136850    4.155615   -0.181746
     67          1           0      -10.476501   -2.062469   -1.652726
     68          1           0       -2.902698   -1.150731    2.255705
     69          1           0       -2.398713    1.599090    1.643252
     70          1           0       -2.212259    0.555765    3.894196
     71          1           0       -3.210332    1.829235    4.045099
     72          1           0       -3.990666    0.209268    3.923946
     73          1           0       -2.269411   -1.757524   -0.266487
     74          1           0       -2.186606   -0.129612   -0.614730
     75          1           0       -0.098454    0.480391    0.841226
     76          1           0       -0.280298   -1.164267    1.360736
     77          1           0       -4.708173    6.121264    0.887761
     78          1           0       -5.825713    6.838469    1.909175
     79          1           0       -4.641219    5.769308    2.646788
     80          1           0       -7.970074    7.054919    0.860659
     81          1           0       -9.671470    5.809162   -1.540976
     82          1           0       -9.376853    7.631580   -0.436117
     83          1           0      -12.490600    3.571513   -0.294594
     84          1           0      -11.904720    3.584966   -1.992644
     85          1           0      -13.168899    2.501703   -1.519212
     86          1           0      -12.601048   -1.428962   -1.749539
     87          1           0      -13.346373    0.135221   -1.551184
     88          1           0      -12.502925    0.595023   -4.059641
     89          1           0      -11.459419   -0.808698   -3.753064
     90          1           0      -13.225567   -1.259516   -3.827620
     91          1           0       -9.692093   -4.411897   -0.642921
     92          1           0       -9.279047   -4.536501   -2.168796
     93          1           0       -8.306692   -5.369007   -0.681791
     94          1           0       -3.622697   -3.463455   -0.240097
     95          1           0       -2.385809   -6.795968    2.483803
     96          1           0       -1.844952   -5.040568    3.440417
     97          1           0       -3.640854   -5.957687    3.545081
     98          1           0        2.747665   -2.083659   -1.227875
     99          1           0        2.612687   -0.750942   -2.016110
    100          1           0        4.183527   -1.540332    0.575407
    101          1           0        5.124667    2.110378   -2.215995
    102          1           0        5.647039    0.515033   -2.765819
    103          1           0        4.039129    0.774973   -2.421043
    104          1           0        6.652074    1.344173   -0.045215
    105          1           0        6.131266   -0.069027    1.045980
    106          1           0        7.367585   -1.587754   -1.088129
    107          1           0        7.433491   -0.084193   -1.725527
    108          1           0        9.202480    0.669500    0.123811
    109          1           0        8.936516   -0.911460    0.806374
    110          1           0        9.997782   -0.299416   -1.779882
    111          1           0        9.156947   -2.667307   -1.668893
    112          1           0       10.693571   -2.959899   -1.902833
    113          1           0        9.903063   -2.654881   -0.085992
    114          1           0       11.116624    0.757944    0.100479
    115          1           0       11.316858   -0.919411    0.894899
    116          1           0       12.552787   -1.527304   -1.260482
    117          1           0       12.774322    0.256094   -1.710435
    118          1           0       13.459398    0.903097    0.291157
    119          1           0       13.856986   -0.725314    0.960503
    120          1           0       15.286610    0.599772   -1.550472
    121          1           0       14.697703   -2.002006   -1.783363
    122          1           0       16.559287   -1.890893   -1.476439
    123          1           0       15.655732   -2.078452   -0.129120
    124          1           0       15.797203    1.388415    0.793880
    125          1           0       16.451274   -0.195951    1.225142
    126          1           0       17.985721   -0.472370   -0.689029
    127          1           0       17.710161    1.233291   -1.181438
    128          1           0       18.168308    2.333802    1.090570
    129          1           0       18.749734    0.819448    1.543584
    130          1           0       20.500157    0.614120   -0.183935
    131          1           0       19.882123    3.605213   -1.012731
    132          1           0       21.185926    2.561803   -1.455151
    133          1           0       19.521905    2.272864   -1.975011
    134          1           0       20.764557    1.574895    2.121461
    135          1           0       21.886575    2.494349    0.948771
    136          1           0       20.580407    3.263133    1.549109
    137          1           0       -7.129521    1.671826    0.491440
    138          1           0       -7.574775   -0.306515   -0.401531
 ---------------------------------------------------------------------

 SCF Done:  E(RB3LYP) =  -2732.91307575     A.U. after   18 cycles

 Excitation energies and oscillator strengths:

 Excited State   1:      Singlet-A      2.0021 eV  619.26 nm  f=0.1919  <S**2>=0.000
     235 -> 237        0.62806
     236 -> 237       -0.12870
     236 -> 238        0.28940
 This state for optimization and/or second-order correction.
 Total Energy, E(TD-HF/TD-KS) =  -2732.83949907
 Copying the excited state density for this state as the 1-particle RhoCI density.

 The electronic state is 1-A.
 Alpha  occ. eigenvalues --  -19.18672 -19.16860 -19.12053 -19.10675 -19.10555
 Alpha  occ. eigenvalues --  -14.36483 -14.36237 -14.33131 -14.30241 -10.31932
 Alpha  occ. eigenvalues --  -10.31406 -10.27851 -10.26317 -10.24872 -10.23880
 Alpha  occ. eigenvalues --  -10.23711 -10.23162 -10.23010 -10.22898 -10.22734
 Alpha  occ. eigenvalues --  -10.21720 -10.21601 -10.21546 -10.21405 -10.21396
 Alpha  occ. eigenvalues --  -10.21330 -10.21282 -10.21228 -10.21154 -10.21145
 Alpha  occ. eigenvalues --  -10.21084 -10.21069 -10.20840 -10.20765 -10.20743
 Alpha  occ. eigenvalues --  -10.20702 -10.20455 -10.20172 -10.20170 -10.20110
 Alpha  occ. eigenvalues --  -10.20107 -10.19884 -10.19841 -10.19832 -10.19582
 Alpha  occ. eigenvalues --  -10.19472 -10.19427 -10.18931 -10.18782 -10.18710
 Alpha  occ. eigenvalues --  -10.18555 -10.18503 -10.18473 -10.18441 -10.18433
 Alpha  occ. eigenvalues --  -10.18431 -10.18383 -10.18272 -10.18176 -10.17955
 Alpha  occ. eigenvalues --  -10.17554 -10.17414 -10.17184 -10.17072  -1.08483
 Alpha  occ. eigenvalues --   -1.05468  -1.00770  -0.99623  -0.99062  -0.95895
 Alpha  occ. eigenvalues --   -0.94758  -0.94292  -0.93467  -0.85564  -0.82763
 Alpha  occ. eigenvalues --   -0.82600  -0.82297  -0.81172  -0.81052  -0.80118
 Alpha  occ. eigenvalues --   -0.80025  -0.79653  -0.79503  -0.79217  -0.78773
 Alpha  occ. eigenvalues --   -0.77414  -0.76211  -0.75168  -0.75071  -0.74291
 Alpha  occ. eigenvalues --   -0.74010  -0.72950  -0.72197  -0.71733  -0.71428
 Alpha  occ. eigenvalues --   -0.71314  -0.69647  -0.69072  -0.68298  -0.68161
 Alpha  occ. eigenvalues --   -0.67835  -0.66801  -0.66390  -0.66285  -0.65637
 Alpha  occ. eigenvalues --   -0.64390  -0.63710  -0.63238  -0.62277  -0.62154
 Alpha  occ. eigenvalues --   -0.60821  -0.59358  -0.58647  -0.57589  -0.57181
 Alpha  occ. eigenvalues --   -0.56749  -0.56335  -0.55756  -0.55657  -0.55312
 Alpha  occ. eigenvalues --   -0.55293  -0.54664  -0.54181  -0.53570  -0.53025
 Alpha  occ. eigenvalues --   -0.52496  -0.51466  -0.51012  -0.50553  -0.49905
 Alpha  occ. eigenvalues --   -0.49766  -0.49374  -0.48955  -0.48859  -0.48168
 Alpha  occ. eigenvalues --   -0.48151  -0.47562  -0.47229  -0.46948  -0.46836
 Alpha  occ. eigenvalues --   -0.46718  -0.46468  -0.46317  -0.45602  -0.45372
 Alpha  occ. eigenvalues --   -0.45211  -0.45075  -0.44954  -0.44879  -0.44605
 Alpha  occ. eigenvalues --   -0.44106  -0.43812  -0.43764  -0.43549  -0.43361
 Alpha  occ. eigenvalues --   -0.43241  -0.43087  -0.42945  -0.42727  -0.42562
 Alpha  occ. eigenvalues --   -0.42405  -0.42252  -0.41876  -0.41713  -0.41486
 Alpha  occ. eigenvalues --   -0.41043  -0.40999  -0.40697  -0.40593  -0.40222
 Alpha  occ. eigenvalues --   -0.40149  -0.39862  -0.39729  -0.39478  -0.39443
 Alpha  occ. eigenvalues --   -0.39315  -0.39015  -0.38832  -0.38670  -0.38513
 Alpha  occ. eigenvalues --   -0.38279  -0.38075  -0.37837  -0.37600  -0.37426
 Alpha  occ. eigenvalues --   -0.37285  -0.37117  -0.36859  -0.36833  -0.36604
 Alpha  occ. eigenvalues --   -0.36275  -0.36097  -0.35986  -0.35803  -0.35739
 Alpha  occ. eigenvalues --   -0.35298  -0.35234  -0.35080  -0.34912  -0.34482
 Alpha  occ. eigenvalues --   -0.34445  -0.34398  -0.33631  -0.33507  -0.33427
 Alpha  occ. eigenvalues --   -0.33062  -0.33028  -0.32618  -0.32445  -0.32407
 Alpha  occ. eigenvalues --   -0.32222  -0.32058  -0.31589  -0.31407  -0.31245
 Alpha  occ. eigenvalues --   -0.31240  -0.31152  -0.30386  -0.30383  -0.29991
 Alpha  occ. eigenvalues --   -0.29403  -0.28390  -0.28270  -0.28097  -0.27996
 Alpha  occ. eigenvalues --   -0.27937  -0.27369  -0.26652  -0.25761  -0.25000
 Alpha  occ. eigenvalues --   -0.24441  -0.24095  -0.24046  -0.23687  -0.19790
 Alpha  occ. eigenvalues --   -0.19359
 Alpha virt. eigenvalues --   -0.11511  -0.07206  -0.04854  -0.01874  -0.01750
 Alpha virt. eigenvalues --   -0.01432  -0.00489   0.00172   0.01460   0.03099
 Alpha virt. eigenvalues --    0.03577   0.04233   0.04290   0.04356   0.04803

 Mulliken charges:
               1
     1  C    0.003898
     2  C   -0.099615
     3  C   -0.171057
     4  C   -0.120039
     5  N   -0.180675
     6  C   -0.050942
     7  C    0.084210
     8  C   -0.115727
     9  C   -0.010668
    10  C    0.154167
    11  C    0.063940
    12  C    0.081432
    13  C    0.178083
    14  O   -0.354743
    15  O   -0.365977
    16  N   -0.118975
    17  C    0.131373
    18  C   -0.089716
    19  C    0.102751
    20  C    0.064821
    21  C    0.007756
    22  C   -0.066529
    23  C   -0.095700
    24  N   -0.239454
    25  C    0.114303
    26  C   -0.172172
    27  C   -0.050805
    28  C    0.103783
    29  C    0.137258
    30  C   -0.003781
    31  C    0.025377
    32  N    0.082936
    33  C   -0.004460
    34  C   -0.200404
    35  C   -0.011629
    36  C    0.052647
    37  C    0.263868
    38  C    0.039030
    39  O   -0.228797
    40  C   -0.044165
    41  C    0.212969
    42  O   -0.252074
    43  O   -0.289002
    44  C    0.070928
    45  C    0.350643
    46  C   -0.131978
    47  C   -0.125343
    48  C    0.146196
    49  C   -0.000127
    50  C    0.193890
    51  C    0.016936
    52  C   -0.014412
    53  C   -0.016391
    54  C    0.057313
    55  C   -0.012725
    56  C    0.031613
    57  C   -0.056067
    58  C   -0.003834
    59  C    0.007155
    60  C    0.005262
    61  C    0.068765
    62  C   -0.151051
    63  C    0.050937
    64  C    0.124083
    65  H    0.026863
    66  H    0.038725
    67  H   -0.003473
    68  H   -0.008940
    69  H   -0.004436
    70  H   -0.015503
    71  H   -0.004594
    72  H    0.043317
    73  H    0.032219
    74  H    0.004431
    75  H    0.060796
    76  H    0.017436
    77  H    0.029765
    78  H    0.012680
    79  H    0.047284
    80  H   -0.000612
    81  H    0.072821
    82  H    0.027529
    83  H    0.030207
    84  H    0.024913
    85  H   -0.013728
    86  H    0.010837
    87  H    0.009537
    88  H    0.028335
    89  H   -0.001768
    90  H    0.034648
    91  H   -0.064329
    92  H    0.014768
    93  H    0.056280
    94  H    0.088517
    95  H    0.061401
    96  H    0.070547
    97  H    0.081353
    98  H   -0.016426
    99  H    0.002151
   100  H    0.038702
   101  H    0.034013
   102  H    0.024697
   103  H   -0.074589
   104  H    0.002132
   105  H    0.018725
   106  H    0.007541
   107  H   -0.094981
   108  H   -0.054193
   109  H   -0.009559
   110  H   -0.085698
   111  H   -0.004091
   112  H    0.031591
   113  H    0.007573
   114  H   -0.006343
   115  H    0.009404
   116  H    0.001003
   117  H   -0.010343
   118  H   -0.007798
   119  H   -0.010606
   120  H   -0.001038
   121  H    0.036110
   122  H    0.014239
   123  H   -0.001928
   124  H   -0.004881
   125  H   -0.005149
   126  H    0.004363
   127  H   -0.023017
   128  H   -0.006104
   129  H   -0.037468
   130  H    0.007286
   131  H   -0.017892
   132  H    0.009536
   133  H    0.010154
   134  H   -0.014650
   135  H   -0.006817
   136  H   -0.002894
   137  H    0.116069
   138  H    0.134061
 Sum of Mulliken charges =   0.00000

 Dipole moment (field-independent basis, Debye):
    X=              0.8850    Y=              5.5295    Z=              0.7478  Tot=              5.6496
 Quadrupole moment (field-independent basis, Debye-Ang):
   XX=           -351.0260   YY=           -379.0591   ZZ=           -393.2758
   XY=            -22.4405   XZ=             10.8563   YZ=              0.2290

 Normal termination of Gaussian 09 at Sat Aug  3 18:36:50 2019.
