 Gaussian 09, Revision D.01,
 Gaussian 09:  ES64L-G09RevD.01 24-Apr-2013

 --------------------------
 # td=(NStates=1) B3LYP/SVP
 --------------------------

 --
 TD
 --
 Symbolic Z-matrix:
 Charge =  0 Multiplicity = 1

                         Standard orientation:
 ---------------------------------------------------------------------
 Center     Atomic      Atomic             Coordinates (Angstroms)
 Number     Number       Type             X           Y           Z
 ---------------------------------------------------------------------
      1          6           0       -5.027734   -1.810491    0.483186
      2          6           0       -4.814832    2.846387    1.385581
      3          6           0       -9.497362    3.228193   -0.095746
      4          6           0       -9.672897   -1.520466   -1.057826
      5          7           0       -5.262714    0.493216    0.708910
      6          6           0       -4.432800   -0.656615    0.777492
      7          6           0       -3.031397   -0.401361    1.257623
      8          6           0       -3.123938    1.017363    1.787661
      9          6           0       -4.443703    1.507378    1.255707
     10          6           0       -2.955473    1.186991    3.322207
     11          6           0       -2.050381   -0.746564    0.120393
     12          6           0       -0.644748   -0.704855    0.601113
     13          6           0        0.379386   -1.079288   -0.512446
     14          8           0        0.052366   -1.626516   -1.549012
     15          8           0        1.635576   -0.895449   -0.188124
     16          7           0       -7.173331    2.740420    0.514722
     17          6           0       -5.967746    3.414256    1.021274
     18          6           0       -6.393401    4.809693    1.085348
     19          6           0       -7.711005    4.951418    0.613070
     20          6           0       -8.170307    3.683192    0.366519
     21          6           0       -5.284874    5.996929    1.277319
     22          6           0       -8.342971    6.339213    0.300475
     23          6           0       -9.248399    6.558156   -0.671066
     24          7           0       -9.199224    0.845507   -0.444083
     25          6           0      -10.033196    1.978620   -0.458512
     26          6           0      -11.322930    1.709181   -0.882069
     27          6           0      -11.410027    0.368188   -1.162654
     28          6           0      -10.062181   -0.153553   -0.940275
     29          6           0      -12.386049    2.744113   -1.133648
     30          6           0      -12.556272   -0.471635   -1.775139
     31          6           0      -12.731389   -0.506919   -3.281631
     32          7           0       -7.374528   -1.204288   -0.196940
     33          6           0       -8.463563   -2.032776   -0.676221
     34          6           0       -8.052433   -3.356053   -0.722455
     35          6           0       -6.752927   -3.432759   -0.199603
     36          6           0       -6.335022   -2.038085    0.027571
     37          6           0       -8.864550   -4.560757   -0.985996
     38          6           0       -5.504745   -4.242696    0.013824
     39          8           0       -5.436214   -5.414492    0.040298
     40          6           0       -4.351468   -3.302435    0.469676
     41          6           0       -3.836930   -3.734233    1.802830
     42          8           0       -4.302587   -3.473934    2.934875
     43          8           0       -2.970650   -4.748915    1.571158
     44          6           0       -2.478055   -5.533819    2.635936
     45          6           0        2.653151   -1.016217   -1.138934
     46          6           0        3.994098   -0.705284   -0.454801
     47          6           0        5.035570   -0.020110   -1.116878
     48          6           0        4.965859    0.436367   -2.432698
     49          6           0        6.322350    0.334422   -0.389180
     50          6           0        7.552670   -0.451390   -0.871067
     51          6           0        8.747320   -0.272162   -0.068956
     52          6           0       10.134955   -0.873955   -0.586140
     53          6           0       10.057442   -2.356154   -0.829001
     54          6           0       11.260273   -0.401598    0.211116
     55          6           0       12.670613   -0.744611   -0.468012
     56          6           0       13.818910    0.040173    0.340988
     57          6           0       15.232074   -0.206073   -0.340242
     58          6           0       15.540979   -1.705247   -0.394203
     59          6           0       16.268176    0.750695    0.398939
     60          6           0       17.665391    0.873414   -0.279723
     61          6           0       18.549018    1.677331    0.564773
     62          6           0       19.996097    1.744994    0.014960
     63          6           0       20.099660    2.275596   -1.523069
     64          6           0       20.930017    2.660632    0.928698
     65          1           0       -4.002003    3.563773    1.622513
     66          1           0      -10.162840    4.052485   -0.200572
     67          1           0      -10.261897   -2.143099   -1.704894
     68          1           0       -2.830703   -1.068132    2.053881
     69          1           0       -2.321968    1.839469    1.266041
     70          1           0       -1.831848    1.134200    3.580143
     71          1           0       -3.094299    2.307231    3.558982
     72          1           0       -3.485670    0.482236    4.150334
     73          1           0       -2.260422   -1.594734   -0.365010
     74          1           0       -2.023819   -0.091367   -0.754488
     75          1           0       -0.294842    0.294652    1.044227
     76          1           0       -0.497916   -1.477515    1.481953
     77          1           0       -4.645356    6.079606    0.260534
     78          1           0       -5.812799    6.958347    1.201467
     79          1           0       -4.904973    5.802075    2.171073
     80          1           0       -8.018550    7.225363    0.858598
     81          1           0       -9.681940    5.890735   -1.353337
     82          1           0       -9.834529    7.576981   -0.581919
     83          1           0      -12.418084    3.270799   -0.251828
     84          1           0      -12.398274    3.338880   -2.072483
     85          1           0      -13.376117    1.955947   -1.460438
     86          1           0      -12.587143   -1.250409   -1.308925
     87          1           0      -13.431442   -0.146373   -1.304446
     88          1           0      -12.860261    0.526366   -3.576141
     89          1           0      -11.788809   -0.894068   -3.811602
     90          1           0      -13.645101   -1.182578   -3.555155
     91          1           0       -9.872605   -4.715527   -0.347004
     92          1           0       -9.262814   -4.500606   -2.100850
     93          1           0       -8.394302   -5.387425   -0.949770
     94          1           0       -3.646521   -3.476940   -0.253807
     95          1           0       -1.729874   -6.044332    2.326350
     96          1           0       -2.186935   -4.859398    3.301386
     97          1           0       -3.330956   -6.051266    3.190203
     98          1           0        2.654592   -2.057230   -1.590113
     99          1           0        2.392221   -0.326386   -2.014332
    100          1           0        4.323452   -1.096505    0.570440
    101          1           0        5.380394    1.499644   -2.525539
    102          1           0        5.676445   -0.299131   -2.999970
    103          1           0        4.057120    0.540052   -2.851902
    104          1           0        6.333147    1.403664   -0.328600
    105          1           0        6.197319   -0.039845    0.684733
    106          1           0        7.201609   -1.526326   -0.727239
    107          1           0        8.043646   -0.159050   -1.851132
    108          1           0        9.035306    0.829693   -0.195213
    109          1           0        8.526669   -0.530000    0.895855
    110          1           0       10.286114   -0.470227   -1.522259
    111          1           0        9.047009   -2.511447   -1.413192
    112          1           0       10.974965   -2.804425   -1.197480
    113          1           0       10.068067   -2.779229    0.189445
    114          1           0       11.233748    0.686934    0.143347
    115          1           0       11.335661   -0.570536    1.220738
    116          1           0       13.152301   -1.758475   -0.571042
    117          1           0       12.496441   -0.254547   -1.407148
    118          1           0       13.909766    1.204053    0.082229
    119          1           0       13.801183   -0.415309    1.395812
    120          1           0       15.375490    0.141831   -1.176909
    121          1           0       14.910552   -2.091173   -1.025480
    122          1           0       16.446416   -1.762849   -1.154887
    123          1           0       15.343142   -2.255230    0.516624
    124          1           0       15.649409    1.451856    0.807691
    125          1           0       16.438791    0.291474    1.456705
    126          1           0       18.123355   -0.252592   -0.410198
    127          1           0       17.397750    1.302076   -1.343382
    128          1           0       18.407787    2.920603    0.636543
    129          1           0       18.458465    1.164248    1.455773
    130          1           0       20.357398    0.757565   -0.093197
    131          1           0       19.842330    3.161141   -1.626661
    132          1           0       21.216062    2.292491   -1.856755
    133          1           0       19.474020    1.719518   -2.227349
    134          1           0       21.098820    2.041820    1.909316
    135          1           0       21.843107    2.553234    0.431658
    136          1           0       20.739417    3.647316    1.248022
    137          1           0       -7.375553    1.803534    0.402420
    138          1           0       -7.247506   -0.285543   -0.300729
 ---------------------------------------------------------------------

 SCF Done:  E(RB3LYP) =  -2732.92164293     A.U. after   17 cycles

 Excitation energies and oscillator strengths:

 Excited State   1:      Singlet-A      2.0178 eV  614.46 nm  f=0.1692  <S**2>=0.000
     235 -> 237       -0.17896
     235 -> 238        0.24679
     236 -> 237        0.61892
     236 -> 238        0.14053
 This state for optimization and/or second-order correction.
 Total Energy, E(TD-HF/TD-KS) =  -2732.84749127
 Copying the excited state density for this state as the 1-particle RhoCI density.

 The electronic state is 1-A.
 Alpha  occ. eigenvalues --  -19.18149 -19.17383 -19.12330 -19.12173 -19.11963
 Alpha  occ. eigenvalues --  -14.36142 -14.35435 -14.32803 -14.29344 -10.31650
 Alpha  occ. eigenvalues --  -10.31579 -10.28010 -10.26193 -10.23665 -10.23462
 Alpha  occ. eigenvalues --  -10.23339 -10.23004 -10.22999 -10.22485 -10.22338
 Alpha  occ. eigenvalues --  -10.22331 -10.21531 -10.21489 -10.21302 -10.21217
 Alpha  occ. eigenvalues --  -10.21008 -10.20893 -10.20846 -10.20550 -10.20527
 Alpha  occ. eigenvalues --  -10.20417 -10.20378 -10.20226 -10.20022 -10.20000
 Alpha  occ. eigenvalues --  -10.19991 -10.19958 -10.19789 -10.19782 -10.19781
 Alpha  occ. eigenvalues --  -10.19760 -10.19596 -10.19584 -10.19416 -10.19327
 Alpha  occ. eigenvalues --  -10.19280 -10.19249 -10.19051 -10.18820 -10.18695
 Alpha  occ. eigenvalues --  -10.18625 -10.18391 -10.18283 -10.17858 -10.17826
 Alpha  occ. eigenvalues --  -10.17740 -10.17627 -10.17600 -10.17354 -10.17301
 Alpha  occ. eigenvalues --  -10.16990 -10.16853 -10.16837 -10.16683  -1.11293
 Alpha  occ. eigenvalues --   -1.08709  -1.05155  -1.00621  -0.98785  -0.97593
 Alpha  occ. eigenvalues --   -0.95893  -0.92750  -0.91570  -0.83714  -0.83687
 Alpha  occ. eigenvalues --   -0.82308  -0.82080  -0.81845  -0.81496  -0.80499
 Alpha  occ. eigenvalues --   -0.80180  -0.79533  -0.79329  -0.78882  -0.77983
 Alpha  occ. eigenvalues --   -0.77374  -0.76547  -0.75834  -0.74933  -0.74546
 Alpha  occ. eigenvalues --   -0.74330  -0.73661  -0.72948  -0.72149  -0.71077
 Alpha  occ. eigenvalues --   -0.70561  -0.69804  -0.68888  -0.68607  -0.68471
 Alpha  occ. eigenvalues --   -0.67924  -0.67374  -0.66748  -0.65914  -0.65845
 Alpha  occ. eigenvalues --   -0.64169  -0.63138  -0.62550  -0.61949  -0.61643
 Alpha  occ. eigenvalues --   -0.60618  -0.59208  -0.58977  -0.57672  -0.57528
 Alpha  occ. eigenvalues --   -0.57200  -0.56967  -0.56578  -0.56495  -0.56233
 Alpha  occ. eigenvalues --   -0.55527  -0.55128  -0.55118  -0.54098  -0.53193
 Alpha  occ. eigenvalues --   -0.52938  -0.52287  -0.51647  -0.50985  -0.50784
 Alpha  occ. eigenvalues --   -0.50360  -0.49742  -0.49365  -0.49115  -0.48558
 Alpha  occ. eigenvalues --   -0.48124  -0.47829  -0.47647  -0.47480  -0.47318
 Alpha  occ. eigenvalues --   -0.47012  -0.46766  -0.46308  -0.45987  -0.45785
 Alpha  occ. eigenvalues --   -0.45689  -0.45476  -0.45335  -0.44945  -0.44667
 Alpha  occ. eigenvalues --   -0.44558  -0.44539  -0.44358  -0.43975  -0.43752
 Alpha  occ. eigenvalues --   -0.43524  -0.43420  -0.43209  -0.43148  -0.42956
 Alpha  occ. eigenvalues --   -0.42792  -0.42547  -0.42129  -0.41965  -0.41880
 Alpha  occ. eigenvalues --   -0.41480  -0.41369  -0.41131  -0.40905  -0.40802
 Alpha  occ. eigenvalues --   -0.40164  -0.39997  -0.39665  -0.39578  -0.39302
 Alpha  occ. eigenvalues --   -0.39129  -0.38888  -0.38865  -0.38548  -0.38382
 Alpha  occ. eigenvalues --   -0.38093  -0.37951  -0.37898  -0.37660  -0.37580
 Alpha  occ. eigenvalues --   -0.37369  -0.37253  -0.37092  -0.36671  -0.36625
 Alpha  occ. eigenvalues --   -0.36573  -0.36394  -0.36051  -0.36008  -0.35821
 Alpha  occ. eigenvalues --   -0.35642  -0.35509  -0.35103  -0.35012  -0.34912
 Alpha  occ. eigenvalues --   -0.34687  -0.34347  -0.34275  -0.34051  -0.33948
 Alpha  occ. eigenvalues --   -0.33504  -0.33442  -0.33241  -0.33104  -0.32992
 Alpha  occ. eigenvalues --   -0.32355  -0.31971  -0.31665  -0.31437  -0.31162
 Alpha  occ. eigenvalues --   -0.30554  -0.30337  -0.30147  -0.29995  -0.29907
 Alpha  occ. eigenvalues --   -0.29729  -0.29513  -0.28497  -0.27947  -0.27583
 Alpha  occ. eigenvalues --   -0.27512  -0.27096  -0.26627  -0.26349  -0.26115
 Alpha  occ. eigenvalues --   -0.25093  -0.24057  -0.23680  -0.22286  -0.20152
 Alpha  occ. eigenvalues --   -0.18437
 Alpha virt. eigenvalues --   -0.10270  -0.07811  -0.04111  -0.02019  -0.01001
 Alpha virt. eigenvalues --   -0.00671  -0.00196   0.00150   0.02061   0.03234
 Alpha virt. eigenvalues --    0.03684   0.03939   0.04334   0.04825   0.05186

 Mulliken charges:
               1
     1  C    0.076948
     2  C   -0.097306
     3  C   -0.048447
     4  C   -0.103201
     5  N   -0.248028
     6  C   -0.121751
     7  C    0.124779
     8  C   -0.106651
     9  C    0.059972
    10  C    0.004457
    11  C    0.146844
    12  C   -0.026008
    13  C    0.153241
    14  O   -0.251393
    15  O   -0.257234
    16  N   -0.081807
    17  C    0.165795
    18  C   -0.175088
    19  C    0.047318
    20  C    0.027261
    21  C    0.102142
    22  C   -0.016073
    23  C   -0.044712
    24  N   -0.291596
    25  C    0.104210
    26  C   -0.118071
    27  C   -0.143709
    28  C    0.051024
    29  C    0.050265
    30  C    0.255974
    31  C    0.021990
    32  N    0.015881
    33  C    0.157340
    34  C   -0.149034
    35  C    0.001862
    36  C   -0.004029
    37  C    0.140489
    38  C    0.030223
    39  O   -0.124188
    40  C    0.040342
    41  C    0.212535
    42  O   -0.264256
    43  O   -0.312798
    44  C    0.318305
    45  C    0.233994
    46  C   -0.076512
    47  C   -0.224653
    48  C    0.141011
    49  C    0.094509
    50  C    0.004064
    51  C    0.036926
    52  C   -0.014965
    53  C    0.040403
    54  C    0.089807
    55  C   -0.000904
    56  C   -0.061117
    57  C   -0.016298
    58  C    0.132950
    59  C    0.049944
    60  C   -0.013713
    61  C    0.068622
    62  C   -0.095099
    63  C    0.067073
    64  C    0.057372
    65  H   -0.011558
    66  H   -0.058261
    67  H   -0.010337
    68  H   -0.013225
    69  H    0.028308
    70  H    0.013573
    71  H    0.014760
    72  H    0.068465
    73  H   -0.034878
    74  H   -0.008707
    75  H    0.034128
    76  H    0.040582
    77  H    0.057274
    78  H    0.004177
    79  H    0.013163
    80  H    0.014950
    81  H    0.015834
    82  H    0.034635
    83  H    0.022981
    84  H    0.039297
    85  H    0.021455
    86  H   -0.117190
    87  H   -0.044007
    88  H    0.008083
    89  H    0.021635
    90  H    0.030822
    91  H    0.048829
    92  H    0.021707
    93  H   -0.036818
    94  H    0.013450
    95  H   -0.020397
    96  H   -0.030793
    97  H    0.035518
    98  H    0.036619
    99  H    0.028337
   100  H    0.006786
   101  H    0.008754
   102  H    0.048901
   103  H   -0.032806
   104  H    0.002880
   105  H   -0.012992
   106  H    0.014182
   107  H    0.006186
   108  H   -0.010882
   109  H   -0.036734
   110  H   -0.049344
   111  H    0.030791
   112  H    0.002599
   113  H   -0.014343
   114  H   -0.025219
   115  H   -0.037052
   116  H    0.018979
   117  H   -0.017435
   118  H    0.031486
   119  H    0.024223
   120  H   -0.111084
   121  H   -0.052162
   122  H   -0.001488
   123  H    0.004091
   124  H   -0.055339
   125  H   -0.038969
   126  H    0.031580
   127  H    0.018255
   128  H    0.018824
   129  H   -0.021495
   130  H   -0.022448
   131  H   -0.064097
   132  H    0.009073
   133  H    0.009142
   134  H    0.001938
   135  H   -0.012526
   136  H    0.013977
   137  H    0.099222
   138  H    0.094907
 Sum of Mulliken charges =   0.00000

 Dipole moment (field-independent basis, Debye):
    X=              3.7987    Y=              3.8722    Z=             -0.7436  Tot=              5.4752
 Quadrupole moment (field-independent basis, Debye-Ang):
   XX=           -364.1113   YY=           -380.5824   ZZ=           -394.4876
   XY=            -15.4053   XZ=             12.6602   YZ=             -0.4607

 Normal termination of Gaussian 09 at Fri Jul 26 18:49:17 2019.
