 Gaussian 09, Revision D.01,
 Gaussian 09:  ES64L-G09RevD.01 24-Apr-2013

 --------------------------
 # td=(NStates=1) B3LYP/SVP
 --------------------------

 --
 TD
 --
 Symbolic Z-matrix:
 Charge =  0 Multiplicity = 1

                         Standard orientation:
 ---------------------------------------------------------------------
 Center     Atomic      Atomic             Coordinates (Angstroms)
 Number     Number       Type             X           Y           Z
 ---------------------------------------------------------------------
      1          6           0       -5.093111   -2.043920    0.459177
      2          6           0       -4.700786    2.586598    1.458926
      3          6           0       -9.119718    3.504566   -0.355562
      4          6           0       -9.806582   -1.318189   -0.875438
      5          7           0       -5.090530    0.322942    0.845486
      6          6           0       -4.460344   -0.916680    0.896495
      7          6           0       -3.054304   -0.763004    1.320401
      8          6           0       -3.056960    0.679166    1.952607
      9          6           0       -4.372704    1.208179    1.434452
     10          6           0       -2.957625    0.690360    3.570892
     11          6           0       -2.065037   -0.795569    0.040276
     12          6           0       -0.663541   -0.857379    0.479245
     13          6           0        0.324195   -0.977196   -0.628611
     14          8           0        0.051504   -1.273447   -1.729281
     15          8           0        1.628986   -0.824958   -0.199403
     16          7           0       -6.923439    2.808819    0.465040
     17          6           0       -5.807495    3.297779    1.084954
     18          6           0       -5.984619    4.781775    1.085572
     19          6           0       -7.276288    5.057594    0.477674
     20          6           0       -7.894985    3.758254    0.178658
     21          6           0       -5.045411    5.761571    1.707692
     22          6           0       -7.874968    6.372835    0.411632
     23          6           0       -8.734298    6.781901   -0.558925
     24          7           0       -9.080069    1.056998   -0.420120
     25          6           0       -9.846367    2.223325   -0.571150
     26          6           0      -11.177624    1.995989   -1.029035
     27          6           0      -11.341052    0.694852   -1.074582
     28          6           0      -10.049442    0.038302   -0.742507
     29          6           0      -12.144773    3.056906   -1.115422
     30          6           0      -12.548777   -0.011867   -1.559850
     31          6           0      -12.570378   -0.273449   -3.224874
     32          7           0       -7.480044   -1.281563   -0.182338
     33          6           0       -8.555176   -1.953386   -0.535438
     34          6           0       -8.201799   -3.373771   -0.608563
     35          6           0       -6.927853   -3.441854   -0.250801
     36          6           0       -6.391423   -2.133724    0.010322
     37          6           0       -9.203593   -4.441817   -1.112078
     38          6           0       -5.843634   -4.314675   -0.065837
     39          8           0       -5.752589   -5.563612   -0.162632
     40          6           0       -4.563041   -3.491963    0.336899
     41          6           0       -4.002817   -3.960757    1.725004
     42          8           0       -4.265342   -3.377602    2.740517
     43          8           0       -3.122707   -4.976586    1.585305
     44          6           0       -2.750627   -5.665850    2.796485
     45          6           0        2.641910   -0.983256   -1.289533
     46          6           0        3.962422   -0.751222   -0.722483
     47          6           0        4.942472    0.096624   -1.102269
     48          6           0        4.687998    0.968873   -2.382043
     49          6           0        6.234748    0.284083   -0.385894
     50          6           0        7.475133   -0.382675   -1.076536
     51          6           0        8.877327   -0.224867   -0.196599
     52          6           0       10.066665   -0.640549   -0.990935
     53          6           0        9.765513   -2.194698   -1.364759
     54          6           0       11.246365   -0.417015   -0.176608
     55          6           0       12.605702   -0.626470   -0.802810
     56          6           0       13.757899   -0.358874    0.230254
     57          6           0       15.206831   -0.234701   -0.445298
     58          6           0       15.688729   -1.633130   -0.963309
     59          6           0       16.113786    0.391601    0.530268
     60          6           0       17.563903    0.729103    0.036770
     61          6           0       18.539820    1.603293    0.967104
     62          6           0       19.941757    1.723494    0.316522
     63          6           0       19.981989    2.524485   -1.013355
     64          6           0       21.010042    2.350641    1.290555
     65          1           0       -3.844167    3.269565    1.771029
     66          1           0       -9.751544    4.447353   -0.350140
     67          1           0      -10.761494   -1.913802   -1.049592
     68          1           0       -2.746758   -1.562421    2.123417
     69          1           0       -2.103000    1.214421    1.751562
     70          1           0       -1.984626    0.479934    3.899263
     71          1           0       -3.125714    1.761766    3.867568
     72          1           0       -3.838901    0.137413    3.971903
     73          1           0       -2.180698   -1.692163   -0.597658
     74          1           0       -2.221768   -0.019858   -0.703918
     75          1           0       -0.201748    0.119128    1.134442
     76          1           0       -0.700726   -1.895615    1.050035
     77          1           0       -4.064039    5.698411    1.025666
     78          1           0       -5.414415    6.659119    1.807326
     79          1           0       -4.680859    5.342098    2.732189
     80          1           0       -7.613824    7.247607    1.095778
     81          1           0       -9.275702    5.969650   -1.290671
     82          1           0       -8.994962    7.723989   -0.711248
     83          1           0      -12.205168    3.448807   -0.157092
     84          1           0      -11.993232    3.774421   -1.855323
     85          1           0      -13.310891    2.971444   -1.233475
     86          1           0      -12.518697   -0.970889   -1.081798
     87          1           0      -13.472555    0.493427   -1.215968
     88          1           0      -12.620101    0.636728   -3.828138
     89          1           0      -11.724425   -1.006640   -3.345639
     90          1           0      -13.440383   -0.779278   -3.448118
     91          1           0      -10.180114   -4.548520   -0.547092
     92          1           0       -9.354330   -4.361567   -2.227938
     93          1           0       -8.887160   -5.431625   -1.054065
     94          1           0       -3.902961   -3.594789   -0.359466
     95          1           0       -2.353180   -6.705360    2.333437
     96          1           0       -1.969143   -4.930339    3.474382
     97          1           0       -3.778576   -5.900144    3.422077
     98          1           0        2.644353   -1.985121   -1.644044
     99          1           0        2.181927   -0.427809   -2.108678
    100          1           0        3.926650   -1.267137    0.193077
    101          1           0        4.671135    2.203415   -2.140521
    102          1           0        5.829610    0.974488   -3.066278
    103          1           0        3.652936    0.789256   -2.870274
    104          1           0        6.390412    1.364317   -0.258331
    105          1           0        6.007766   -0.239253    0.564061
    106          1           0        7.365141   -1.443919   -1.330660
    107          1           0        7.688395    0.150815   -1.897373
    108          1           0        8.859855    0.902145    0.102558
    109          1           0        8.776049   -0.896213    0.742504
    110          1           0       10.225553   -0.239327   -1.997192
    111          1           0        8.830192   -2.252223   -1.923096
    112          1           0       10.661111   -2.533083   -1.812435
    113          1           0        9.804068   -2.804826   -0.439124
    114          1           0       11.031147    0.591389    0.160221
    115          1           0       11.112402   -1.106727    0.754114
    116          1           0       12.627366   -1.653577   -1.127952
    117          1           0       12.777961   -0.046961   -1.752815
    118          1           0       13.454831    0.493492    0.704451
    119          1           0       13.857339   -1.170785    1.132356
    120          1           0       15.050480    0.518874   -1.357556
    121          1           0       14.962045   -2.148847   -1.459152
    122          1           0       16.640884   -1.564555   -1.223912
    123          1           0       15.465171   -2.381529    0.048421
    124          1           0       15.594540    1.409007    0.574603
    125          1           0       16.085005   -0.042908    1.492810
    126          1           0       18.008795   -0.224589    0.102053
    127          1           0       17.575660    1.269993   -0.917467
    128          1           0       18.255724    2.710897    1.026627
    129          1           0       18.629509    1.217320    2.048121
    130          1           0       20.273605    0.565030    0.030679
    131          1           0       19.591783    3.515995   -0.858537
    132          1           0       20.868508    2.404357   -1.449648
    133          1           0       19.390529    1.956836   -1.985112
    134          1           0       20.813371    2.052707    2.363713
    135          1           0       21.948199    2.270273    0.877723
    136          1           0       20.598991    3.362576    1.407527
    137          1           0       -7.091546    1.666218    0.503854
    138          1           0       -7.410146   -0.140850    0.089063
 ---------------------------------------------------------------------

 SCF Done:  E(RB3LYP) =  -2733.05625672     A.U. after   17 cycles

 Excitation energies and oscillator strengths:

 Excited State   1:      Singlet-A      2.1104 eV  587.50 nm  f=0.1642  <S**2>=0.000
     235 -> 238        0.32104
     236 -> 237        0.62712
 This state for optimization and/or second-order correction.
 Total Energy, E(TD-HF/TD-KS) =  -2732.97870165
 Copying the excited state density for this state as the 1-particle RhoCI density.

 The electronic state is 1-A.
 Alpha  occ. eigenvalues --  -19.18286 -19.16585 -19.12958 -19.12654 -19.10970
 Alpha  occ. eigenvalues --  -14.37848 -14.36691 -14.32251 -14.30650 -10.31931
 Alpha  occ. eigenvalues --  -10.30875 -10.28002 -10.26878 -10.23906 -10.23872
 Alpha  occ. eigenvalues --  -10.23827 -10.23375 -10.22908 -10.22844 -10.22702
 Alpha  occ. eigenvalues --  -10.22265 -10.22258 -10.21883 -10.21553 -10.21337
 Alpha  occ. eigenvalues --  -10.21283 -10.21222 -10.20997 -10.20882 -10.20861
 Alpha  occ. eigenvalues --  -10.20634 -10.20608 -10.20548 -10.20255 -10.20178
 Alpha  occ. eigenvalues --  -10.19922 -10.19858 -10.19690 -10.19675 -10.19667
 Alpha  occ. eigenvalues --  -10.19630 -10.19428 -10.19396 -10.19378 -10.19371
 Alpha  occ. eigenvalues --  -10.19285 -10.19087 -10.18722 -10.18567 -10.18419
 Alpha  occ. eigenvalues --  -10.18390 -10.18372 -10.18362 -10.18265 -10.18175
 Alpha  occ. eigenvalues --  -10.18143 -10.18115 -10.17991 -10.17813 -10.17793
 Alpha  occ. eigenvalues --  -10.17788 -10.17556 -10.17482 -10.17437  -1.09596
 Alpha  occ. eigenvalues --   -1.09205  -1.01578  -1.00594  -0.99793  -0.98470
 Alpha  occ. eigenvalues --   -0.96739  -0.95601  -0.91723  -0.85372  -0.82808
 Alpha  occ. eigenvalues --   -0.81868  -0.81384  -0.80978  -0.80797  -0.80480
 Alpha  occ. eigenvalues --   -0.79797  -0.79684  -0.79163  -0.78335  -0.77200
 Alpha  occ. eigenvalues --   -0.76579  -0.75985  -0.75185  -0.74829  -0.74542
 Alpha  occ. eigenvalues --   -0.72770  -0.72652  -0.72356  -0.70870  -0.70269
 Alpha  occ. eigenvalues --   -0.69802  -0.69187  -0.68553  -0.67815  -0.67699
 Alpha  occ. eigenvalues --   -0.67656  -0.67356  -0.66075  -0.65589  -0.64844
 Alpha  occ. eigenvalues --   -0.64423  -0.63071  -0.62649  -0.62440  -0.61627
 Alpha  occ. eigenvalues --   -0.61179  -0.59442  -0.58547  -0.57615  -0.57233
 Alpha  occ. eigenvalues --   -0.56806  -0.55515  -0.55440  -0.55395  -0.54845
 Alpha  occ. eigenvalues --   -0.54499  -0.54001  -0.53382  -0.53315  -0.52882
 Alpha  occ. eigenvalues --   -0.52202  -0.52163  -0.51724  -0.50921  -0.50508
 Alpha  occ. eigenvalues --   -0.49699  -0.49412  -0.48537  -0.48397  -0.48344
 Alpha  occ. eigenvalues --   -0.47997  -0.47698  -0.47604  -0.47501  -0.47302
 Alpha  occ. eigenvalues --   -0.46922  -0.46892  -0.46510  -0.45958  -0.45913
 Alpha  occ. eigenvalues --   -0.45654  -0.45313  -0.45119  -0.44976  -0.44772
 Alpha  occ. eigenvalues --   -0.44363  -0.44231  -0.43859  -0.43796  -0.43629
 Alpha  occ. eigenvalues --   -0.43542  -0.43339  -0.43111  -0.42923  -0.42665
 Alpha  occ. eigenvalues --   -0.42362  -0.42155  -0.41758  -0.41521  -0.41322
 Alpha  occ. eigenvalues --   -0.41024  -0.40791  -0.40649  -0.40521  -0.40306
 Alpha  occ. eigenvalues --   -0.40116  -0.39874  -0.39565  -0.39416  -0.39277
 Alpha  occ. eigenvalues --   -0.38927  -0.38519  -0.38474  -0.38381  -0.38205
 Alpha  occ. eigenvalues --   -0.38054  -0.37928  -0.37457  -0.37397  -0.37284
 Alpha  occ. eigenvalues --   -0.37062  -0.36896  -0.36842  -0.36656  -0.36597
 Alpha  occ. eigenvalues --   -0.36121  -0.36053  -0.35934  -0.35558  -0.35430
 Alpha  occ. eigenvalues --   -0.35274  -0.35202  -0.35098  -0.34998  -0.34634
 Alpha  occ. eigenvalues --   -0.34596  -0.34536  -0.34427  -0.34101  -0.34084
 Alpha  occ. eigenvalues --   -0.34058  -0.33765  -0.33545  -0.33203  -0.32797
 Alpha  occ. eigenvalues --   -0.32662  -0.32356  -0.31846  -0.31717  -0.30704
 Alpha  occ. eigenvalues --   -0.30575  -0.30441  -0.30336  -0.30289  -0.30118
 Alpha  occ. eigenvalues --   -0.29453  -0.29412  -0.28569  -0.28344  -0.28184
 Alpha  occ. eigenvalues --   -0.27990  -0.27565  -0.27140  -0.26617  -0.26459
 Alpha  occ. eigenvalues --   -0.24326  -0.24148  -0.23083  -0.23031  -0.19775
 Alpha  occ. eigenvalues --   -0.18714
 Alpha virt. eigenvalues --   -0.09769  -0.07856  -0.04803  -0.01949  -0.00461
 Alpha virt. eigenvalues --   -0.00163   0.00203   0.00734   0.02096   0.03184
 Alpha virt. eigenvalues --    0.03379   0.03815   0.04250   0.04550   0.04603

 Mulliken charges:
               1
     1  C    0.031025
     2  C   -0.084094
     3  C   -0.086176
     4  C   -0.098142
     5  N   -0.151059
     6  C   -0.061496
     7  C   -0.052381
     8  C   -0.080873
     9  C    0.012339
    10  C    0.064205
    11  C    0.062093
    12  C   -0.029599
    13  C    0.165937
    14  O   -0.199473
    15  O   -0.367891
    16  N   -0.147875
    17  C    0.107938
    18  C   -0.157866
    19  C    0.071467
    20  C    0.121181
    21  C    0.131076
    22  C   -0.092148
    23  C   -0.033082
    24  N   -0.324665
    25  C    0.031485
    26  C   -0.037503
    27  C   -0.091936
    28  C    0.081962
    29  C    0.083974
    30  C    0.051902
    31  C    0.029239
    32  N   -0.089432
    33  C    0.047855
    34  C   -0.174533
    35  C    0.128600
    36  C    0.031803
    37  C    0.110368
    38  C    0.005996
    39  O   -0.220914
    40  C    0.098256
    41  C    0.198833
    42  O   -0.210353
    43  O   -0.290838
    44  C    0.062136
    45  C    0.285613
    46  C   -0.080747
    47  C   -0.091943
    48  C   -0.073425
    49  C    0.126926
    50  C    0.034474
    51  C   -0.028204
    52  C   -0.097177
    53  C    0.039142
    54  C    0.036315
    55  C    0.084871
    56  C    0.014999
    57  C   -0.133332
    58  C    0.119954
    59  C    0.066912
    60  C    0.051213
    61  C    0.001638
    62  C   -0.191850
    63  C    0.051104
    64  C    0.102362
    65  H   -0.014246
    66  H    0.004508
    67  H    0.008213
    68  H    0.038096
    69  H    0.000108
    70  H    0.011737
    71  H    0.000566
    72  H    0.035481
    73  H    0.016078
    74  H    0.003871
    75  H    0.058605
    76  H    0.055243
    77  H    0.045996
    78  H   -0.029836
    79  H    0.039344
    80  H    0.020250
    81  H    0.050194
    82  H   -0.016944
    83  H    0.011160
    84  H   -0.000196
    85  H    0.005263
    86  H   -0.014431
    87  H    0.003075
    88  H    0.027130
    89  H    0.024765
    90  H   -0.007231
    91  H    0.030069
    92  H    0.032280
    93  H   -0.006008
    94  H   -0.026420
    95  H    0.075007
    96  H    0.070536
    97  H    0.067543
    98  H    0.008914
    99  H    0.011441
   100  H   -0.023373
   101  H    0.034274
   102  H    0.042337
   103  H    0.046196
   104  H    0.003597
   105  H   -0.004045
   106  H    0.019184
   107  H   -0.033625
   108  H    0.007010
   109  H    0.015311
   110  H   -0.012458
   111  H    0.027489
   112  H   -0.017819
   113  H   -0.007721
   114  H   -0.018303
   115  H   -0.005211
   116  H   -0.016711
   117  H   -0.002125
   118  H   -0.035653
   119  H    0.008856
   120  H    0.000814
   121  H   -0.020109
   122  H   -0.005661
   123  H   -0.016684
   124  H   -0.012639
   125  H   -0.018207
   126  H   -0.003822
   127  H    0.008410
   128  H   -0.007589
   129  H    0.007828
   130  H   -0.002412
   131  H    0.016250
   132  H   -0.022105
   133  H    0.008531
   134  H    0.003750
   135  H    0.007723
   136  H   -0.014468
   137  H    0.208794
   138  H    0.228034
 Sum of Mulliken charges =   0.00000

 Dipole moment (field-independent basis, Debye):
    X=              1.5588    Y=              4.5688    Z=              1.2892  Tot=              4.9966
 Quadrupole moment (field-independent basis, Debye-Ang):
   XX=           -337.8228   YY=           -381.1355   ZZ=           -395.5414
   XY=            -20.6453   XZ=              2.1407   YZ=             -1.9314

 Normal termination of Gaussian 09 at Sat Aug  3 01:17:07 2019.
