 Gaussian 09, Revision D.01,
 Gaussian 09:  ES64L-G09RevD.01 24-Apr-2013

 --------------------------
 # td=(NStates=1) B3LYP/SVP
 --------------------------

 --
 TD
 --
 Symbolic Z-matrix:
 Charge =  0 Multiplicity = 1

                         Standard orientation:
 ---------------------------------------------------------------------
 Center     Atomic      Atomic             Coordinates (Angstroms)
 Number     Number       Type             X           Y           Z
 ---------------------------------------------------------------------
      1          6           0       -5.164625   -1.929621    0.386399
      2          6           0       -4.722497    2.801517    1.232358
      3          6           0       -9.305938    3.328292   -0.217682
      4          6           0       -9.957644   -1.476752   -0.840936
      5          7           0       -5.184744    0.434207    0.717226
      6          6           0       -4.502383   -0.730772    0.768523
      7          6           0       -3.096552   -0.544315    1.220598
      8          6           0       -3.079800    0.954657    1.675611
      9          6           0       -4.438063    1.348159    1.191513
     10          6           0       -2.961257    1.031852    3.213285
     11          6           0       -2.107854   -0.845284    0.013275
     12          6           0       -0.634765   -0.748625    0.539519
     13          6           0        0.395033   -1.088284   -0.579975
     14          8           0        0.050296   -1.717692   -1.703030
     15          8           0        1.574674   -0.608396   -0.301815
     16          7           0       -7.025787    2.837910    0.330998
     17          6           0       -5.931226    3.414595    0.837031
     18          6           0       -6.172934    4.870539    1.001609
     19          6           0       -7.485297    4.998240    0.555183
     20          6           0       -8.033201    3.738310    0.217242
     21          6           0       -5.232195    5.969454    1.459475
     22          6           0       -8.269029    6.221159    0.400512
     23          6           0       -9.035548    6.555781   -0.709416
     24          7           0       -9.171018    0.850383   -0.580429
     25          6           0       -9.835817    2.017830   -0.426828
     26          6           0      -11.239155    1.908836   -0.871939
     27          6           0      -11.452014    0.515040   -1.069127
     28          6           0      -10.110588   -0.095419   -0.867769
     29          6           0      -12.259365    2.969182   -0.898771
     30          6           0      -12.617662   -0.238655   -1.472670
     31          6           0      -12.836191   -0.378643   -2.977257
     32          7           0       -7.575502   -1.276769   -0.262666
     33          6           0       -8.748313   -2.075069   -0.512254
     34          6           0       -8.292989   -3.439033   -0.532234
     35          6           0       -6.974880   -3.473040   -0.120321
     36          6           0       -6.531712   -2.090848    0.076230
     37          6           0       -9.100635   -4.803658   -0.864128
     38          6           0       -5.726729   -4.255470    0.102703
     39          8           0       -5.612128   -5.439179    0.041159
     40          6           0       -4.619904   -3.278629    0.367405
     41          6           0       -3.819856   -3.738679    1.644778
     42          8           0       -4.000274   -3.314658    2.744238
     43          8           0       -2.930604   -4.725411    1.314664
     44          6           0       -2.226452   -5.296496    2.411830
     45          6           0        2.649868   -0.919635   -1.165941
     46          6           0        3.997535   -0.789719   -0.537936
     47          6           0        4.952648   -0.048485   -1.103867
     48          6           0        5.020369    0.404384   -2.612669
     49          6           0        6.290950    0.109740   -0.384735
     50          6           0        7.538793   -0.598272   -0.983678
     51          6           0        8.819832   -0.342061   -0.091813
     52          6           0       10.134017   -0.852979   -0.528944
     53          6           0       10.217434   -2.288084   -0.644414
     54          6           0       11.329774   -0.261477    0.261254
     55          6           0       12.625163   -0.400926   -0.378149
     56          6           0       13.792513    0.102792    0.464791
     57          6           0       15.159639   -0.213086   -0.285387
     58          6           0       15.525691   -1.670805   -0.205805
     59          6           0       16.271863    0.761671    0.436092
     60          6           0       17.599356    0.828447   -0.185240
     61          6           0       18.642163    1.706752    0.448382
     62          6           0       20.081212    1.737699   -0.026062
     63          6           0       20.143966    2.026689   -1.517203
     64          6           0       20.936548    2.556331    0.820444
     65          1           0       -4.232907    3.545729    1.624295
     66          1           0      -10.013096    4.215986   -0.391399
     67          1           0      -10.689537   -2.265601   -1.004309
     68          1           0       -2.825264   -1.338643    2.064412
     69          1           0       -2.123263    1.426013    1.260170
     70          1           0       -1.996106    0.740705    3.466483
     71          1           0       -2.962570    2.022240    3.434759
     72          1           0       -3.762251    0.361874    3.907531
     73          1           0       -2.342193   -1.951758   -0.303217
     74          1           0       -2.180938   -0.105409   -0.842806
     75          1           0       -0.430389    0.063797    0.987011
     76          1           0       -0.590228   -1.696130    1.275188
     77          1           0       -4.079490    5.910928    0.968956
     78          1           0       -5.775453    6.974841    1.625828
     79          1           0       -4.969177    5.592469    2.448984
     80          1           0       -8.304913    7.081883    1.396145
     81          1           0       -8.945831    5.653533   -1.466812
     82          1           0       -9.587841    7.609528   -1.086647
     83          1           0      -12.350840    3.505161    0.086259
     84          1           0      -11.909819    3.647479   -1.741701
     85          1           0      -13.368324    2.657434   -1.289227
     86          1           0      -12.665273   -1.345862   -1.096067
     87          1           0      -13.539102    0.242574   -1.001357
     88          1           0      -13.095205    0.632671   -3.585373
     89          1           0      -12.061916   -0.772325   -3.297431
     90          1           0      -13.761582   -1.206277   -3.234208
     91          1           0      -10.030664   -4.958267   -0.386764
     92          1           0       -9.244597   -4.753352   -1.973560
     93          1           0       -8.501500   -5.623469   -0.581374
     94          1           0       -3.901654   -3.239053   -0.361227
     95          1           0       -1.439648   -6.032530    1.943147
     96          1           0       -1.609322   -4.618033    2.906416
     97          1           0       -2.904930   -5.773483    3.162821
     98          1           0        2.349210   -2.087904   -1.435682
     99          1           0        2.502287   -0.369435   -2.015246
    100          1           0        4.077252   -1.115767    0.482857
    101          1           0        5.236419    1.561251   -2.656649
    102          1           0        6.037472    0.081521   -3.116033
    103          1           0        3.952046    0.288800   -3.113102
    104          1           0        6.460093    1.080500   -0.226380
    105          1           0        6.143943   -0.418449    0.702072
    106          1           0        7.566324   -1.553432   -1.334430
    107          1           0        7.907282   -0.170089   -1.906120
    108          1           0        8.863992    0.947337    0.003891
    109          1           0        8.581239   -0.438707    0.969411
    110          1           0       10.115679   -0.285640   -1.429287
    111          1           0        9.435035   -2.705571   -1.305733
    112          1           0       11.147482   -2.628850   -1.027245
    113          1           0       10.059081   -2.889989    0.289968
    114          1           0       11.114242    0.888298    0.537402
    115          1           0       11.184027   -0.553171    1.184896
    116          1           0       12.838447   -1.680652   -0.403787
    117          1           0       12.665688    0.092008   -1.310881
    118          1           0       13.701859    1.229522    0.631495
    119          1           0       13.884355   -0.487501    1.492217
    120          1           0       15.035916    0.085144   -1.206864
    121          1           0       14.918331   -2.424023   -0.683400
    122          1           0       16.439930   -1.756351   -0.624068
    123          1           0       15.452539   -2.010566    0.879267
    124          1           0       15.854590    1.816644    0.333264
    125          1           0       16.591832    0.298427    1.558171
    126          1           0       18.083940   -0.222055   -0.282159
    127          1           0       17.313667    1.137862   -1.175835
    128          1           0       18.571567    2.775585    0.533848
    129          1           0       18.671448    1.214678    1.761793
    130          1           0       20.394286    0.732929   -0.071383
    131          1           0       19.604785    3.117488   -1.595477
    132          1           0       21.066012    1.826673   -1.688138
    133          1           0       19.818642    1.176244   -2.245360
    134          1           0       20.956620    2.326160    1.778920
    135          1           0       22.120761    2.472450    0.766564
    136          1           0       20.623675    3.673497    0.753983
    137          1           0       -7.068744    1.739960    0.441573
    138          1           0       -7.641542   -0.237679   -0.158245
 ---------------------------------------------------------------------

 SCF Done:  E(RB3LYP) =  -2732.91691290     A.U. after   17 cycles

 Excitation energies and oscillator strengths:

 Excited State   1:      Singlet-A      2.1123 eV  586.96 nm  f=0.1412  <S**2>=0.000
     235 -> 237       -0.16082
     235 -> 238        0.31226
     236 -> 237        0.59674
     236 -> 238        0.13449
 This state for optimization and/or second-order correction.
 Total Energy, E(TD-HF/TD-KS) =  -2732.83928719
 Copying the excited state density for this state as the 1-particle RhoCI density.

 The electronic state is 1-A.
 Alpha  occ. eigenvalues --  -19.19878 -19.18221 -19.13477 -19.11777 -19.11591
 Alpha  occ. eigenvalues --  -14.36899 -14.35997 -14.32649 -14.29938 -10.32590
 Alpha  occ. eigenvalues --  -10.32142 -10.27307 -10.25338 -10.24822 -10.23515
 Alpha  occ. eigenvalues --  -10.23462 -10.23373 -10.23132 -10.23027 -10.22958
 Alpha  occ. eigenvalues --  -10.22925 -10.22459 -10.22313 -10.22148 -10.21670
 Alpha  occ. eigenvalues --  -10.21654 -10.21372 -10.21322 -10.21159 -10.21058
 Alpha  occ. eigenvalues --  -10.20876 -10.20836 -10.20779 -10.20701 -10.20176
 Alpha  occ. eigenvalues --  -10.20139 -10.20116 -10.20073 -10.20035 -10.20031
 Alpha  occ. eigenvalues --  -10.19796 -10.19783 -10.19556 -10.19428 -10.19375
 Alpha  occ. eigenvalues --  -10.19260 -10.19231 -10.19164 -10.18996 -10.18762
 Alpha  occ. eigenvalues --  -10.18545 -10.18513 -10.18501 -10.18476 -10.18419
 Alpha  occ. eigenvalues --  -10.18318 -10.18047 -10.18045 -10.18044 -10.17970
 Alpha  occ. eigenvalues --  -10.17895 -10.17697 -10.17316 -10.17122  -1.11357
 Alpha  occ. eigenvalues --   -1.09846  -1.03648  -1.01962  -0.99229  -0.97420
 Alpha  occ. eigenvalues --   -0.96059  -0.95506  -0.92920  -0.85599  -0.83634
 Alpha  occ. eigenvalues --   -0.82679  -0.82485  -0.81825  -0.81073  -0.80742
 Alpha  occ. eigenvalues --   -0.80615  -0.79450  -0.79028  -0.78882  -0.78424
 Alpha  occ. eigenvalues --   -0.77336  -0.76477  -0.75513  -0.75276  -0.74235
 Alpha  occ. eigenvalues --   -0.73900  -0.73274  -0.72963  -0.72214  -0.70349
 Alpha  occ. eigenvalues --   -0.69983  -0.69360  -0.69325  -0.68679  -0.68147
 Alpha  occ. eigenvalues --   -0.67774  -0.67166  -0.66946  -0.66402  -0.65417
 Alpha  occ. eigenvalues --   -0.64451  -0.63483  -0.62109  -0.61344  -0.61096
 Alpha  occ. eigenvalues --   -0.60808  -0.60252  -0.58489  -0.57964  -0.57694
 Alpha  occ. eigenvalues --   -0.57122  -0.56767  -0.56381  -0.56287  -0.55699
 Alpha  occ. eigenvalues --   -0.55429  -0.54664  -0.54606  -0.54213  -0.53261
 Alpha  occ. eigenvalues --   -0.52252  -0.51930  -0.51746  -0.51405  -0.50937
 Alpha  occ. eigenvalues --   -0.50347  -0.49560  -0.49419  -0.48974  -0.48705
 Alpha  occ. eigenvalues --   -0.48165  -0.48002  -0.47551  -0.47453  -0.47224
 Alpha  occ. eigenvalues --   -0.46943  -0.46492  -0.46241  -0.46201  -0.45920
 Alpha  occ. eigenvalues --   -0.45745  -0.45359  -0.45017  -0.44871  -0.44657
 Alpha  occ. eigenvalues --   -0.44414  -0.44277  -0.44024  -0.43946  -0.43338
 Alpha  occ. eigenvalues --   -0.43212  -0.42988  -0.42866  -0.42703  -0.42641
 Alpha  occ. eigenvalues --   -0.42475  -0.42360  -0.42096  -0.41997  -0.41580
 Alpha  occ. eigenvalues --   -0.41399  -0.41119  -0.40948  -0.40684  -0.40328
 Alpha  occ. eigenvalues --   -0.40182  -0.40103  -0.39823  -0.39777  -0.39683
 Alpha  occ. eigenvalues --   -0.39520  -0.39417  -0.39354  -0.39085  -0.38671
 Alpha  occ. eigenvalues --   -0.38425  -0.38333  -0.38203  -0.38018  -0.37862
 Alpha  occ. eigenvalues --   -0.37840  -0.37626  -0.37562  -0.37276  -0.37077
 Alpha  occ. eigenvalues --   -0.36679  -0.36493  -0.36189  -0.35803  -0.35658
 Alpha  occ. eigenvalues --   -0.35503  -0.35180  -0.34875  -0.34674  -0.34671
 Alpha  occ. eigenvalues --   -0.34512  -0.34256  -0.33999  -0.33764  -0.33729
 Alpha  occ. eigenvalues --   -0.33684  -0.33489  -0.33327  -0.32401  -0.32323
 Alpha  occ. eigenvalues --   -0.32295  -0.31948  -0.31525  -0.31441  -0.31037
 Alpha  occ. eigenvalues --   -0.30652  -0.30315  -0.30044  -0.29920  -0.29869
 Alpha  occ. eigenvalues --   -0.29408  -0.28932  -0.28796  -0.28446  -0.28172
 Alpha  occ. eigenvalues --   -0.27576  -0.27242  -0.26266  -0.26126  -0.25603
 Alpha  occ. eigenvalues --   -0.25226  -0.24836  -0.24232  -0.21705  -0.19707
 Alpha  occ. eigenvalues --   -0.18695
 Alpha virt. eigenvalues --   -0.09756  -0.07616  -0.04170  -0.02090  -0.01813
 Alpha virt. eigenvalues --   -0.01029  -0.00259   0.00386   0.01868   0.02880
 Alpha virt. eigenvalues --    0.03065   0.03233   0.03450   0.04125   0.04154

 Mulliken charges:
               1
     1  C    0.017247
     2  C    0.064720
     3  C   -0.116356
     4  C   -0.074744
     5  N   -0.097644
     6  C   -0.042550
     7  C   -0.093814
     8  C   -0.075518
     9  C    0.031130
    10  C    0.104585
    11  C   -0.013829
    12  C    0.103016
    13  C    0.201838
    14  O   -0.342734
    15  O   -0.252354
    16  N   -0.058526
    17  C   -0.031367
    18  C   -0.112811
    19  C    0.043370
    20  C    0.065076
    21  C    0.059110
    22  C   -0.116650
    23  C   -0.123172
    24  N   -0.235143
    25  C    0.088464
    26  C   -0.152662
    27  C   -0.062064
    28  C    0.117427
    29  C    0.031250
    30  C    0.017813
    31  C    0.044454
    32  N   -0.100275
    33  C    0.050410
    34  C   -0.184453
    35  C    0.009831
    36  C    0.026162
    37  C    0.122033
    38  C    0.065227
    39  O   -0.140138
    40  C    0.064396
    41  C    0.163851
    42  O   -0.199288
    43  O   -0.300866
    44  C    0.183382
    45  C    0.251766
    46  C   -0.047850
    47  C   -0.099480
    48  C   -0.018948
    49  C    0.095699
    50  C    0.100784
    51  C   -0.109159
    52  C    0.038387
    53  C    0.088557
    54  C    0.066965
    55  C    0.035017
    56  C   -0.018746
    57  C   -0.004812
    58  C    0.092660
    59  C   -0.028098
    60  C    0.078845
    61  C   -0.047221
    62  C   -0.031863
    63  C    0.074394
    64  C    0.069512
    65  H   -0.142400
    66  H    0.001278
    67  H   -0.024973
    68  H    0.045223
    69  H    0.019710
    70  H   -0.016045
    71  H   -0.026678
    72  H    0.059148
    73  H    0.049856
    74  H    0.030839
    75  H   -0.046610
    76  H    0.045328
    77  H    0.058184
    78  H    0.047057
    79  H    0.025158
    80  H    0.045831
    81  H    0.056517
    82  H    0.082244
    83  H    0.045090
    84  H    0.032205
    85  H    0.031069
    86  H    0.012291
    87  H    0.006349
    88  H    0.030180
    89  H   -0.054405
    90  H    0.015039
    91  H    0.014987
    92  H    0.033028
    93  H    0.021639
    94  H    0.018576
    95  H    0.043560
    96  H    0.002352
    97  H    0.043991
    98  H    0.045428
    99  H   -0.022228
   100  H   -0.012508
   101  H    0.021419
   102  H    0.057955
   103  H    0.051313
   104  H   -0.025204
   105  H    0.015777
   106  H   -0.035348
   107  H   -0.026180
   108  H   -0.016838
   109  H   -0.024177
   110  H   -0.032291
   111  H   -0.005710
   112  H   -0.007095
   113  H    0.000480
   114  H   -0.025263
   115  H   -0.069156
   116  H    0.021046
   117  H   -0.013900
   118  H    0.001442
   119  H    0.009749
   120  H   -0.066534
   121  H   -0.000160
   122  H   -0.024805
   123  H    0.004762
   124  H    0.007431
   125  H    0.011460
   126  H    0.005950
   127  H   -0.021526
   128  H   -0.019610
   129  H   -0.016723
   130  H   -0.046097
   131  H    0.027195
   132  H   -0.052842
   133  H    0.006381
   134  H   -0.036775
   135  H    0.007481
   136  H    0.010807
   137  H    0.202968
   138  H    0.152067
 Sum of Mulliken charges =   0.00000

 Dipole moment (field-independent basis, Debye):
    X=              4.9864    Y=              4.3022    Z=              1.3448  Tot=              6.7217
 Quadrupole moment (field-independent basis, Debye-Ang):
   XX=           -353.1791   YY=           -385.3894   ZZ=           -398.5299
   XY=            -29.0152   XZ=             -9.1996   YZ=             -2.2844

 Normal termination of Gaussian 09 at Sun Aug  4 21:03:50 2019.
