 Gaussian 09, Revision D.01,
 Gaussian 09:  ES64L-G09RevD.01 24-Apr-2013

 --------------------------
 # td=(NStates=1) B3LYP/SVP
 --------------------------

 --
 TD
 --
 Symbolic Z-matrix:
 Charge =  0 Multiplicity = 1

                         Standard orientation:
 ---------------------------------------------------------------------
 Center     Atomic      Atomic             Coordinates (Angstroms)
 Number     Number       Type             X           Y           Z
 ---------------------------------------------------------------------
      1          6           0       -5.201333   -2.036960    0.627069
      2          6           0       -4.844467    2.739478    1.506656
      3          6           0       -9.405373    3.349883   -0.390405
      4          6           0       -9.771918   -1.482263   -0.997670
      5          7           0       -5.190818    0.341121    0.847453
      6          6           0       -4.570989   -0.911065    0.930648
      7          6           0       -3.077153   -0.593340    1.315400
      8          6           0       -3.070416    0.848654    1.853155
      9          6           0       -4.497631    1.330733    1.409219
     10          6           0       -2.982898    0.851850    3.406598
     11          6           0       -2.063638   -0.804323    0.187458
     12          6           0       -0.565615   -0.685944    0.667846
     13          6           0        0.362679   -0.912351   -0.546638
     14          8           0        0.075249   -1.372403   -1.588004
     15          8           0        1.615958   -0.581535   -0.156540
     16          7           0       -7.117316    2.748365    0.430956
     17          6           0       -5.970099    3.344290    1.013067
     18          6           0       -6.294198    4.784557    1.120870
     19          6           0       -7.601964    4.931394    0.661763
     20          6           0       -8.058995    3.645715    0.137494
     21          6           0       -5.389163    5.847924    1.541776
     22          6           0       -8.290705    6.286167    0.422048
     23          6           0       -9.085998    6.744402   -0.660431
     24          7           0       -9.236870    0.881527   -0.479394
     25          6           0       -9.862820    2.071420   -0.661648
     26          6           0      -11.256736    1.816812   -1.029504
     27          6           0      -11.390358    0.454901   -1.231021
     28          6           0      -10.075730   -0.119144   -0.871082
     29          6           0      -12.362718    2.831281   -1.349882
     30          6           0      -12.599138   -0.318888   -1.647771
     31          6           0      -12.526261   -0.589190   -3.192679
     32          7           0       -7.537987   -1.366197   -0.155033
     33          6           0       -8.569837   -2.106002   -0.654557
     34          6           0       -8.232787   -3.385973   -0.703067
     35          6           0       -6.845680   -3.457140   -0.228660
     36          6           0       -6.457874   -2.187463    0.179251
     37          6           0       -8.904920   -4.617941   -1.345734
     38          6           0       -5.720168   -4.321405    0.085952
     39          8           0       -5.596954   -5.573967   -0.074530
     40          6           0       -4.567326   -3.380049    0.475106
     41          6           0       -3.955846   -3.868026    1.834379
     42          8           0       -4.207353   -3.401410    2.935144
     43          8           0       -3.034397   -4.888681    1.601603
     44          6           0       -2.531049   -5.492907    2.696334
     45          6           0        2.660243   -0.682538   -1.121124
     46          6           0        3.996299   -0.441532   -0.519607
     47          6           0        5.047208    0.422731   -0.917051
     48          6           0        4.801573    1.275972   -2.107775
     49          6           0        6.368266    0.475207   -0.193077
     50          6           0        7.487913   -0.255446   -1.044743
     51          6           0        8.777348   -0.361179   -0.151606
     52          6           0       10.122206   -0.603634   -0.939875
     53          6           0       10.014244   -2.208591   -1.477919
     54          6           0       11.310030   -0.315084    0.092874
     55          6           0       12.756296   -0.549057   -0.627677
     56          6           0       13.847812   -0.045171    0.224743
     57          6           0       15.191289   -0.187297   -0.487424
     58          6           0       15.532312   -1.637026   -0.943504
     59          6           0       16.238925    0.488613    0.347802
     60          6           0       17.681670    0.516989   -0.163125
     61          6           0       18.651614    1.591352    0.552312
     62          6           0       20.194020    1.530947    0.235434
     63          6           0       20.458927    1.813275   -1.239327
     64          6           0       20.954788    2.444681    1.266881
     65          1           0       -4.153343    3.362105    1.774187
     66          1           0      -10.072648    4.174124   -0.567117
     67          1           0      -10.698212   -2.149565   -1.171054
     68          1           0       -2.560579   -1.283842    2.069639
     69          1           0       -2.138218    1.566768    1.681920
     70          1           0       -1.730161    0.822114    3.545011
     71          1           0       -3.077865    2.091820    3.644360
     72          1           0       -3.703173    0.380639    4.272288
     73          1           0       -2.177801   -1.785476   -0.319953
     74          1           0       -2.389954   -0.286399   -0.707559
     75          1           0       -0.531538    0.545116    0.907822
     76          1           0       -0.308667   -1.202494    1.715146
     77          1           0       -4.425975    5.792193    0.963449
     78          1           0       -5.730904    6.939234    1.440408
     79          1           0       -5.074834    5.570551    2.729006
     80          1           0       -7.948696    6.927902    1.285545
     81          1           0       -9.281826    6.117150   -1.420691
     82          1           0       -9.483340    7.691643   -0.828390
     83          1           0      -12.473131    3.398004   -0.539832
     84          1           0      -11.946449    3.581938   -2.025878
     85          1           0      -13.422261    2.315341   -1.615488
     86          1           0      -12.836071   -1.322415   -1.290357
     87          1           0      -13.481797    0.379135   -1.438747
     88          1           0      -12.495760    0.352675   -3.969309
     89          1           0      -11.539580   -1.228585   -3.402414
     90          1           0      -13.193192   -1.352603   -3.671000
     91          1           0      -10.008706   -4.548611   -0.961069
     92          1           0       -9.047140   -4.572902   -2.559008
     93          1           0       -8.426187   -5.577576   -0.806515
     94          1           0       -3.768399   -3.300051   -0.236218
     95          1           0       -1.851406   -6.429815    2.560695
     96          1           0       -1.963507   -4.885265    3.429030
     97          1           0       -3.382207   -5.924742    3.326157
     98          1           0        2.666727   -1.726484   -1.783582
     99          1           0        2.510316    0.080980   -1.961949
    100          1           0        4.245360   -1.210022    0.474233
    101          1           0        5.017656    2.371654   -1.858254
    102          1           0        5.728903    1.116584   -2.744341
    103          1           0        3.772755    1.332095   -2.614004
    104          1           0        6.557978    1.543517   -0.025782
    105          1           0        6.348815   -0.149284    0.830468
    106          1           0        7.230536   -1.279576   -1.404848
    107          1           0        7.675759    0.543645   -2.035031
    108          1           0        8.799146    0.777629    0.422514
    109          1           0        8.643186   -0.939906    0.726218
    110          1           0       10.177950    0.203115   -1.838460
    111          1           0        9.128172   -2.192419   -2.081774
    112          1           0       10.857059   -2.289018   -2.281702
    113          1           0       10.251164   -2.757300   -0.733776
    114          1           0       11.172239    0.520355    0.588195
    115          1           0       11.341411   -0.960397    0.906873
    116          1           0       12.826348   -1.699479   -0.723767
    117          1           0       12.736549   -0.178814   -1.473107
    118          1           0       13.610506    1.053219    0.646675
    119          1           0       13.969022   -0.918753    1.161445
    120          1           0       15.309794    0.546115   -1.480724
    121          1           0       14.724772   -2.236161   -1.534976
    122          1           0       16.620281   -1.757756   -1.239878
    123          1           0       15.377860   -2.135840    0.082909
    124          1           0       15.927638    1.400483    0.409954
    125          1           0       16.392723   -0.085331    1.456812
    126          1           0       18.149090   -0.461864    0.185542
    127          1           0       17.908765    0.490412   -1.269402
    128          1           0       18.338911    2.639184    0.418116
    129          1           0       18.428908    1.470644    1.608919
    130          1           0       20.736619    0.504475    0.355114
    131          1           0       19.987137    2.902953   -1.343263
    132          1           0       21.463514    1.662540   -1.425003
    133          1           0       19.848577    1.023317   -1.765966
    134          1           0       20.551091    2.198626    2.323257
    135          1           0       21.994628    2.445012    1.463805
    136          1           0       20.581288    3.564587    1.114932
    137          1           0       -7.054737    1.736597    0.259932
    138          1           0       -7.593165   -0.290993    0.035059
 ---------------------------------------------------------------------

 SCF Done:  E(RB3LYP) =  -2732.95871908     A.U. after   18 cycles

 Excitation energies and oscillator strengths:

 Excited State   1:      Singlet-A      2.0774 eV  596.82 nm  f=0.2035  <S**2>=0.000
     235 -> 237       -0.14130
     235 -> 238        0.23766
     236 -> 237        0.63929
     236 -> 238        0.11434
 This state for optimization and/or second-order correction.
 Total Energy, E(TD-HF/TD-KS) =  -2732.88237521
 Copying the excited state density for this state as the 1-particle RhoCI density.

 The electronic state is 1-A.
 Alpha  occ. eigenvalues --  -19.18019 -19.17916 -19.13572 -19.13503 -19.11084
 Alpha  occ. eigenvalues --  -14.38086 -14.36393 -14.33187 -14.29978 -10.32573
 Alpha  occ. eigenvalues --  -10.32097 -10.27357 -10.26146 -10.25387 -10.24942
 Alpha  occ. eigenvalues --  -10.24468 -10.24185 -10.23394 -10.23157 -10.23017
 Alpha  occ. eigenvalues --  -10.22743 -10.22682 -10.22589 -10.22416 -10.22170
 Alpha  occ. eigenvalues --  -10.21976 -10.21840 -10.21727 -10.21721 -10.21630
 Alpha  occ. eigenvalues --  -10.21586 -10.21510 -10.21456 -10.21169 -10.20991
 Alpha  occ. eigenvalues --  -10.20930 -10.20823 -10.20675 -10.20571 -10.20519
 Alpha  occ. eigenvalues --  -10.20504 -10.20410 -10.20396 -10.20289 -10.20146
 Alpha  occ. eigenvalues --  -10.20110 -10.20002 -10.19983 -10.19887 -10.19815
 Alpha  occ. eigenvalues --  -10.19575 -10.19554 -10.19213 -10.18989 -10.18894
 Alpha  occ. eigenvalues --  -10.18679 -10.18671 -10.18592 -10.18569 -10.18452
 Alpha  occ. eigenvalues --  -10.18219 -10.18114 -10.17144 -10.17066  -1.10567
 Alpha  occ. eigenvalues --   -1.09567  -1.02657  -1.01432  -0.99140  -0.98822
 Alpha  occ. eigenvalues --   -0.97796  -0.94103  -0.93476  -0.86936  -0.82305
 Alpha  occ. eigenvalues --   -0.82292  -0.81795  -0.81180  -0.80651  -0.79634
 Alpha  occ. eigenvalues --   -0.79495  -0.79367  -0.79088  -0.78794  -0.77037
 Alpha  occ. eigenvalues --   -0.76432  -0.75933  -0.75721  -0.74634  -0.73925
 Alpha  occ. eigenvalues --   -0.73750  -0.73060  -0.72507  -0.71321  -0.71192
 Alpha  occ. eigenvalues --   -0.69218  -0.68978  -0.68052  -0.67935  -0.67545
 Alpha  occ. eigenvalues --   -0.67491  -0.66988  -0.66809  -0.66398  -0.64779
 Alpha  occ. eigenvalues --   -0.63903  -0.63141  -0.62194  -0.62042  -0.61105
 Alpha  occ. eigenvalues --   -0.60874  -0.58933  -0.58779  -0.58555  -0.57905
 Alpha  occ. eigenvalues --   -0.56758  -0.56280  -0.55893  -0.55754  -0.55602
 Alpha  occ. eigenvalues --   -0.54806  -0.54137  -0.53797  -0.53206  -0.53137
 Alpha  occ. eigenvalues --   -0.52796  -0.52460  -0.51616  -0.51247  -0.50800
 Alpha  occ. eigenvalues --   -0.50120  -0.49386  -0.48981  -0.48632  -0.48150
 Alpha  occ. eigenvalues --   -0.47936  -0.47817  -0.47517  -0.47158  -0.46955
 Alpha  occ. eigenvalues --   -0.46660  -0.46535  -0.46355  -0.45970  -0.45884
 Alpha  occ. eigenvalues --   -0.45735  -0.45544  -0.45140  -0.44941  -0.44799
 Alpha  occ. eigenvalues --   -0.44475  -0.44229  -0.44165  -0.44027  -0.43603
 Alpha  occ. eigenvalues --   -0.43360  -0.43146  -0.42957  -0.42827  -0.42662
 Alpha  occ. eigenvalues --   -0.42526  -0.42025  -0.41756  -0.41384  -0.41296
 Alpha  occ. eigenvalues --   -0.41160  -0.41087  -0.40666  -0.40489  -0.40298
 Alpha  occ. eigenvalues --   -0.40065  -0.39920  -0.39873  -0.39461  -0.39416
 Alpha  occ. eigenvalues --   -0.38879  -0.38774  -0.38717  -0.38349  -0.38203
 Alpha  occ. eigenvalues --   -0.38064  -0.37925  -0.37758  -0.37662  -0.37428
 Alpha  occ. eigenvalues --   -0.37285  -0.37240  -0.37148  -0.36706  -0.36495
 Alpha  occ. eigenvalues --   -0.36282  -0.36026  -0.36022  -0.35898  -0.35645
 Alpha  occ. eigenvalues --   -0.35491  -0.35404  -0.35144  -0.34800  -0.34603
 Alpha  occ. eigenvalues --   -0.34322  -0.34251  -0.33750  -0.33729  -0.33576
 Alpha  occ. eigenvalues --   -0.33537  -0.33125  -0.32918  -0.32641  -0.32487
 Alpha  occ. eigenvalues --   -0.32325  -0.32088  -0.31904  -0.31715  -0.31138
 Alpha  occ. eigenvalues --   -0.30875  -0.30552  -0.30258  -0.29925  -0.29720
 Alpha  occ. eigenvalues --   -0.29695  -0.29212  -0.29127  -0.28906  -0.28413
 Alpha  occ. eigenvalues --   -0.28359  -0.27480  -0.26485  -0.26161  -0.24962
 Alpha  occ. eigenvalues --   -0.24479  -0.24335  -0.23213  -0.22686  -0.20898
 Alpha  occ. eigenvalues --   -0.19410
 Alpha virt. eigenvalues --   -0.11129  -0.07865  -0.05245  -0.03111  -0.01180
 Alpha virt. eigenvalues --   -0.00849  -0.00715  -0.00153   0.01468   0.02414
 Alpha virt. eigenvalues --    0.03019   0.03353   0.03584   0.03920   0.04790

 Mulliken charges:
               1
     1  C    0.067281
     2  C    0.028337
     3  C   -0.078573
     4  C   -0.121492
     5  N   -0.196226
     6  C   -0.087064
     7  C    0.035441
     8  C   -0.100802
     9  C    0.045326
    10  C   -0.083259
    11  C    0.027395
    12  C   -0.080820
    13  C    0.202994
    14  O   -0.182474
    15  O   -0.298429
    16  N   -0.057716
    17  C    0.106265
    18  C   -0.081614
    19  C   -0.045080
    20  C    0.075746
    21  C    0.002350
    22  C   -0.045286
    23  C    0.032977
    24  N   -0.236321
    25  C    0.102392
    26  C   -0.181907
    27  C   -0.064945
    28  C    0.045451
    29  C    0.164955
    30  C    0.080392
    31  C   -0.097716
    32  N   -0.108995
    33  C    0.144840
    34  C   -0.144773
    35  C    0.013283
    36  C    0.087090
    37  C    0.008121
    38  C    0.068194
    39  O   -0.231503
    40  C   -0.006354
    41  C    0.214295
    42  O   -0.214643
    43  O   -0.272770
    44  C    0.146306
    45  C    0.213762
    46  C   -0.140993
    47  C   -0.135478
    48  C    0.048846
    49  C    0.053021
    50  C   -0.044029
    51  C   -0.022658
    52  C   -0.122274
    53  C    0.089252
    54  C    0.118018
    55  C    0.143181
    56  C   -0.061042
    57  C   -0.120755
    58  C   -0.013445
    59  C    0.112992
    60  C   -0.017873
    61  C    0.020745
    62  C   -0.125289
    63  C    0.058926
    64  C   -0.000729
    65  H   -0.101521
    66  H   -0.038149
    67  H    0.011262
    68  H    0.012999
    69  H    0.036527
    70  H    0.027292
    71  H    0.003510
    72  H    0.085596
    73  H    0.006646
    74  H   -0.007976
    75  H    0.050395
    76  H    0.081613
    77  H    0.042847
    78  H    0.044385
    79  H    0.052398
    80  H    0.022464
    81  H   -0.002189
    82  H    0.019582
    83  H   -0.027264
    84  H    0.008930
    85  H    0.044067
    86  H    0.012533
    87  H    0.012276
    88  H    0.038981
    89  H    0.013656
    90  H    0.012523
    91  H    0.020754
    92  H    0.066957
    93  H    0.077324
    94  H    0.057841
    95  H    0.036527
    96  H    0.011307
    97  H    0.015092
    98  H    0.051886
    99  H    0.004550
   100  H    0.016185
   101  H    0.005767
   102  H    0.016887
   103  H    0.045384
   104  H    0.019322
   105  H    0.026278
   106  H    0.031963
   107  H    0.024447
   108  H   -0.004993
   109  H   -0.006091
   110  H    0.020087
   111  H    0.018755
   112  H    0.014057
   113  H   -0.021693
   114  H   -0.062728
   115  H   -0.041834
   116  H    0.008960
   117  H   -0.080147
   118  H    0.027344
   119  H    0.013059
   120  H    0.000425
   121  H    0.039231
   122  H    0.037297
   123  H   -0.005484
   124  H   -0.055204
   125  H    0.006578
   126  H    0.001738
   127  H    0.008908
   128  H   -0.010512
   129  H   -0.014636
   130  H   -0.001822
   131  H    0.019159
   132  H   -0.002393
   133  H    0.015110
   134  H    0.005753
   135  H    0.006253
   136  H    0.006369
   137  H    0.151757
   138  H    0.179998
 Sum of Mulliken charges =   0.00000

 Dipole moment (field-independent basis, Debye):
    X=              2.5203    Y=              6.5787    Z=              0.2140  Tot=              7.0481
 Quadrupole moment (field-independent basis, Debye-Ang):
   XX=           -359.8073   YY=           -390.0367   ZZ=           -400.1580
   XY=            -39.4622   XZ=             11.3359   YZ=             -1.6379

 Normal termination of Gaussian 09 at Sun Jul 28 07:06:49 2019.
