 Gaussian 09, Revision D.01,
 Gaussian 09:  ES64L-G09RevD.01 24-Apr-2013

 --------------------------
 # td=(NStates=1) B3LYP/SVP
 --------------------------

 --
 TD
 --
 Symbolic Z-matrix:
 Charge =  0 Multiplicity = 1

                         Standard orientation:
 ---------------------------------------------------------------------
 Center     Atomic      Atomic             Coordinates (Angstroms)
 Number     Number       Type             X           Y           Z
 ---------------------------------------------------------------------
      1          6           0       -5.095762   -1.976088    0.399632
      2          6           0       -4.812416    2.731098    1.395556
      3          6           0       -9.346498    3.350038   -0.257644
      4          6           0       -9.810667   -1.517143   -0.854366
      5          7           0       -5.158202    0.483065    0.725680
      6          6           0       -4.418315   -0.704158    0.745810
      7          6           0       -3.073749   -0.591224    1.278629
      8          6           0       -3.074886    0.855551    1.832800
      9          6           0       -4.472671    1.401085    1.237521
     10          6           0       -3.084720    0.902587    3.407800
     11          6           0       -1.984579   -0.631488    0.110993
     12          6           0       -0.563318   -0.618609    0.558977
     13          6           0        0.383551   -0.712684   -0.798278
     14          8           0        0.029473   -0.811288   -1.945494
     15          8           0        1.575345   -0.800654   -0.201534
     16          7           0       -7.091311    2.719700    0.520359
     17          6           0       -5.971732    3.364124    0.924167
     18          6           0       -6.313073    4.735261    1.075316
     19          6           0       -7.496778    4.999058    0.442229
     20          6           0       -8.098278    3.640833    0.079002
     21          6           0       -5.342845    5.824417    1.611831
     22          6           0       -8.158646    6.236655    0.273575
     23          6           0       -9.061787    6.555411   -0.580253
     24          7           0       -9.213723    0.869440   -0.460361
     25          6           0       -9.916433    2.008440   -0.515164
     26          6           0      -11.305983    1.772089   -0.923587
     27          6           0      -11.419565    0.459611   -1.133722
     28          6           0      -10.171252   -0.115442   -0.825198
     29          6           0      -12.443360    2.816604   -1.078421
     30          6           0      -12.656420   -0.311603   -1.548048
     31          6           0      -12.605780   -0.786709   -3.074345
     32          7           0       -7.520203   -1.373866   -0.241695
     33          6           0       -8.551592   -2.073911   -0.500669
     34          6           0       -8.261694   -3.435339   -0.562570
     35          6           0       -6.854113   -3.391020   -0.279148
     36          6           0       -6.440074   -2.106367   -0.044254
     37          6           0       -9.066866   -4.709415   -0.876106
     38          6           0       -5.715548   -4.376747    0.040076
     39          8           0       -5.639521   -5.590345   -0.080518
     40          6           0       -4.496537   -3.328279    0.435726
     41          6           0       -3.835768   -3.783847    1.759077
     42          8           0       -4.115879   -3.283773    2.812703
     43          8           0       -3.082201   -4.866906    1.595198
     44          6           0       -2.497660   -5.431264    2.812185
     45          6           0        2.706112   -0.923328   -1.335783
     46          6           0        3.999618   -0.618308   -0.533063
     47          6           0        4.975698    0.179667   -1.092326
     48          6           0        4.824337    0.939315   -2.388715
     49          6           0        6.203359    0.332083   -0.341540
     50          6           0        7.437646   -0.296400   -1.030675
     51          6           0        8.743497   -0.043493   -0.169143
     52          6           0       10.054160   -0.608315   -0.783715
     53          6           0       10.101830   -2.096627   -1.136219
     54          6           0       11.300574   -0.146396   -0.035382
     55          6           0       12.644705   -0.466126   -0.638460
     56          6           0       13.878186   -0.187679    0.380287
     57          6           0       15.186429   -0.104018   -0.455460
     58          6           0       15.641307   -1.430855   -1.185246
     59          6           0       16.333174    0.571112    0.501754
     60          6           0       17.712601    0.752575   -0.009453
     61          6           0       18.798455    1.323531    0.795703
     62          6           0       20.206011    1.359911    0.308277
     63          6           0       20.496327    2.002377   -1.085454
     64          6           0       21.207903    1.926929    1.320917
     65          1           0       -3.997129    3.643215    1.664836
     66          1           0      -10.047500    4.010913   -0.192077
     67          1           0      -10.793676   -2.080354   -1.044050
     68          1           0       -3.137155   -1.148007    2.129323
     69          1           0       -2.193791    1.596730    1.691761
     70          1           0       -2.226546    0.224127    3.741631
     71          1           0       -2.838366    1.920672    3.963587
     72          1           0       -4.062161    0.331977    3.917103
     73          1           0       -2.183968   -1.593676   -0.447033
     74          1           0       -2.105052    0.231481   -0.639068
     75          1           0       -0.095103    0.186000    0.997509
     76          1           0       -0.317532   -1.261977    1.297162
     77          1           0       -4.329968    5.959054    1.154437
     78          1           0       -5.880551    6.660438    1.910475
     79          1           0       -5.115103    5.346759    2.598477
     80          1           0       -7.765965    7.150757    0.881731
     81          1           0       -9.606742    5.940123   -1.363510
     82          1           0       -9.534363    7.604481   -0.642274
     83          1           0      -12.819545    3.352043   -0.123831
     84          1           0      -11.971777    3.584105   -1.733114
     85          1           0      -13.387573    2.398125   -1.711777
     86          1           0      -12.859761   -1.245926   -0.911197
     87          1           0      -13.648268    0.392690   -1.241433
     88          1           0      -12.655617    0.229632   -3.661400
     89          1           0      -11.897476   -1.494260   -3.328036
     90          1           0      -13.687664   -1.392767   -3.254581
     91          1           0      -10.012609   -4.620323   -0.089946
     92          1           0       -9.486898   -4.655830   -1.836730
     93          1           0       -8.451205   -5.442499   -0.653517
     94          1           0       -3.724697   -3.581339   -0.379841
     95          1           0       -1.676296   -6.226197    2.371542
     96          1           0       -1.913354   -4.890634    3.410197
     97          1           0       -3.294466   -6.103491    3.326329
     98          1           0        2.488590   -1.869992   -1.745540
     99          1           0        2.599605   -0.396296   -2.157914
    100          1           0        3.907782   -1.166568    0.262355
    101          1           0        5.377566    2.027640   -2.180933
    102          1           0        5.322851    0.345546   -3.264270
    103          1           0        3.824545    1.175042   -2.633263
    104          1           0        6.255680    1.275006   -0.082314
    105          1           0        6.232566   -0.200127    0.535951
    106          1           0        7.341986   -1.437953   -1.447785
    107          1           0        7.619221    0.158776   -2.051085
    108          1           0        9.086855    1.009257   -0.039795
    109          1           0        8.758826   -0.664442    0.833535
    110          1           0       10.269344   -0.045321   -1.714668
    111          1           0        9.260242   -2.383940   -1.952246
    112          1           0       10.892684   -2.361859   -1.622232
    113          1           0        9.771857   -2.660759   -0.220209
    114          1           0       11.097266    0.909993    0.053643
    115          1           0       11.097900   -0.442927    1.130623
    116          1           0       12.353191   -1.463019   -1.259368
    117          1           0       12.512099    0.284875   -1.489829
    118          1           0       13.386726    0.818295    0.969046
    119          1           0       13.680635   -0.953434    1.176926
    120          1           0       15.146401    0.833488   -1.251657
    121          1           0       14.840466   -1.732092   -1.703199
    122          1           0       16.419073   -1.242340   -1.926577
    123          1           0       15.991958   -2.128349   -0.286553
    124          1           0       15.884689    1.624077    0.849158
    125          1           0       16.273205   -0.056117    1.580355
    126          1           0       18.017162   -0.068926   -0.259382
    127          1           0       17.439754    1.290984   -1.122787
    128          1           0       18.288141    2.271932    0.930975
    129          1           0       18.855508    0.970521    1.857124
    130          1           0       20.211054    0.222371    0.280117
    131          1           0       20.099861    3.001437   -1.205032
    132          1           0       21.512346    1.926626   -1.114327
    133          1           0       20.050858    1.334028   -1.812217
    134          1           0       21.553966    1.285001    2.377629
    135          1           0       22.169001    2.046650    0.874945
    136          1           0       20.772922    2.980753    1.541566
    137          1           0       -7.079182    1.714973    0.354166
    138          1           0       -7.617664   -0.428365   -0.050941
 ---------------------------------------------------------------------

 SCF Done:  E(RB3LYP) =  -2732.88801909     A.U. after   17 cycles

 Excitation energies and oscillator strengths:

 Excited State   1:      Singlet-A      2.1602 eV  573.95 nm  f=0.1253  <S**2>=0.000
     235 -> 237       -0.16490
     235 -> 238        0.33037
     236 -> 237        0.58771
     236 -> 238        0.12532
 This state for optimization and/or second-order correction.
 Total Energy, E(TD-HF/TD-KS) =  -2732.80863301
 Copying the excited state density for this state as the 1-particle RhoCI density.

 The electronic state is 1-A.
 Alpha  occ. eigenvalues --  -19.18352 -19.18169 -19.13434 -19.12800 -19.11823
 Alpha  occ. eigenvalues --  -14.36333 -14.36145 -14.31816 -14.29718 -10.31565
 Alpha  occ. eigenvalues --  -10.31248 -10.28478 -10.25654 -10.23826 -10.23693
 Alpha  occ. eigenvalues --  -10.23416 -10.23275 -10.22301 -10.22292 -10.22213
 Alpha  occ. eigenvalues --  -10.21903 -10.21770 -10.21632 -10.21455 -10.21347
 Alpha  occ. eigenvalues --  -10.21185 -10.21165 -10.21121 -10.21067 -10.20693
 Alpha  occ. eigenvalues --  -10.20688 -10.20685 -10.20629 -10.20582 -10.20563
 Alpha  occ. eigenvalues --  -10.20419 -10.20366 -10.20277 -10.20260 -10.20225
 Alpha  occ. eigenvalues --  -10.20184 -10.20166 -10.19869 -10.19816 -10.19802
 Alpha  occ. eigenvalues --  -10.19684 -10.19547 -10.19371 -10.19328 -10.18963
 Alpha  occ. eigenvalues --  -10.18963 -10.18832 -10.18815 -10.18493 -10.18282
 Alpha  occ. eigenvalues --  -10.18232 -10.18123 -10.18091 -10.17994 -10.17512
 Alpha  occ. eigenvalues --  -10.17484 -10.17322 -10.17272 -10.17175  -1.09682
 Alpha  occ. eigenvalues --   -1.08053  -1.02603  -1.01939  -1.00776  -1.00743
 Alpha  occ. eigenvalues --   -0.97211  -0.95583  -0.92894  -0.84413  -0.83733
 Alpha  occ. eigenvalues --   -0.82499  -0.82363  -0.81886  -0.81101  -0.80499
 Alpha  occ. eigenvalues --   -0.79881  -0.79017  -0.78562  -0.77865  -0.77422
 Alpha  occ. eigenvalues --   -0.76568  -0.76071  -0.75659  -0.75269  -0.73854
 Alpha  occ. eigenvalues --   -0.73405  -0.72854  -0.72079  -0.71876  -0.70710
 Alpha  occ. eigenvalues --   -0.70132  -0.69488  -0.69303  -0.68175  -0.67819
 Alpha  occ. eigenvalues --   -0.67621  -0.66971  -0.66670  -0.65639  -0.65361
 Alpha  occ. eigenvalues --   -0.63434  -0.62804  -0.62470  -0.61866  -0.61672
 Alpha  occ. eigenvalues --   -0.60716  -0.59850  -0.58043  -0.57629  -0.57467
 Alpha  occ. eigenvalues --   -0.57204  -0.56769  -0.56559  -0.56092  -0.55972
 Alpha  occ. eigenvalues --   -0.55144  -0.54757  -0.54198  -0.53686  -0.53286
 Alpha  occ. eigenvalues --   -0.52058  -0.51633  -0.50651  -0.50216  -0.49874
 Alpha  occ. eigenvalues --   -0.49582  -0.48982  -0.48859  -0.48711  -0.48372
 Alpha  occ. eigenvalues --   -0.47921  -0.47522  -0.47377  -0.47089  -0.46877
 Alpha  occ. eigenvalues --   -0.46703  -0.46496  -0.46288  -0.46104  -0.45906
 Alpha  occ. eigenvalues --   -0.45697  -0.45479  -0.45190  -0.44756  -0.44654
 Alpha  occ. eigenvalues --   -0.44414  -0.44334  -0.44139  -0.43929  -0.43636
 Alpha  occ. eigenvalues --   -0.43418  -0.43210  -0.42931  -0.42797  -0.42640
 Alpha  occ. eigenvalues --   -0.42357  -0.42220  -0.41813  -0.41426  -0.41252
 Alpha  occ. eigenvalues --   -0.41009  -0.40894  -0.40550  -0.40252  -0.40128
 Alpha  occ. eigenvalues --   -0.39930  -0.39913  -0.39691  -0.39539  -0.39345
 Alpha  occ. eigenvalues --   -0.39176  -0.39062  -0.38877  -0.38709  -0.38564
 Alpha  occ. eigenvalues --   -0.38351  -0.38196  -0.37985  -0.37901  -0.37648
 Alpha  occ. eigenvalues --   -0.37404  -0.37161  -0.36877  -0.36507  -0.36471
 Alpha  occ. eigenvalues --   -0.36273  -0.36242  -0.36031  -0.35921  -0.35799
 Alpha  occ. eigenvalues --   -0.35443  -0.35319  -0.35142  -0.35036  -0.34699
 Alpha  occ. eigenvalues --   -0.34621  -0.34376  -0.34181  -0.33708  -0.33521
 Alpha  occ. eigenvalues --   -0.33400  -0.33286  -0.33038  -0.32876  -0.32673
 Alpha  occ. eigenvalues --   -0.32300  -0.32295  -0.31737  -0.31523  -0.31233
 Alpha  occ. eigenvalues --   -0.31086  -0.30814  -0.30638  -0.30496  -0.29949
 Alpha  occ. eigenvalues --   -0.29058  -0.28775  -0.28565  -0.28550  -0.27666
 Alpha  occ. eigenvalues --   -0.27375  -0.26932  -0.26558  -0.25781  -0.25340
 Alpha  occ. eigenvalues --   -0.24847  -0.24495  -0.24171  -0.22881  -0.19748
 Alpha  occ. eigenvalues --   -0.18575
 Alpha virt. eigenvalues --   -0.09359  -0.07824  -0.04025  -0.01667  -0.01135
 Alpha virt. eigenvalues --    0.00404   0.01211   0.01427   0.02608   0.03296
 Alpha virt. eigenvalues --    0.03424   0.03664   0.04295   0.04366   0.04664

 Mulliken charges:
               1
     1  C    0.031813
     2  C   -0.114122
     3  C   -0.039373
     4  C   -0.071924
     5  N   -0.125325
     6  C   -0.114756
     7  C    0.176472
     8  C   -0.156733
     9  C    0.043272
    10  C   -0.053140
    11  C    0.084087
    12  C    0.063737
    13  C    0.187151
    14  O   -0.221719
    15  O   -0.342233
    16  N   -0.099672
    17  C    0.069110
    18  C   -0.168187
    19  C    0.092388
    20  C    0.205742
    21  C    0.125798
    22  C   -0.043722
    23  C   -0.101972
    24  N   -0.248403
    25  C   -0.007230
    26  C   -0.126945
    27  C   -0.008293
    28  C   -0.019010
    29  C    0.016802
    30  C   -0.056536
    31  C   -0.017744
    32  N    0.173206
    33  C    0.025576
    34  C   -0.183952
    35  C   -0.088540
    36  C    0.043511
    37  C    0.190107
    38  C    0.118613
    39  O   -0.171191
    40  C   -0.120379
    41  C    0.184612
    42  O   -0.224500
    43  O   -0.284385
    44  C    0.170802
    45  C    0.293924
    46  C    0.006292
    47  C   -0.134200
    48  C    0.032559
    49  C    0.252000
    50  C   -0.060753
    51  C    0.018253
    52  C   -0.135421
    53  C    0.100728
    54  C   -0.025579
    55  C   -0.006855
    56  C    0.011206
    57  C   -0.123022
    58  C    0.101314
    59  C   -0.086111
    60  C    0.160510
    61  C    0.062639
    62  C   -0.139493
    63  C    0.106416
    64  C   -0.011910
    65  H    0.017598
    66  H   -0.098139
    67  H   -0.000015
    68  H   -0.029665
    69  H    0.014380
    70  H    0.019155
    71  H    0.036157
    72  H    0.045185
    73  H    0.021658
    74  H    0.033198
    75  H   -0.019163
    76  H   -0.021303
    77  H    0.053489
    78  H   -0.011876
    79  H    0.014334
    80  H    0.016355
    81  H    0.034757
    82  H    0.029316
    83  H    0.046110
    84  H    0.021761
    85  H    0.037229
    86  H    0.021323
    87  H    0.029226
    88  H    0.042640
    89  H    0.018442
    90  H    0.018933
    91  H    0.034115
    92  H    0.020782
    93  H   -0.000369
    94  H    0.070465
    95  H    0.034587
    96  H    0.016515
    97  H    0.061884
    98  H    0.009628
    99  H   -0.043351
   100  H   -0.070066
   101  H    0.035657
   102  H    0.059022
   103  H    0.025329
   104  H   -0.041090
   105  H   -0.036949
   106  H    0.027728
   107  H   -0.004386
   108  H    0.010183
   109  H    0.017960
   110  H   -0.030052
   111  H   -0.000745
   112  H   -0.042848
   113  H    0.014224
   114  H   -0.023049
   115  H   -0.025087
   116  H    0.023733
   117  H   -0.003414
   118  H    0.035584
   119  H    0.024822
   120  H    0.020179
   121  H   -0.020308
   122  H    0.015842
   123  H    0.035736
   124  H    0.006406
   125  H   -0.005198
   126  H   -0.111048
   127  H   -0.004751
   128  H   -0.039330
   129  H   -0.003216
   130  H   -0.003523
   131  H    0.014517
   132  H   -0.013878
   133  H    0.004676
   134  H    0.030277
   135  H   -0.000720
   136  H    0.022917
   137  H    0.146695
   138  H    0.097524
 Sum of Mulliken charges =   0.00000

 Dipole moment (field-independent basis, Debye):
    X=              4.7568    Y=              3.8961    Z=              0.0780  Tot=              6.1492
 Quadrupole moment (field-independent basis, Debye-Ang):
   XX=           -349.4597   YY=           -382.2060   ZZ=           -396.6694
   XY=            -27.4609   XZ=             -6.4868   YZ=             -1.5621

 Normal termination of Gaussian 09 at Mon Aug  5 03:45:18 2019.
