 Gaussian 09, Revision D.01,
 Gaussian 09:  ES64L-G09RevD.01 24-Apr-2013

 --------------------------
 # td=(NStates=1) B3LYP/SVP
 --------------------------

 --
 TD
 --
 Symbolic Z-matrix:
 Charge =  0 Multiplicity = 1

                         Standard orientation:
 ---------------------------------------------------------------------
 Center     Atomic      Atomic             Coordinates (Angstroms)
 Number     Number       Type             X           Y           Z
 ---------------------------------------------------------------------
      1          6           0       -5.110840   -1.911117    0.439238
      2          6           0       -4.846006    2.692643    1.513315
      3          6           0       -9.278853    3.489527   -0.422364
      4          6           0       -9.720824   -1.387259   -0.969839
      5          7           0       -5.211311    0.451679    0.936881
      6          6           0       -4.538215   -0.698595    0.947259
      7          6           0       -3.112338   -0.537456    1.418624
      8          6           0       -3.135101    0.799922    2.033878
      9          6           0       -4.480038    1.433820    1.488402
     10          6           0       -3.159964    0.761111    3.543187
     11          6           0       -2.055363   -0.649091    0.253846
     12          6           0       -0.616640   -0.720748    0.732031
     13          6           0        0.362301   -1.178795   -0.387955
     14          8           0        0.013637   -1.527516   -1.484783
     15          8           0        1.593156   -0.949369    0.059013
     16          7           0       -7.060422    2.818837    0.441463
     17          6           0       -5.947231    3.344012    1.076056
     18          6           0       -6.237258    4.740965    1.104201
     19          6           0       -7.457000    4.950337    0.580278
     20          6           0       -8.054497    3.762546    0.200808
     21          6           0       -5.311126    5.801169    1.655364
     22          6           0       -8.129791    6.282820    0.472670
     23          6           0       -8.860739    6.738130   -0.569573
     24          7           0       -9.069081    1.059482   -0.541923
     25          6           0       -9.809152    2.106503   -0.633110
     26          6           0      -11.239963    1.881062   -1.028988
     27          6           0      -11.301666    0.600659   -1.308307
     28          6           0      -10.039504    0.007892   -0.962658
     29          6           0      -12.170691    2.974531   -1.252007
     30          6           0      -12.544318   -0.148203   -1.823289
     31          6           0      -12.378031   -0.441040   -3.351496
     32          7           0       -7.395977   -1.224145   -0.291558
     33          6           0       -8.551924   -1.937735   -0.672149
     34          6           0       -8.116281   -3.407692   -0.785444
     35          6           0       -6.817851   -3.427716   -0.407313
     36          6           0       -6.397453   -2.061470   -0.002261
     37          6           0       -8.987557   -4.448597   -1.101508
     38          6           0       -5.827576   -4.371403    0.055960
     39          8           0       -5.724143   -5.513619   -0.027548
     40          6           0       -4.493240   -3.465865    0.534383
     41          6           0       -3.785797   -3.883979    1.727835
     42          8           0       -4.074905   -3.446489    2.792083
     43          8           0       -3.069724   -4.901280    1.451444
     44          6           0       -2.543920   -5.538193    2.466002
     45          6           0        2.673166   -1.277906   -1.006293
     46          6           0        3.941021   -0.864751   -0.450202
     47          6           0        4.880047   -0.032192   -0.990265
     48          6           0        4.763860    0.602913   -2.495789
     49          6           0        6.269606    0.151021   -0.349543
     50          6           0        7.491558   -0.608253   -0.935638
     51          6           0        8.736173   -0.274016   -0.247174
     52          6           0       10.000800   -0.860972   -0.789106
     53          6           0       10.055082   -2.288133   -0.947114
     54          6           0       11.212323   -0.317720    0.016933
     55          6           0       12.675359   -0.484265   -0.687944
     56          6           0       13.760522    0.098562    0.277919
     57          6           0       15.168294   -0.117224   -0.327418
     58          6           0       15.520117   -1.613123   -0.512475
     59          6           0       16.195454    0.617963    0.469961
     60          6           0       17.664230    0.792157   -0.221875
     61          6           0       18.603178    1.647369    0.654814
     62          6           0       20.026552    1.757808   -0.061565
     63          6           0       19.957767    2.726202   -1.402202
     64          6           0       21.104724    2.318538    0.940767
     65          1           0       -4.337502    3.252585    2.210035
     66          1           0       -9.982971    4.181725   -0.646428
     67          1           0      -10.432893   -1.969613   -1.373674
     68          1           0       -2.677600   -1.212677    2.185572
     69          1           0       -2.328599    1.605992    1.571776
     70          1           0       -2.169911    0.461081    4.103971
     71          1           0       -3.365203    1.792134    4.100596
     72          1           0       -3.902504    0.057156    3.837291
     73          1           0       -2.187200   -1.598052   -0.185604
     74          1           0       -1.908641    0.345389   -0.593929
     75          1           0       -0.375857    0.243228    1.003970
     76          1           0       -0.261284   -1.234236    1.728722
     77          1           0       -4.460134    6.132138    0.857726
     78          1           0       -5.726363    6.671017    1.748008
     79          1           0       -4.840370    5.465531    2.600722
     80          1           0       -7.940207    7.232793    1.231163
     81          1           0       -9.110988    6.237513   -1.597840
     82          1           0       -9.141857    7.742702   -0.467694
     83          1           0      -12.365010    3.444375   -0.288689
     84          1           0      -11.901026    3.408911   -2.333039
     85          1           0      -13.115285    2.609661   -1.656868
     86          1           0      -12.886019   -1.096062   -1.261675
     87          1           0      -13.442871    0.571703   -1.772063
     88          1           0      -12.009468    0.399393   -3.885568
     89          1           0      -11.426289   -0.891585   -3.521330
     90          1           0      -13.188803   -1.008450   -3.741078
     91          1           0       -9.762144   -4.512196   -0.228682
     92          1           0       -9.353940   -4.540714   -2.155456
     93          1           0       -8.407014   -5.382554   -1.116424
     94          1           0       -3.993481   -3.644977   -0.460752
     95          1           0       -2.010585   -6.304815    2.200634
     96          1           0       -1.914212   -4.932142    3.196991
     97          1           0       -3.518503   -5.771636    3.091158
     98          1           0        2.588933   -2.345422   -1.137497
     99          1           0        2.446153   -0.925912   -1.989976
    100          1           0        4.100092   -1.428594    0.367480
    101          1           0        5.200739    1.695875   -2.399679
    102          1           0        5.486635    0.280348   -3.080303
    103          1           0        3.830793    0.505107   -2.924654
    104          1           0        6.433789    1.243294   -0.513916
    105          1           0        5.941226   -0.021666    0.680399
    106          1           0        7.294124   -1.568657   -0.870755
    107          1           0        7.567018   -0.535684   -1.961738
    108          1           0        8.926250    0.840586   -0.094478
    109          1           0        8.458648   -0.650952    0.778546
    110          1           0       10.022304   -0.508039   -1.762042
    111          1           0        9.371764   -2.596095   -1.596557
    112          1           0       10.938609   -2.589606   -1.611859
    113          1           0        9.878931   -2.816453    0.198738
    114          1           0       11.058663    0.837842    0.110317
    115          1           0       11.202010   -0.887037    0.931355
    116          1           0       12.795079   -1.521409   -0.772115
    117          1           0       12.777276   -0.111401   -1.881740
    118          1           0       13.487114    1.053002    0.389942
    119          1           0       13.597908   -0.366483    1.133992
    120          1           0       15.173093    0.368774   -1.331428
    121          1           0       14.545261   -2.197269   -0.808905
    122          1           0       16.571904   -1.718415   -0.977604
    123          1           0       15.590658   -2.062519    0.528125
    124          1           0       15.946792    1.651238    0.568264
    125          1           0       16.282887   -0.117839    1.264569
    126          1           0       18.189668   -0.137877   -0.280578
    127          1           0       17.419686    1.078826   -1.301201
    128          1           0       18.021742    2.556023    0.759995
    129          1           0       18.784914    1.007019    1.475824
    130          1           0       20.493241    0.815764   -0.243696
    131          1           0       19.663506    3.746872   -1.149164
    132          1           0       20.916733    2.405107   -2.056331
    133          1           0       18.891384    2.133242   -1.843926
    134          1           0       21.436206    1.583291    1.784679
    135          1           0       22.149312    2.708131    0.415637
    136          1           0       20.697114    3.321321    1.545189
    137          1           0       -7.105328    1.848202    0.330563
    138          1           0       -7.407034   -0.122698   -0.195954
 ---------------------------------------------------------------------

 SCF Done:  E(RB3LYP) =  -2732.95659999     A.U. after   17 cycles

 Excitation energies and oscillator strengths:

 Excited State   1:      Singlet-A      2.0288 eV  611.13 nm  f=0.1725  <S**2>=0.000
     235 -> 237        0.13734
     235 -> 238        0.27530
     236 -> 237        0.62161
     236 -> 238       -0.13447
 This state for optimization and/or second-order correction.
 Total Energy, E(TD-HF/TD-KS) =  -2732.88204386
 Copying the excited state density for this state as the 1-particle RhoCI density.

 The electronic state is 1-A.
 Alpha  occ. eigenvalues --  -19.18677 -19.17560 -19.13010 -19.12003 -19.11380
 Alpha  occ. eigenvalues --  -14.36880 -14.35397 -14.31446 -14.30142 -10.30733
 Alpha  occ. eigenvalues --  -10.30266 -10.28027 -10.24403 -10.23522 -10.22926
 Alpha  occ. eigenvalues --  -10.22892 -10.22789 -10.22776 -10.22714 -10.21872
 Alpha  occ. eigenvalues --  -10.21645 -10.21501 -10.21364 -10.21208 -10.20766
 Alpha  occ. eigenvalues --  -10.20741 -10.20515 -10.20334 -10.20323 -10.20308
 Alpha  occ. eigenvalues --  -10.20212 -10.20043 -10.19963 -10.19913 -10.19763
 Alpha  occ. eigenvalues --  -10.19592 -10.19422 -10.19346 -10.19304 -10.19271
 Alpha  occ. eigenvalues --  -10.19262 -10.19250 -10.19147 -10.19130 -10.19121
 Alpha  occ. eigenvalues --  -10.19105 -10.19065 -10.19035 -10.19005 -10.18634
 Alpha  occ. eigenvalues --  -10.18595 -10.18471 -10.18440 -10.18427 -10.18289
 Alpha  occ. eigenvalues --  -10.18257 -10.17776 -10.17615 -10.17601 -10.17414
 Alpha  occ. eigenvalues --  -10.17391 -10.17223 -10.17054 -10.16407  -1.15073
 Alpha  occ. eigenvalues --   -1.08342  -1.06972  -1.02694  -1.00164  -0.97793
 Alpha  occ. eigenvalues --   -0.97143  -0.94782  -0.92839  -0.83898  -0.82869
 Alpha  occ. eigenvalues --   -0.82008  -0.81952  -0.81602  -0.81494  -0.81008
 Alpha  occ. eigenvalues --   -0.80467  -0.80016  -0.79029  -0.78987  -0.78070
 Alpha  occ. eigenvalues --   -0.77724  -0.76284  -0.75816  -0.74832  -0.74794
 Alpha  occ. eigenvalues --   -0.74308  -0.73514  -0.72689  -0.71536  -0.71380
 Alpha  occ. eigenvalues --   -0.70143  -0.69686  -0.69276  -0.68417  -0.67686
 Alpha  occ. eigenvalues --   -0.67138  -0.66428  -0.65381  -0.65146  -0.64676
 Alpha  occ. eigenvalues --   -0.63610  -0.62705  -0.62259  -0.62056  -0.61399
 Alpha  occ. eigenvalues --   -0.60769  -0.59420  -0.58568  -0.58071  -0.57703
 Alpha  occ. eigenvalues --   -0.57129  -0.56744  -0.56237  -0.55729  -0.55364
 Alpha  occ. eigenvalues --   -0.55305  -0.55006  -0.54655  -0.53791  -0.53267
 Alpha  occ. eigenvalues --   -0.52695  -0.52447  -0.51654  -0.51239  -0.50728
 Alpha  occ. eigenvalues --   -0.50016  -0.49699  -0.49573  -0.49154  -0.49069
 Alpha  occ. eigenvalues --   -0.48961  -0.48636  -0.47788  -0.47730  -0.47296
 Alpha  occ. eigenvalues --   -0.46963  -0.46532  -0.46302  -0.45965  -0.45890
 Alpha  occ. eigenvalues --   -0.45868  -0.45694  -0.45515  -0.45469  -0.45023
 Alpha  occ. eigenvalues --   -0.44763  -0.44610  -0.44108  -0.43976  -0.43794
 Alpha  occ. eigenvalues --   -0.43706  -0.43477  -0.43259  -0.43161  -0.42829
 Alpha  occ. eigenvalues --   -0.42505  -0.42352  -0.42077  -0.41893  -0.41460
 Alpha  occ. eigenvalues --   -0.41421  -0.41206  -0.40895  -0.40551  -0.40375
 Alpha  occ. eigenvalues --   -0.40034  -0.39943  -0.39775  -0.39561  -0.39213
 Alpha  occ. eigenvalues --   -0.39130  -0.38904  -0.38610  -0.38435  -0.38391
 Alpha  occ. eigenvalues --   -0.38227  -0.38105  -0.37743  -0.37669  -0.37478
 Alpha  occ. eigenvalues --   -0.37011  -0.36894  -0.36851  -0.36583  -0.36499
 Alpha  occ. eigenvalues --   -0.36383  -0.36127  -0.36102  -0.35651  -0.35241
 Alpha  occ. eigenvalues --   -0.35212  -0.34799  -0.34651  -0.34565  -0.34370
 Alpha  occ. eigenvalues --   -0.34305  -0.34174  -0.33770  -0.33507  -0.33461
 Alpha  occ. eigenvalues --   -0.32995  -0.32820  -0.32601  -0.32447  -0.32370
 Alpha  occ. eigenvalues --   -0.32332  -0.32236  -0.31975  -0.31744  -0.31439
 Alpha  occ. eigenvalues --   -0.31143  -0.30801  -0.30608  -0.30183  -0.29980
 Alpha  occ. eigenvalues --   -0.29952  -0.29095  -0.28225  -0.28144  -0.27826
 Alpha  occ. eigenvalues --   -0.27654  -0.27154  -0.26861  -0.26454  -0.26068
 Alpha  occ. eigenvalues --   -0.25197  -0.24539  -0.23815  -0.23165  -0.19737
 Alpha  occ. eigenvalues --   -0.17840
 Alpha virt. eigenvalues --   -0.09356  -0.07526  -0.03631  -0.01544  -0.00723
 Alpha virt. eigenvalues --    0.00212   0.01325   0.01700   0.02639   0.03697
 Alpha virt. eigenvalues --    0.04062   0.04259   0.04435   0.04829   0.04984

 Mulliken charges:
               1
     1  C    0.022528
     2  C   -0.008469
     3  C   -0.017768
     4  C   -0.064816
     5  N   -0.160724
     6  C   -0.042708
     7  C   -0.010179
     8  C   -0.051403
     9  C   -0.048231
    10  C    0.030211
    11  C    0.054755
    12  C   -0.012183
    13  C    0.175989
    14  O   -0.232072
    15  O   -0.330763
    16  N   -0.058717
    17  C    0.094212
    18  C   -0.135846
    19  C    0.077355
    20  C    0.138945
    21  C    0.172460
    22  C   -0.109918
    23  C   -0.046440
    24  N   -0.239940
    25  C   -0.025388
    26  C   -0.176012
    27  C   -0.059929
    28  C    0.044000
    29  C    0.135434
    30  C    0.013098
    31  C    0.071889
    32  N   -0.087731
    33  C    0.135834
    34  C   -0.111184
    35  C   -0.011448
    36  C    0.052201
    37  C    0.065285
    38  C    0.052244
    39  O   -0.098317
    40  C   -0.109363
    41  C    0.176364
    42  O   -0.216247
    43  O   -0.169666
    44  C    0.197398
    45  C    0.293642
    46  C   -0.040592
    47  C   -0.147470
    48  C    0.122722
    49  C    0.046428
    50  C    0.183199
    51  C    0.003790
    52  C   -0.007407
    53  C    0.066133
    54  C    0.013800
    55  C   -0.049166
    56  C    0.183008
    57  C   -0.079269
    58  C   -0.011202
    59  C    0.090622
    60  C   -0.073839
    61  C    0.109041
    62  C   -0.083006
    63  C   -0.052593
    64  C   -0.084752
    65  H   -0.065724
    66  H   -0.071032
    67  H   -0.079015
    68  H    0.014367
    69  H    0.022856
    70  H    0.023979
    71  H    0.020526
    72  H    0.024005
    73  H    0.004982
    74  H    0.041865
    75  H   -0.007438
    76  H    0.027319
    77  H    0.028509
    78  H   -0.061460
    79  H    0.028420
    80  H    0.040876
    81  H    0.048486
    82  H    0.006611
    83  H    0.043066
    84  H    0.041138
    85  H   -0.024841
    86  H    0.022295
    87  H    0.007356
    88  H   -0.017116
    89  H   -0.021052
    90  H    0.017494
    91  H    0.060418
    92  H    0.038057
    93  H    0.016431
    94  H    0.055885
    95  H   -0.022183
    96  H    0.015379
    97  H    0.021227
    98  H    0.010669
    99  H    0.007593
   100  H   -0.048054
   101  H    0.009187
   102  H   -0.021301
   103  H    0.008585
   104  H    0.000000
   105  H    0.009697
   106  H   -0.055764
   107  H   -0.051766
   108  H   -0.003964
   109  H   -0.019492
   110  H   -0.051727
   111  H   -0.044348
   112  H    0.008189
   113  H    0.022391
   114  H    0.010715
   115  H   -0.006770
   116  H   -0.017243
   117  H    0.012353
   118  H   -0.049228
   119  H   -0.057181
   120  H   -0.023405
   121  H    0.023159
   122  H    0.041249
   123  H   -0.008318
   124  H   -0.013338
   125  H   -0.015094
   126  H   -0.021117
   127  H    0.020694
   128  H    0.001527
   129  H   -0.009605
   130  H   -0.003038
   131  H    0.036233
   132  H    0.051694
   133  H    0.020169
   134  H    0.023892
   135  H    0.024428
   136  H    0.015711
   137  H    0.101063
   138  H    0.202041
 Sum of Mulliken charges =   0.00000

 Dipole moment (field-independent basis, Debye):
    X=              2.5478    Y=              1.8540    Z=             -0.6457  Tot=              3.2164
 Quadrupole moment (field-independent basis, Debye-Ang):
   XX=           -359.1533   YY=           -380.0058   ZZ=           -393.0469
   XY=            -23.9442   XZ=             11.9470   YZ=              1.8300

 Normal termination of Gaussian 09 at Sun Aug  4 02:44:32 2019.
