 Gaussian 09, Revision D.01,
 Gaussian 09:  ES64L-G09RevD.01 24-Apr-2013

 --------------------------
 # td=(NStates=1) B3LYP/SVP
 --------------------------

 --
 TD
 --
 Symbolic Z-matrix:
 Charge =  0 Multiplicity = 1

                         Standard orientation:
 ---------------------------------------------------------------------
 Center     Atomic      Atomic             Coordinates (Angstroms)
 Number     Number       Type             X           Y           Z
 ---------------------------------------------------------------------
      1          6           0       -5.034858   -1.845674    0.350149
      2          6           0       -4.978370    2.817977    1.369733
      3          6           0       -9.520604    3.149064   -0.297200
      4          6           0       -9.911872   -1.689942   -0.939696
      5          7           0       -5.187735    0.433747    0.709755
      6          6           0       -4.438407   -0.652737    0.695178
      7          6           0       -2.990562   -0.438501    1.219458
      8          6           0       -3.096186    1.050807    1.766749
      9          6           0       -4.510777    1.558903    1.184398
     10          6           0       -3.056854    1.212388    3.182453
     11          6           0       -2.048188   -0.524111    0.093710
     12          6           0       -0.520914   -0.706073    0.506503
     13          6           0        0.491742   -0.757874   -0.668135
     14          8           0        0.117142   -1.116987   -1.782918
     15          8           0        1.648285   -0.750783   -0.250269
     16          7           0       -7.102747    2.729511    0.365392
     17          6           0       -6.209457    3.346995    1.033167
     18          6           0       -6.563308    4.802920    1.120817
     19          6           0       -7.804683    4.874252    0.509578
     20          6           0       -8.269459    3.632691    0.178840
     21          6           0       -5.575989    5.909950    1.582284
     22          6           0       -8.497644    6.116413    0.304317
     23          6           0       -9.287749    6.479512   -0.689253
     24          7           0       -9.256189    0.650814   -0.478405
     25          6           0       -9.966688    1.821352   -0.573531
     26          6           0      -11.291825    1.548214   -0.897008
     27          6           0      -11.523458    0.192365   -1.110060
     28          6           0      -10.135480   -0.344864   -0.816580
     29          6           0      -12.394355    2.669127   -1.053371
     30          6           0      -12.714267   -0.570994   -1.604185
     31          6           0      -12.685287   -0.521238   -3.058094
     32          7           0       -7.549674   -1.374817   -0.198888
     33          6           0       -8.601142   -2.208537   -0.580213
     34          6           0       -8.096943   -3.645898   -0.533642
     35          6           0       -6.760099   -3.410167   -0.177843
     36          6           0       -6.408988   -2.077104    0.003899
     37          6           0       -8.706669   -4.921427   -0.908811
     38          6           0       -5.549699   -4.273763    0.070381
     39          8           0       -5.328494   -5.435342    0.002750
     40          6           0       -4.357925   -3.240283    0.407524
     41          6           0       -3.842315   -3.613242    1.725850
     42          8           0       -4.005865   -3.052288    2.788791
     43          8           0       -2.926250   -4.613849    1.642387
     44          6           0       -2.543247   -5.162170    2.969927
     45          6           0        2.715929   -0.857143   -1.196210
     46          6           0        4.080367   -0.546633   -0.607205
     47          6           0        5.099306    0.205524   -1.151004
     48          6           0        5.021029    1.058191   -2.351893
     49          6           0        6.360431    0.343585   -0.220548
     50          6           0        7.598874   -0.123596   -1.042433
     51          6           0        8.782097   -0.147511   -0.052096
     52          6           0       10.028413   -0.679323   -0.757972
     53          6           0       10.002876   -2.209594   -1.144142
     54          6           0       11.271340   -0.366231    0.176365
     55          6           0       12.737023   -0.748014   -0.551763
     56          6           0       13.889262   -0.223349    0.345715
     57          6           0       15.326225   -0.282511   -0.317537
     58          6           0       15.722756   -1.770267   -0.519336
     59          6           0       16.375371    0.530827    0.451077
     60          6           0       17.610348    0.699147   -0.258436
     61          6           0       18.734342    1.405587    0.671224
     62          6           0       20.051609    1.503514    0.020781
     63          6           0       20.178989    2.360192   -1.250341
     64          6           0       20.969240    2.244538    1.190913
     65          1           0       -4.345837    3.523810    1.837563
     66          1           0      -10.110610    4.032979   -0.671310
     67          1           0      -10.744220   -2.173699   -1.235608
     68          1           0       -2.679790   -1.207508    1.927796
     69          1           0       -2.274945    1.653710    1.365088
     70          1           0       -2.188448    0.904665    3.541755
     71          1           0       -3.161854    2.253402    3.615155
     72          1           0       -3.754486    0.384075    3.696875
     73          1           0       -2.335109   -1.350665   -0.437100
     74          1           0       -1.980220    0.485275   -0.429135
     75          1           0       -0.322482    0.201336    1.151059
     76          1           0       -0.113311   -1.703019    1.181498
     77          1           0       -4.868756    6.023907    0.669500
     78          1           0       -6.076264    6.944792    1.508280
     79          1           0       -5.152028    5.811549    2.701590
     80          1           0       -8.014545    6.911980    1.122073
     81          1           0       -9.575305    5.643701   -1.372688
     82          1           0       -9.783100    7.415182   -0.775445
     83          1           0      -12.546491    3.187845   -0.237085
     84          1           0      -11.990369    3.349293   -1.905936
     85          1           0      -13.244983    2.466291   -1.382590
     86          1           0      -12.671608   -1.670997   -1.150903
     87          1           0      -13.575487   -0.080964   -1.236575
     88          1           0      -12.720632    0.581631   -3.667537
     89          1           0      -11.762685   -1.040001   -3.592816
     90          1           0      -13.677331   -0.982070   -3.399421
     91          1           0       -9.586964   -5.198148   -0.187438
     92          1           0       -9.024460   -5.044613   -1.997253
     93          1           0       -7.951258   -5.850029   -0.601485
     94          1           0       -3.527332   -3.539885   -0.403865
     95          1           0       -1.940652   -6.099848    2.876723
     96          1           0       -2.110583   -4.486882    3.526890
     97          1           0       -3.222848   -5.711909    3.636990
     98          1           0        2.715315   -1.779944   -1.583575
     99          1           0        2.477473   -0.185218   -2.150145
    100          1           0        4.204304   -1.046361    0.267910
    101          1           0        5.245252    2.270606   -2.100134
    102          1           0        5.524006    0.924561   -3.266487
    103          1           0        4.007458    1.112148   -2.891955
    104          1           0        6.341808    1.320804    0.029401
    105          1           0        6.241070   -0.254113    0.780209
    106          1           0        7.579370   -1.308229   -1.451730
    107          1           0        8.014949    0.406599   -1.802834
    108          1           0        9.049129    0.764194    0.164166
    109          1           0        8.615243   -0.814057    0.838822
    110          1           0       10.081974   -0.200811   -1.741773
    111          1           0        9.084498   -2.233850   -1.844387
    112          1           0       10.912083   -2.224342   -1.798855
    113          1           0       10.107468   -2.702000   -0.148746
    114          1           0       11.241634    0.730956    0.643228
    115          1           0       11.016742   -0.922415    1.013973
    116          1           0       12.717492   -1.685779   -0.837593
    117          1           0       12.702957   -0.110377   -1.638585
    118          1           0       13.598674    0.734462    0.576249
    119          1           0       13.736238   -0.691486    1.449458
    120          1           0       15.304345    0.127499   -1.355043
    121          1           0       15.240455   -2.380067   -1.213981
    122          1           0       16.714110   -1.795123   -1.271453
    123          1           0       15.989816   -2.358346    0.427988
    124          1           0       15.968206    1.532338    0.524059
    125          1           0       16.494502   -0.088249    1.346220
    126          1           0       18.117398   -0.214484   -0.542671
    127          1           0       17.623905    1.491810   -1.204215
    128          1           0       18.393728    2.484443    1.001203
    129          1           0       18.821411    1.027293    1.817524
    130          1           0       20.568166    0.536699   -0.187828
    131          1           0       19.761025    3.494236   -0.913417
    132          1           0       21.299159    2.309351   -1.500199
    133          1           0       19.567766    1.917360   -2.203929
    134          1           0       21.051907    1.884478    2.191851
    135          1           0       21.933551    2.513215    0.701563
    136          1           0       20.627193    3.199245    1.391502
    137          1           0       -7.069177    1.725339    0.338228
    138          1           0       -7.871545   -0.319953   -0.334289
 ---------------------------------------------------------------------

 SCF Done:  E(RB3LYP) =  -2732.96217422     A.U. after   16 cycles

 Excitation energies and oscillator strengths:

 Excited State   1:      Singlet-A      2.0742 eV  597.74 nm  f=0.1984  <S**2>=0.000
     235 -> 237       -0.10134
     235 -> 238        0.28808
     236 -> 237        0.63260
 This state for optimization and/or second-order correction.
 Total Energy, E(TD-HF/TD-KS) =  -2732.88594866
 Copying the excited state density for this state as the 1-particle RhoCI density.

 The electronic state is 1-A.
 Alpha  occ. eigenvalues --  -19.19014 -19.16993 -19.12736 -19.11334 -19.09990
 Alpha  occ. eigenvalues --  -14.36492 -14.36089 -14.31552 -14.30364 -10.30591
 Alpha  occ. eigenvalues --  -10.30229 -10.27977 -10.24906 -10.24010 -10.23785
 Alpha  occ. eigenvalues --  -10.23290 -10.23238 -10.22966 -10.22735 -10.22575
 Alpha  occ. eigenvalues --  -10.22208 -10.21651 -10.21587 -10.21394 -10.21376
 Alpha  occ. eigenvalues --  -10.21302 -10.21217 -10.21184 -10.20962 -10.20952
 Alpha  occ. eigenvalues --  -10.20943 -10.20942 -10.20897 -10.20720 -10.20352
 Alpha  occ. eigenvalues --  -10.20305 -10.20100 -10.19903 -10.19672 -10.19644
 Alpha  occ. eigenvalues --  -10.19582 -10.19476 -10.19463 -10.19406 -10.19293
 Alpha  occ. eigenvalues --  -10.19265 -10.19121 -10.19001 -10.18918 -10.18856
 Alpha  occ. eigenvalues --  -10.18799 -10.18760 -10.18715 -10.18713 -10.18568
 Alpha  occ. eigenvalues --  -10.18418 -10.18360 -10.18264 -10.18225 -10.17547
 Alpha  occ. eigenvalues --  -10.17345 -10.16987 -10.16797 -10.16742  -1.13718
 Alpha  occ. eigenvalues --   -1.08139  -1.04565  -0.99024  -0.98816  -0.98659
 Alpha  occ. eigenvalues --   -0.97142  -0.93408  -0.93042  -0.83985  -0.83383
 Alpha  occ. eigenvalues --   -0.82563  -0.81720  -0.81045  -0.80657  -0.80594
 Alpha  occ. eigenvalues --   -0.79853  -0.79424  -0.79191  -0.78700  -0.77789
 Alpha  occ. eigenvalues --   -0.76829  -0.75966  -0.75630  -0.75406  -0.74450
 Alpha  occ. eigenvalues --   -0.73625  -0.73443  -0.72078  -0.70964  -0.70515
 Alpha  occ. eigenvalues --   -0.69829  -0.69565  -0.68774  -0.68453  -0.67675
 Alpha  occ. eigenvalues --   -0.66918  -0.66559  -0.66336  -0.65556  -0.65037
 Alpha  occ. eigenvalues --   -0.64348  -0.62616  -0.62238  -0.62204  -0.60956
 Alpha  occ. eigenvalues --   -0.60592  -0.59222  -0.58207  -0.58028  -0.57779
 Alpha  occ. eigenvalues --   -0.57418  -0.56675  -0.56092  -0.55365  -0.55220
 Alpha  occ. eigenvalues --   -0.55000  -0.54178  -0.53989  -0.53712  -0.53324
 Alpha  occ. eigenvalues --   -0.52756  -0.51684  -0.51285  -0.51067  -0.50533
 Alpha  occ. eigenvalues --   -0.49722  -0.49150  -0.48940  -0.48793  -0.48126
 Alpha  occ. eigenvalues --   -0.47728  -0.47666  -0.47396  -0.47325  -0.46726
 Alpha  occ. eigenvalues --   -0.46452  -0.46367  -0.46079  -0.45653  -0.45427
 Alpha  occ. eigenvalues --   -0.45272  -0.45148  -0.44841  -0.44574  -0.44473
 Alpha  occ. eigenvalues --   -0.44195  -0.44077  -0.44011  -0.43958  -0.43818
 Alpha  occ. eigenvalues --   -0.43629  -0.43503  -0.42983  -0.42656  -0.42400
 Alpha  occ. eigenvalues --   -0.42153  -0.42053  -0.41862  -0.41461  -0.41356
 Alpha  occ. eigenvalues --   -0.41173  -0.40965  -0.40774  -0.40629  -0.40470
 Alpha  occ. eigenvalues --   -0.40288  -0.40123  -0.39564  -0.39380  -0.39341
 Alpha  occ. eigenvalues --   -0.39112  -0.39035  -0.39016  -0.38647  -0.38429
 Alpha  occ. eigenvalues --   -0.38134  -0.38007  -0.37665  -0.37543  -0.37283
 Alpha  occ. eigenvalues --   -0.37210  -0.36859  -0.36780  -0.36613  -0.36421
 Alpha  occ. eigenvalues --   -0.36332  -0.36051  -0.35909  -0.35673  -0.35346
 Alpha  occ. eigenvalues --   -0.34998  -0.34857  -0.34596  -0.34520  -0.34437
 Alpha  occ. eigenvalues --   -0.34069  -0.34014  -0.33970  -0.33774  -0.33324
 Alpha  occ. eigenvalues --   -0.33248  -0.32977  -0.32853  -0.32677  -0.32371
 Alpha  occ. eigenvalues --   -0.32344  -0.32101  -0.31890  -0.31349  -0.31296
 Alpha  occ. eigenvalues --   -0.30938  -0.30792  -0.30522  -0.30151  -0.29971
 Alpha  occ. eigenvalues --   -0.29818  -0.28724  -0.27576  -0.27244  -0.27156
 Alpha  occ. eigenvalues --   -0.27016  -0.26765  -0.25958  -0.25626  -0.25379
 Alpha  occ. eigenvalues --   -0.24653  -0.24549  -0.24466  -0.22536  -0.19984
 Alpha  occ. eigenvalues --   -0.18689
 Alpha virt. eigenvalues --   -0.10205  -0.07485  -0.03620  -0.01802  -0.00993
 Alpha virt. eigenvalues --   -0.00313   0.00785   0.00907   0.02545   0.03893
 Alpha virt. eigenvalues --    0.03941   0.04152   0.04467   0.04896   0.05216

 Mulliken charges:
               1
     1  C    0.042945
     2  C   -0.046668
     3  C   -0.110779
     4  C    0.010978
     5  N   -0.179245
     6  C   -0.107552
     7  C   -0.015327
     8  C   -0.031033
     9  C    0.043291
    10  C    0.112546
    11  C    0.121210
    12  C   -0.078411
    13  C    0.141943
    14  O   -0.281427
    15  O   -0.200578
    16  N   -0.031854
    17  C    0.035375
    18  C   -0.147126
    19  C    0.065910
    20  C    0.065011
    21  C    0.029023
    22  C   -0.083021
    23  C   -0.017860
    24  N   -0.264366
    25  C    0.133993
    26  C   -0.178340
    27  C   -0.125928
    28  C    0.029609
    29  C    0.260667
    30  C    0.130925
    31  C   -0.078444
    32  N   -0.095648
    33  C    0.058012
    34  C   -0.076001
    35  C   -0.057197
    36  C    0.160032
    37  C   -0.026277
    38  C    0.069220
    39  O   -0.125379
    40  C   -0.124084
    41  C    0.220384
    42  O   -0.237775
    43  O   -0.320007
    44  C    0.245261
    45  C    0.280222
    46  C   -0.072609
    47  C   -0.063155
    48  C    0.005996
    49  C    0.122412
    50  C   -0.010734
    51  C    0.115754
    52  C   -0.166881
    53  C    0.019742
    54  C    0.003662
    55  C    0.027082
    56  C    0.090249
    57  C   -0.057574
    58  C   -0.018410
    59  C    0.139940
    60  C   -0.001885
    61  C   -0.048995
    62  C   -0.077035
    63  C   -0.067669
    64  C    0.050855
    65  H   -0.051918
    66  H   -0.013914
    67  H   -0.091432
    68  H    0.012228
    69  H   -0.019257
    70  H   -0.043969
    71  H    0.013495
    72  H    0.029208
    73  H   -0.014644
    74  H    0.018051
    75  H    0.013452
    76  H    0.054859
    77  H    0.055214
    78  H    0.016294
    79  H    0.072611
    80  H    0.026488
    81  H    0.037394
    82  H    0.022777
    83  H   -0.023986
    84  H    0.010313
    85  H   -0.082428
    86  H    0.033180
    87  H   -0.008144
    88  H    0.036888
    89  H    0.037495
    90  H    0.017320
    91  H    0.038911
    92  H    0.058383
    93  H    0.061995
    94  H    0.099267
    95  H    0.016935
    96  H   -0.010491
    97  H    0.016677
    98  H   -0.007676
    99  H    0.032181
   100  H   -0.038919
   101  H    0.032894
   102  H    0.018199
   103  H    0.007801
   104  H   -0.016711
   105  H    0.019906
   106  H    0.023671
   107  H   -0.028206
   108  H   -0.056451
   109  H   -0.005898
   110  H   -0.024986
   111  H    0.023790
   112  H    0.021504
   113  H    0.026303
   114  H    0.004817
   115  H   -0.028394
   116  H   -0.028025
   117  H    0.005397
   118  H   -0.041784
   119  H    0.001415
   120  H   -0.017056
   121  H   -0.002205
   122  H   -0.004535
   123  H    0.025025
   124  H   -0.011197
   125  H   -0.005192
   126  H   -0.004005
   127  H    0.020145
   128  H   -0.011545
   129  H    0.004025
   130  H    0.010119
   131  H    0.034205
   132  H    0.033562
   133  H    0.044262
   134  H    0.002995
   135  H   -0.010834
   136  H   -0.031938
   137  H    0.140166
   138  H    0.196945
 Sum of Mulliken charges =   0.00000

 Dipole moment (field-independent basis, Debye):
    X=              1.9669    Y=              4.6093    Z=              0.4509  Tot=              5.0317
 Quadrupole moment (field-independent basis, Debye-Ang):
   XX=           -335.8134   YY=           -376.7918   ZZ=           -392.7786
   XY=            -16.6286   XZ=              9.9143   YZ=             -2.5276

 Normal termination of Gaussian 09 at Sat Jul 27 19:52:52 2019.
