 Gaussian 09, Revision D.01,
 Gaussian 09:  ES64L-G09RevD.01 24-Apr-2013

 --------------------------
 # td=(NStates=1) B3LYP/SVP
 --------------------------

 --
 TD
 --
 Symbolic Z-matrix:
 Charge =  0 Multiplicity = 1

                         Standard orientation:
 ---------------------------------------------------------------------
 Center     Atomic      Atomic             Coordinates (Angstroms)
 Number     Number       Type             X           Y           Z
 ---------------------------------------------------------------------
      1          6           0       -5.095602   -1.867251    0.477905
      2          6           0       -4.859631    2.813203    1.406621
      3          6           0       -9.394681    3.358907   -0.276788
      4          6           0       -9.975280   -1.576921   -0.875409
      5          7           0       -5.190089    0.497161    0.749155
      6          6           0       -4.572346   -0.713554    0.815631
      7          6           0       -3.062225   -0.507515    1.272707
      8          6           0       -3.157609    0.909013    1.845091
      9          6           0       -4.456985    1.478357    1.345474
     10          6           0       -3.079563    0.880526    3.360494
     11          6           0       -2.039226   -0.651369    0.132319
     12          6           0       -0.635272   -0.605134    0.547967
     13          6           0        0.350816   -0.816472   -0.634667
     14          8           0        0.010116   -1.194173   -1.753480
     15          8           0        1.660878   -0.668032   -0.181412
     16          7           0       -7.136710    2.660748    0.443262
     17          6           0       -6.043923    3.275467    0.995873
     18          6           0       -6.493407    4.761121    1.161491
     19          6           0       -7.703501    4.905849    0.600120
     20          6           0       -8.144383    3.598070    0.266914
     21          6           0       -5.531773    5.890084    1.736718
     22          6           0       -8.393378    6.226943    0.428795
     23          6           0       -9.174905    6.621909   -0.572917
     24          7           0       -9.308141    0.836200   -0.535807
     25          6           0       -9.978229    2.042178   -0.651147
     26          6           0      -11.350260    1.749285   -1.108545
     27          6           0      -11.452530    0.475040   -1.303719
     28          6           0      -10.129020   -0.168172   -0.918655
     29          6           0      -12.298053    2.907504   -1.293147
     30          6           0      -12.648110   -0.334946   -1.723555
     31          6           0      -12.616308   -0.816861   -3.244767
     32          7           0       -7.480998   -1.273087   -0.175073
     33          6           0       -8.621154   -2.113579   -0.572215
     34          6           0       -8.160325   -3.480448   -0.483542
     35          6           0       -6.854687   -3.443601   -0.156696
     36          6           0       -6.508543   -2.149609   -0.004116
     37          6           0       -9.035139   -4.737859   -0.726704
     38          6           0       -5.617196   -4.295141    0.003878
     39          8           0       -5.492006   -5.479190   -0.056619
     40          6           0       -4.505852   -3.315552    0.419266
     41          6           0       -3.923130   -3.846530    1.679681
     42          8           0       -4.214462   -3.493187    2.817683
     43          8           0       -3.026913   -4.939795    1.545804
     44          6           0       -2.346024   -5.329652    2.669673
     45          6           0        2.638210   -0.743387   -1.096868
     46          6           0        3.869129   -0.376107   -0.538141
     47          6           0        4.925180    0.287555   -1.029800
     48          6           0        5.061070    0.869998   -2.442037
     49          6           0        6.265478    0.412829   -0.389308
     50          6           0        7.460900   -0.310857   -0.887989
     51          6           0        8.772895   -0.048753   -0.144854
     52          6           0       10.067359   -0.848851   -0.824967
     53          6           0        9.915357   -2.390755   -0.673293
     54          6           0       11.388820   -0.298370   -0.077984
     55          6           0       12.778869   -0.638963   -0.760179
     56          6           0       13.864059    0.009935    0.124435
     57          6           0       15.308254   -0.101397   -0.514578
     58          6           0       15.705027   -1.556259   -0.688876
     59          6           0       16.404541    0.713467    0.395938
     60          6           0       17.861221    0.678322   -0.127733
     61          6           0       18.763297    1.504586    0.699068
     62          6           0       20.306272    1.494107    0.246472
     63          6           0       20.424571    2.013470   -1.197846
     64          6           0       21.222966    2.278416    1.140660
     65          1           0       -4.214040    3.388587    1.979981
     66          1           0      -10.095219    4.158693   -0.498948
     67          1           0      -10.670035   -2.173240   -1.318650
     68          1           0       -3.039880   -1.109334    2.031618
     69          1           0       -2.258749    1.660628    1.352547
     70          1           0       -1.916757    0.437987    3.519333
     71          1           0       -3.250624    1.824016    3.672139
     72          1           0       -3.801725    0.037999    3.506312
     73          1           0       -2.268104   -1.613907   -0.422376
     74          1           0       -2.232815    0.054150   -0.654131
     75          1           0       -0.430327    0.219970    1.199242
     76          1           0       -0.353810   -1.400790    1.052584
     77          1           0       -4.779791    5.845144    1.049844
     78          1           0       -6.174196    6.680144    1.588690
     79          1           0       -5.120784    5.698214    2.760492
     80          1           0       -8.119743    6.941600    1.185880
     81          1           0       -9.389309    6.065019   -1.572410
     82          1           0       -9.817378    7.611899   -0.552137
     83          1           0      -12.072001    3.547553   -0.374886
     84          1           0      -12.140236    3.436991   -2.169280
     85          1           0      -13.368479    2.575857   -0.994369
     86          1           0      -12.774169   -1.171632   -0.922648
     87          1           0      -13.558325    0.256569   -1.584601
     88          1           0      -12.455677    0.096310   -4.071812
     89          1           0      -11.987082   -1.739793   -3.407851
     90          1           0      -13.546981   -1.154803   -3.493718
     91          1           0       -9.709066   -4.871921    0.168451
     92          1           0       -9.499325   -4.604456   -1.757331
     93          1           0       -8.337221   -5.482980   -0.981786
     94          1           0       -3.685070   -3.320329   -0.113269
     95          1           0       -1.566237   -6.100173    2.421658
     96          1           0       -1.902505   -4.543721    3.275333
     97          1           0       -3.107461   -5.891928    3.216819
     98          1           0        2.882374   -1.841851   -1.691003
     99          1           0        2.499710   -0.054260   -2.172268
    100          1           0        4.015628   -0.615620    0.583555
    101          1           0        5.305956    1.811428   -2.375574
    102          1           0        5.985744    0.458470   -3.129488
    103          1           0        4.009563    0.680799   -2.869879
    104          1           0        6.476017    1.484608   -0.075241
    105          1           0        6.272754    0.058463    0.766398
    106          1           0        7.376330   -1.402294   -0.996270
    107          1           0        7.726737    0.061152   -2.045244
    108          1           0        8.920197    1.065280   -0.072350
    109          1           0        8.731935   -0.363447    0.899313
    110          1           0        9.950212   -0.462066   -1.769299
    111          1           0        8.764030   -2.853032   -0.788665
    112          1           0       10.734232   -2.772126   -1.357467
    113          1           0       10.218024   -2.570594    0.431510
    114          1           0       11.355366    0.794460   -0.080816
    115          1           0       11.214922   -0.746524    0.841134
    116          1           0       13.029501   -1.676048   -0.794474
    117          1           0       12.712921   -0.218841   -1.833651
    118          1           0       13.714394    1.216605    0.350881
    119          1           0       14.144469   -0.482555    1.111442
    120          1           0       15.382361    0.328538   -1.581247
    121          1           0       15.226255   -2.267153   -1.477120
    122          1           0       16.694128   -1.746708   -0.816254
    123          1           0       15.410994   -2.153631    0.220560
    124          1           0       16.185621    1.829383    0.215612
    125          1           0       16.189788    0.184888    1.244100
    126          1           0       18.367251   -0.287120   -0.042550
    127          1           0       17.832020    1.085554   -1.040836
    128          1           0       18.515835    2.389167    0.923488
    129          1           0       18.821147    1.236716    1.832233
    130          1           0       20.750003    0.363717    0.363725
    131          1           0       20.073487    2.878242   -1.422281
    132          1           0       21.473237    1.971635   -1.618383
    133          1           0       20.075139    1.411084   -2.116726
    134          1           0       21.722362    1.851986    2.153787
    135          1           0       22.095226    2.124065    0.571470
    136          1           0       20.890722    3.240277    1.205126
    137          1           0       -7.240614    1.578674    0.310441
    138          1           0       -7.528458   -0.235456   -0.287893
 ---------------------------------------------------------------------

 SCF Done:  E(RB3LYP) =  -2732.97412902     A.U. after   16 cycles

 Excitation energies and oscillator strengths:

 Excited State   1:      Singlet-A      2.1831 eV  567.94 nm  f=0.1857  <S**2>=0.000
     235 -> 237        0.12839
     235 -> 238        0.26221
     236 -> 237        0.63294
     236 -> 238       -0.11128
 This state for optimization and/or second-order correction.
 Total Energy, E(TD-HF/TD-KS) =  -2732.89390288
 Copying the excited state density for this state as the 1-particle RhoCI density.

 The electronic state is 1-A.
 Alpha  occ. eigenvalues --  -19.19789 -19.16362 -19.14417 -19.12700 -19.12455
 Alpha  occ. eigenvalues --  -14.38022 -14.37259 -14.31891 -14.30441 -10.33367
 Alpha  occ. eigenvalues --  -10.31792 -10.28494 -10.26913 -10.24779 -10.24408
 Alpha  occ. eigenvalues --  -10.23524 -10.23178 -10.23078 -10.23056 -10.22352
 Alpha  occ. eigenvalues --  -10.22003 -10.21747 -10.21667 -10.21620 -10.21451
 Alpha  occ. eigenvalues --  -10.21083 -10.21041 -10.20885 -10.20811 -10.20585
 Alpha  occ. eigenvalues --  -10.20391 -10.20354 -10.20346 -10.20342 -10.20133
 Alpha  occ. eigenvalues --  -10.20091 -10.19950 -10.19906 -10.19809 -10.19643
 Alpha  occ. eigenvalues --  -10.19637 -10.19583 -10.19505 -10.19487 -10.19444
 Alpha  occ. eigenvalues --  -10.19343 -10.19273 -10.19176 -10.18942 -10.18939
 Alpha  occ. eigenvalues --  -10.18839 -10.18671 -10.18589 -10.18321 -10.18291
 Alpha  occ. eigenvalues --  -10.18094 -10.17865 -10.17722 -10.17614 -10.17285
 Alpha  occ. eigenvalues --  -10.17259 -10.17220 -10.16775 -10.16414  -1.11158
 Alpha  occ. eigenvalues --   -1.08049  -1.04344  -1.02420  -0.99661  -0.98135
 Alpha  occ. eigenvalues --   -0.97899  -0.93980  -0.92976  -0.84536  -0.83040
 Alpha  occ. eigenvalues --   -0.82791  -0.82097  -0.81450  -0.81431  -0.80315
 Alpha  occ. eigenvalues --   -0.80121  -0.79323  -0.79252  -0.78829  -0.78433
 Alpha  occ. eigenvalues --   -0.77188  -0.76698  -0.75908  -0.75612  -0.74686
 Alpha  occ. eigenvalues --   -0.73838  -0.73487  -0.72835  -0.71852  -0.71662
 Alpha  occ. eigenvalues --   -0.70596  -0.69119  -0.68922  -0.68493  -0.67614
 Alpha  occ. eigenvalues --   -0.67179  -0.67053  -0.65958  -0.65796  -0.65645
 Alpha  occ. eigenvalues --   -0.64126  -0.62653  -0.62433  -0.62053  -0.61695
 Alpha  occ. eigenvalues --   -0.61459  -0.59080  -0.59012  -0.58334  -0.57558
 Alpha  occ. eigenvalues --   -0.57454  -0.56156  -0.55926  -0.55713  -0.55633
 Alpha  occ. eigenvalues --   -0.55251  -0.54879  -0.54233  -0.54151  -0.53563
 Alpha  occ. eigenvalues --   -0.52734  -0.52125  -0.51463  -0.51262  -0.50906
 Alpha  occ. eigenvalues --   -0.50433  -0.49950  -0.49160  -0.49134  -0.48721
 Alpha  occ. eigenvalues --   -0.48210  -0.47869  -0.47839  -0.47478  -0.47279
 Alpha  occ. eigenvalues --   -0.46955  -0.46814  -0.46668  -0.46494  -0.46111
 Alpha  occ. eigenvalues --   -0.45667  -0.45603  -0.45231  -0.45095  -0.44994
 Alpha  occ. eigenvalues --   -0.44903  -0.44349  -0.44087  -0.44014  -0.43900
 Alpha  occ. eigenvalues --   -0.43646  -0.43550  -0.43415  -0.43221  -0.43169
 Alpha  occ. eigenvalues --   -0.42948  -0.42605  -0.42428  -0.42219  -0.42056
 Alpha  occ. eigenvalues --   -0.41857  -0.41615  -0.41197  -0.41192  -0.41058
 Alpha  occ. eigenvalues --   -0.40706  -0.40309  -0.40173  -0.39764  -0.39469
 Alpha  occ. eigenvalues --   -0.39284  -0.39208  -0.38931  -0.38580  -0.38366
 Alpha  occ. eigenvalues --   -0.38253  -0.38093  -0.37991  -0.37840  -0.37726
 Alpha  occ. eigenvalues --   -0.37632  -0.37359  -0.37011  -0.36797  -0.36692
 Alpha  occ. eigenvalues --   -0.36614  -0.36571  -0.36301  -0.36076  -0.36048
 Alpha  occ. eigenvalues --   -0.35803  -0.35665  -0.35494  -0.34934  -0.34628
 Alpha  occ. eigenvalues --   -0.34556  -0.34066  -0.34004  -0.33463  -0.33180
 Alpha  occ. eigenvalues --   -0.33065  -0.32918  -0.32877  -0.32718  -0.32593
 Alpha  occ. eigenvalues --   -0.32207  -0.32007  -0.31889  -0.31369  -0.31096
 Alpha  occ. eigenvalues --   -0.30896  -0.30770  -0.30394  -0.29687  -0.29321
 Alpha  occ. eigenvalues --   -0.29169  -0.28748  -0.28693  -0.28231  -0.27498
 Alpha  occ. eigenvalues --   -0.27442  -0.27044  -0.26663  -0.26085  -0.25667
 Alpha  occ. eigenvalues --   -0.25642  -0.25363  -0.23740  -0.23709  -0.20314
 Alpha  occ. eigenvalues --   -0.19077
 Alpha virt. eigenvalues --   -0.10100  -0.07338  -0.03674  -0.02498  -0.01910
 Alpha virt. eigenvalues --   -0.00513   0.00187   0.00212   0.01894   0.03437
 Alpha virt. eigenvalues --    0.03840   0.04211   0.04443   0.04534   0.05166

 Mulliken charges:
               1
     1  C    0.142709
     2  C   -0.078740
     3  C   -0.099711
     4  C    0.007566
     5  N   -0.193400
     6  C   -0.224068
     7  C    0.141741
     8  C   -0.169408
     9  C   -0.012545
    10  C    0.092977
    11  C    0.092922
    12  C    0.153488
    13  C    0.188623
    14  O   -0.221496
    15  O   -0.270007
    16  N   -0.099259
    17  C    0.197551
    18  C   -0.216822
    19  C    0.024741
    20  C    0.167384
    21  C    0.204868
    22  C   -0.006611
    23  C   -0.091347
    24  N   -0.259826
    25  C    0.000350
    26  C   -0.125905
    27  C   -0.091506
    28  C    0.049634
    29  C    0.111560
    30  C    0.029444
    31  C    0.005951
    32  N   -0.063678
    33  C    0.049431
    34  C   -0.245403
    35  C    0.020321
    36  C    0.006821
    37  C    0.133372
    38  C    0.093459
    39  O   -0.129456
    40  C    0.121074
    41  C    0.162139
    42  O   -0.235461
    43  O   -0.320664
    44  C    0.194127
    45  C    0.162900
    46  C   -0.084655
    47  C   -0.127514
    48  C    0.095081
    49  C    0.028130
    50  C    0.016342
    51  C   -0.031859
    52  C   -0.048840
    53  C   -0.030502
    54  C    0.047113
    55  C    0.075079
    56  C   -0.038715
    57  C   -0.104035
    58  C    0.029005
    59  C    0.044763
    60  C    0.142012
    61  C    0.090138
    62  C   -0.125740
    63  C    0.050267
    64  C    0.069001
    65  H   -0.062357
    66  H   -0.029880
    67  H   -0.044793
    68  H   -0.087949
    69  H    0.015120
    70  H    0.035034
    71  H   -0.007027
    72  H    0.050699
    73  H    0.009316
    74  H   -0.000492
    75  H    0.015170
    76  H   -0.025228
    77  H    0.007911
    78  H   -0.017192
    79  H    0.042264
    80  H    0.012995
    81  H    0.054763
    82  H    0.046615
    83  H    0.020236
    84  H    0.021339
    85  H    0.020441
    86  H    0.023778
    87  H   -0.014976
    88  H    0.038898
    89  H    0.023053
    90  H   -0.013707
    91  H    0.061176
    92  H    0.019956
    93  H    0.010931
    94  H   -0.035139
    95  H    0.024522
    96  H    0.017491
    97  H    0.012408
    98  H    0.048181
    99  H    0.040161
   100  H    0.002134
   101  H   -0.031695
   102  H    0.045727
   103  H    0.005800
   104  H    0.005469
   105  H   -0.019500
   106  H   -0.004332
   107  H   -0.003435
   108  H   -0.005933
   109  H   -0.017367
   110  H   -0.033320
   111  H    0.053115
   112  H    0.035756
   113  H    0.017430
   114  H    0.000062
   115  H   -0.018096
   116  H   -0.006003
   117  H    0.014900
   118  H    0.014998
   119  H    0.012603
   120  H   -0.010234
   121  H    0.014309
   122  H   -0.023670
   123  H   -0.016449
   124  H    0.014188
   125  H   -0.024913
   126  H    0.001077
   127  H   -0.038647
   128  H   -0.099597
   129  H   -0.027889
   130  H    0.005547
   131  H   -0.041142
   132  H   -0.006281
   133  H    0.004967
   134  H    0.021769
   135  H   -0.011999
   136  H   -0.009062
   137  H    0.189701
   138  H    0.161384
 Sum of Mulliken charges =   0.00000

 Dipole moment (field-independent basis, Debye):
    X=              0.7906    Y=              6.0622    Z=              0.2509  Tot=              6.1187
 Quadrupole moment (field-independent basis, Debye-Ang):
   XX=           -329.0220   YY=           -383.2276   ZZ=           -397.8916
   XY=            -30.1181   XZ=              7.4052   YZ=              2.4865

 Normal termination of Gaussian 09 at Sat Jul 27 03:00:25 2019.
