 Gaussian 09, Revision D.01,
 Gaussian 09:  ES64L-G09RevD.01 24-Apr-2013

 --------------------------
 # td=(NStates=1) B3LYP/SVP
 --------------------------

 --
 TD
 --
 Symbolic Z-matrix:
 Charge =  0 Multiplicity = 1

                         Standard orientation:
 ---------------------------------------------------------------------
 Center     Atomic      Atomic             Coordinates (Angstroms)
 Number     Number       Type             X           Y           Z
 ---------------------------------------------------------------------
      1          6           0       -5.101071   -1.923286    0.500177
      2          6           0       -4.746217    2.771372    1.559267
      3          6           0       -9.380885    3.299419   -0.184653
      4          6           0       -9.771846   -1.483181   -0.887171
      5          7           0       -5.198670    0.432479    0.777332
      6          6           0       -4.475121   -0.667620    0.806969
      7          6           0       -3.061879   -0.507915    1.170459
      8          6           0       -3.018990    0.937505    1.853712
      9          6           0       -4.413747    1.404026    1.322757
     10          6           0       -3.010491    0.986802    3.307006
     11          6           0       -2.008032   -0.680736    0.114638
     12          6           0       -0.510289   -0.560430    0.533302
     13          6           0        0.495981   -0.949488   -0.487906
     14          8           0        0.116983   -1.479001   -1.538314
     15          8           0        1.768954   -0.601011   -0.230023
     16          7           0       -7.050079    2.721370    0.451598
     17          6           0       -5.862656    3.374941    1.029393
     18          6           0       -6.277581    4.812196    1.071638
     19          6           0       -7.556120    4.919901    0.479653
     20          6           0       -8.078297    3.638550    0.210847
     21          6           0       -5.427030    5.826649    1.508760
     22          6           0       -8.258407    6.197741    0.215470
     23          6           0       -9.008574    6.510983   -0.763073
     24          7           0       -9.239081    0.821744   -0.483246
     25          6           0       -9.908475    1.951723   -0.484016
     26          6           0      -11.260214    1.802159   -0.886530
     27          6           0      -11.384967    0.465602   -1.141873
     28          6           0      -10.151340   -0.169637   -0.768202
     29          6           0      -12.364350    2.903509   -1.005086
     30          6           0      -12.658845   -0.437959   -1.602172
     31          6           0      -12.725139   -0.612821   -3.112067
     32          7           0       -7.476678   -1.273552   -0.071407
     33          6           0       -8.572607   -2.036734   -0.635821
     34          6           0       -8.164981   -3.406601   -0.601311
     35          6           0       -6.736037   -3.431607   -0.115936
     36          6           0       -6.430999   -2.069972    0.078175
     37          6           0       -8.985032   -4.647011   -0.976345
     38          6           0       -5.590509   -4.244906   -0.048931
     39          8           0       -5.530900   -5.479545   -0.274808
     40          6           0       -4.417489   -3.288803    0.509126
     41          6           0       -3.826709   -3.702539    1.831963
     42          8           0       -4.017002   -3.378559    2.962134
     43          8           0       -2.909786   -4.790230    1.558639
     44          6           0       -2.447529   -5.559920    2.659675
     45          6           0        2.784239   -1.005426   -1.219725
     46          6           0        3.992245   -0.504630   -0.543530
     47          6           0        4.899661    0.195681   -1.146419
     48          6           0        4.840729    0.822569   -2.498845
     49          6           0        6.259898    0.387911   -0.543078
     50          6           0        7.545988   -0.316638   -1.240168
     51          6           0        8.793200   -0.098392   -0.376288
     52          6           0       10.051552   -0.761220   -0.946695
     53          6           0       10.087007   -2.341740   -0.990983
     54          6           0       11.240323   -0.320846   -0.202395
     55          6           0       12.663546   -0.674770   -0.659655
     56          6           0       13.655010    0.152074    0.153657
     57          6           0       15.181019   -0.264787   -0.282443
     58          6           0       15.578643   -1.719991   -0.089680
     59          6           0       16.201327    0.612450    0.516038
     60          6           0       17.595940    0.612368   -0.136495
     61          6           0       18.524587    1.522812    0.630702
     62          6           0       19.958749    1.632985    0.182247
     63          6           0       20.214722    1.981941   -1.246732
     64          6           0       20.766441    2.559130    1.186518
     65          1           0       -4.123229    3.498727    1.816183
     66          1           0       -9.911103    4.187606   -0.441180
     67          1           0      -10.445006   -2.080896   -1.204343
     68          1           0       -3.010058   -1.418490    2.031058
     69          1           0       -2.228484    1.533594    1.427056
     70          1           0       -1.962217    0.817343    3.685916
     71          1           0       -3.136288    1.972413    3.870555
     72          1           0       -3.764797    0.280371    3.690966
     73          1           0       -2.150663   -1.608414   -0.361197
     74          1           0       -2.224241    0.056402   -0.687104
     75          1           0       -0.308580    0.374622    0.944526
     76          1           0       -0.398901   -1.450131    1.320469
     77          1           0       -4.486514    6.112952    0.875858
     78          1           0       -5.988396    6.749304    1.485616
     79          1           0       -5.050286    5.659475    2.410306
     80          1           0       -8.010628    6.978485    0.908475
     81          1           0       -8.969890    5.673670   -1.627098
     82          1           0       -9.521855    7.564315   -0.904467
     83          1           0      -12.504531    3.442637   -0.002688
     84          1           0      -12.051338    3.528586   -1.825230
     85          1           0      -13.106521    2.212213   -1.359973
     86          1           0      -12.751536   -1.475315   -1.034848
     87          1           0      -13.530846    0.273219   -1.551362
     88          1           0      -12.796947    0.440617   -3.660259
     89          1           0      -11.694005   -0.984247   -3.452723
     90          1           0      -13.543601   -1.417878   -3.318181
     91          1           0       -9.757714   -4.652543   -0.228181
     92          1           0       -9.654319   -4.509037   -1.903096
     93          1           0       -8.374322   -5.629184   -1.225616
     94          1           0       -3.596029   -3.374019   -0.303038
     95          1           0       -1.987098   -6.586626    2.231831
     96          1           0       -1.766869   -4.938351    3.236602
     97          1           0       -3.137493   -5.848704    3.178075
     98          1           0        2.640708   -2.111566   -1.337544
     99          1           0        2.448160   -0.524302   -2.075761
    100          1           0        4.156719   -0.903353    0.452868
    101          1           0        5.317676    1.830796   -2.737359
    102          1           0        5.373273    0.209320   -3.138784
    103          1           0        3.840385    0.808966   -2.830274
    104          1           0        6.458964    1.532375   -0.667553
    105          1           0        6.401636    0.149259    0.525644
    106          1           0        7.260906   -1.439879   -1.385552
    107          1           0        7.550010    0.123796   -2.399324
    108          1           0        8.880177    0.937859   -0.271788
    109          1           0        8.552221   -0.573016    0.551307
    110          1           0       10.042841   -0.341648   -2.086453
    111          1           0        9.388737   -2.736895   -1.655400
    112          1           0       11.002434   -2.918603   -1.147690
    113          1           0        9.558333   -2.546006    0.172349
    114          1           0       11.331024    0.914851   -0.238840
    115          1           0       11.072129   -0.463357    0.889956
    116          1           0       12.598228   -1.679144   -0.526485
    117          1           0       12.667169   -0.496621   -1.906378
    118          1           0       13.408443    1.276818    0.074201
    119          1           0       13.659744   -0.053212    1.205587
    120          1           0       15.122542    0.178789   -1.233710
    121          1           0       14.848382   -2.449893   -0.723308
    122          1           0       16.771878   -2.078673   -0.323519
    123          1           0       15.335414   -1.980742    0.974265
    124          1           0       15.713231    1.626687    0.469611
    125          1           0       16.178739    0.557242    1.589592
    126          1           0       17.903559   -0.348189    0.095871
    127          1           0       17.253836    0.939959   -1.235663
    128          1           0       18.161556    2.626851    0.522718
    129          1           0       18.666537    1.282403    1.810607
    130          1           0       20.300553    0.487383    0.414487
    131          1           0       19.791445    2.943349   -1.421142
    132          1           0       21.351912    1.816121   -1.466292
    133          1           0       19.524834    1.136072   -1.912907
    134          1           0       20.683387    2.481836    2.235164
    135          1           0       21.899231    2.584003    1.142957
    136          1           0       20.481762    3.693343    0.925399
    137          1           0       -7.194132    1.850232    0.409963
    138          1           0       -7.564828   -0.173778    0.047772
 ---------------------------------------------------------------------

 SCF Done:  E(RB3LYP) =  -2733.02391749     A.U. after   18 cycles

 Excitation energies and oscillator strengths:

 Excited State   1:      Singlet-A      2.0903 eV  593.13 nm  f=0.1215  <S**2>=0.000
     235 -> 238       -0.34319
     236 -> 237        0.60396
 This state for optimization and/or second-order correction.
 Total Energy, E(TD-HF/TD-KS) =  -2732.94709952
 Copying the excited state density for this state as the 1-particle RhoCI density.

 The electronic state is 1-A.
 Alpha  occ. eigenvalues --  -19.17340 -19.14887 -19.13604 -19.11417 -19.11089
 Alpha  occ. eigenvalues --  -14.36664 -14.35441 -14.33075 -14.29530 -10.31961
 Alpha  occ. eigenvalues --  -10.31086 -10.27326 -10.24825 -10.24552 -10.24108
 Alpha  occ. eigenvalues --  -10.23665 -10.23191 -10.23187 -10.23079 -10.22949
 Alpha  occ. eigenvalues --  -10.22252 -10.22078 -10.21242 -10.21161 -10.21150
 Alpha  occ. eigenvalues --  -10.21023 -10.20910 -10.20871 -10.20860 -10.20737
 Alpha  occ. eigenvalues --  -10.20728 -10.20634 -10.20551 -10.20469 -10.20366
 Alpha  occ. eigenvalues --  -10.20134 -10.20066 -10.20025 -10.19998 -10.19818
 Alpha  occ. eigenvalues --  -10.19800 -10.19792 -10.19685 -10.19473 -10.19421
 Alpha  occ. eigenvalues --  -10.19398 -10.19310 -10.19282 -10.19225 -10.19215
 Alpha  occ. eigenvalues --  -10.19214 -10.18972 -10.18931 -10.18908 -10.18866
 Alpha  occ. eigenvalues --  -10.18768 -10.18646 -10.18580 -10.18567 -10.18533
 Alpha  occ. eigenvalues --  -10.18511 -10.18242 -10.18171 -10.17421  -1.08419
 Alpha  occ. eigenvalues --   -1.07672  -0.99558  -0.99318  -0.99141  -0.97279
 Alpha  occ. eigenvalues --   -0.96448  -0.95814  -0.94468  -0.84777  -0.83495
 Alpha  occ. eigenvalues --   -0.83386  -0.82293  -0.81768  -0.81543  -0.81369
 Alpha  occ. eigenvalues --   -0.80825  -0.79498  -0.79259  -0.78485  -0.77994
 Alpha  occ. eigenvalues --   -0.77628  -0.76835  -0.75758  -0.75376  -0.74529
 Alpha  occ. eigenvalues --   -0.73715  -0.73557  -0.72883  -0.72674  -0.71508
 Alpha  occ. eigenvalues --   -0.70689  -0.69349  -0.68865  -0.68360  -0.67682
 Alpha  occ. eigenvalues --   -0.66911  -0.66782  -0.65964  -0.65716  -0.65437
 Alpha  occ. eigenvalues --   -0.64770  -0.63271  -0.62597  -0.61826  -0.61571
 Alpha  occ. eigenvalues --   -0.59455  -0.58939  -0.58638  -0.58238  -0.57686
 Alpha  occ. eigenvalues --   -0.57006  -0.56434  -0.56051  -0.55960  -0.55329
 Alpha  occ. eigenvalues --   -0.54560  -0.54507  -0.53676  -0.53274  -0.52945
 Alpha  occ. eigenvalues --   -0.52812  -0.51906  -0.51642  -0.51190  -0.50366
 Alpha  occ. eigenvalues --   -0.50170  -0.49393  -0.49188  -0.48957  -0.48592
 Alpha  occ. eigenvalues --   -0.48165  -0.47808  -0.47608  -0.47486  -0.47056
 Alpha  occ. eigenvalues --   -0.46997  -0.46832  -0.46402  -0.46176  -0.45740
 Alpha  occ. eigenvalues --   -0.45572  -0.45342  -0.44979  -0.44524  -0.44379
 Alpha  occ. eigenvalues --   -0.44278  -0.44179  -0.43947  -0.43857  -0.43612
 Alpha  occ. eigenvalues --   -0.43521  -0.43163  -0.43071  -0.42985  -0.42725
 Alpha  occ. eigenvalues --   -0.42628  -0.42507  -0.42346  -0.42188  -0.41450
 Alpha  occ. eigenvalues --   -0.41340  -0.41077  -0.40952  -0.40830  -0.40735
 Alpha  occ. eigenvalues --   -0.40282  -0.40066  -0.39995  -0.39758  -0.39659
 Alpha  occ. eigenvalues --   -0.39557  -0.39428  -0.39258  -0.38946  -0.38761
 Alpha  occ. eigenvalues --   -0.38490  -0.38429  -0.37873  -0.37622  -0.37442
 Alpha  occ. eigenvalues --   -0.37302  -0.37098  -0.36813  -0.36689  -0.36534
 Alpha  occ. eigenvalues --   -0.36496  -0.36318  -0.36121  -0.35985  -0.35842
 Alpha  occ. eigenvalues --   -0.35659  -0.35413  -0.35070  -0.35005  -0.34660
 Alpha  occ. eigenvalues --   -0.34378  -0.34351  -0.34257  -0.34094  -0.33753
 Alpha  occ. eigenvalues --   -0.33524  -0.33256  -0.33116  -0.32871  -0.32474
 Alpha  occ. eigenvalues --   -0.31957  -0.31885  -0.31690  -0.31559  -0.31491
 Alpha  occ. eigenvalues --   -0.31286  -0.30740  -0.30256  -0.30023  -0.29247
 Alpha  occ. eigenvalues --   -0.29067  -0.28934  -0.28848  -0.28064  -0.27988
 Alpha  occ. eigenvalues --   -0.27926  -0.27262  -0.26514  -0.26112  -0.25193
 Alpha  occ. eigenvalues --   -0.24956  -0.24477  -0.24324  -0.22954  -0.20059
 Alpha  occ. eigenvalues --   -0.19427
 Alpha virt. eigenvalues --   -0.10445  -0.08391  -0.04860  -0.01881  -0.00506
 Alpha virt. eigenvalues --   -0.00043   0.00401   0.00543   0.01864   0.03544
 Alpha virt. eigenvalues --    0.03591   0.04148   0.04473   0.04569   0.04693

 Mulliken charges:
               1
     1  C   -0.038355
     2  C    0.021905
     3  C   -0.055353
     4  C   -0.009727
     5  N   -0.132428
     6  C   -0.070205
     7  C   -0.110691
     8  C   -0.006838
     9  C    0.002705
    10  C    0.056417
    11  C    0.128922
    12  C    0.058217
    13  C    0.162108
    14  O   -0.272791
    15  O   -0.333398
    16  N   -0.041104
    17  C    0.115772
    18  C   -0.119605
    19  C    0.048494
    20  C    0.046952
    21  C    0.131560
    22  C   -0.029555
    23  C   -0.077165
    24  N   -0.216708
    25  C    0.067128
    26  C   -0.219997
    27  C   -0.078787
    28  C    0.065346
    29  C    0.169437
    30  C    0.022861
    31  C   -0.054312
    32  N   -0.102090
    33  C    0.165707
    34  C   -0.121936
    35  C   -0.009766
    36  C    0.098356
    37  C    0.072579
    38  C    0.039843
    39  O   -0.215078
    40  C   -0.061548
    41  C    0.233259
    42  O   -0.184098
    43  O   -0.380291
    44  C    0.287714
    45  C    0.305770
    46  C   -0.063874
    47  C   -0.096655
    48  C    0.130896
    49  C    0.021654
    50  C   -0.084354
    51  C    0.107906
    52  C   -0.055037
    53  C    0.001727
    54  C   -0.060444
    55  C    0.089514
    56  C   -0.007796
    57  C   -0.014351
    58  C   -0.035732
    59  C   -0.028729
    60  C    0.130304
    61  C   -0.053450
    62  C   -0.101113
    63  C    0.004632
    64  C    0.001131
    65  H   -0.079284
    66  H   -0.047392
    67  H   -0.140150
    68  H    0.052603
    69  H   -0.011725
    70  H    0.008243
    71  H    0.014702
    72  H    0.038253
    73  H   -0.012278
    74  H   -0.000138
    75  H    0.006775
    76  H    0.048173
    77  H    0.036289
    78  H   -0.009277
    79  H   -0.009577
    80  H   -0.009670
    81  H    0.053690
    82  H    0.052388
    83  H    0.050364
    84  H    0.017960
    85  H   -0.007766
    86  H    0.043397
    87  H    0.008103
    88  H    0.030787
    89  H    0.014047
    90  H    0.037303
    91  H    0.022686
    92  H    0.020494
    93  H    0.081071
    94  H    0.087899
    95  H    0.039720
    96  H    0.011118
    97  H   -0.061470
    98  H    0.037547
    99  H   -0.005548
   100  H   -0.016121
   101  H    0.026436
   102  H   -0.000560
   103  H   -0.013222
   104  H    0.005289
   105  H   -0.007170
   106  H    0.015996
   107  H    0.016009
   108  H   -0.013745
   109  H   -0.012907
   110  H    0.000055
   111  H   -0.001138
   112  H    0.034872
   113  H    0.008476
   114  H   -0.016926
   115  H   -0.007825
   116  H   -0.029256
   117  H    0.014158
   118  H    0.018569
   119  H   -0.011383
   120  H   -0.023464
   121  H    0.026479
   122  H    0.053702
   123  H    0.013718
   124  H   -0.030963
   125  H   -0.027184
   126  H   -0.028453
   127  H    0.033692
   128  H   -0.012473
   129  H    0.021511
   130  H   -0.007430
   131  H    0.006626
   132  H    0.041259
   133  H    0.029923
   134  H   -0.005053
   135  H    0.005240
   136  H    0.005791
   137  H    0.016023
   138  H    0.206656
 Sum of Mulliken charges =   0.00000

 Dipole moment (field-independent basis, Debye):
    X=              2.1853    Y=              6.0237    Z=              0.8292  Tot=              6.4613
 Quadrupole moment (field-independent basis, Debye-Ang):
   XX=           -363.5336   YY=           -383.3627   ZZ=           -396.0282
   XY=            -32.2963   XZ=             10.2622   YZ=              0.1434

 Normal termination of Gaussian 09 at Sat Jul 27 21:49:16 2019.
