 Gaussian 09, Revision D.01,
 Gaussian 09:  ES64L-G09RevD.01 24-Apr-2013

 --------------------------
 # td=(NStates=1) B3LYP/SVP
 --------------------------

 --
 TD
 --
 Symbolic Z-matrix:
 Charge =  0 Multiplicity = 1

                         Standard orientation:
 ---------------------------------------------------------------------
 Center     Atomic      Atomic             Coordinates (Angstroms)
 Number     Number       Type             X           Y           Z
 ---------------------------------------------------------------------
      1          6           0       -4.978556   -1.906040    0.517707
      2          6           0       -4.813682    2.876082    1.164750
      3          6           0       -9.522031    3.214145   -0.237755
      4          6           0       -9.825684   -1.721361   -0.666922
      5          7           0       -5.167150    0.475352    0.755645
      6          6           0       -4.381754   -0.597039    0.828541
      7          6           0       -3.026382   -0.445456    1.248284
      8          6           0       -2.959696    1.041951    1.722329
      9          6           0       -4.307339    1.451972    1.243222
     10          6           0       -2.840263    1.257502    3.286675
     11          6           0       -2.022253   -0.622919    0.107700
     12          6           0       -0.555954   -0.447048    0.393133
     13          6           0        0.350653   -0.918778   -0.608384
     14          8           0        0.185849   -1.615830   -1.650299
     15          8           0        1.622496   -0.405455   -0.405167
     16          7           0       -7.106770    2.689529    0.396949
     17          6           0       -6.048470    3.362039    0.799081
     18          6           0       -6.362827    4.774378    0.791632
     19          6           0       -7.799132    4.917810    0.372379
     20          6           0       -8.267933    3.594768    0.127618
     21          6           0       -5.506832    5.866675    1.315655
     22          6           0       -8.450964    6.151763    0.300424
     23          6           0       -9.563113    6.491100   -0.504040
     24          7           0       -9.300121    0.748231   -0.383434
     25          6           0      -10.028287    1.916002   -0.530526
     26          6           0      -11.465420    1.637717   -0.698242
     27          6           0      -11.527955    0.314065   -0.880290
     28          6           0      -10.100897   -0.282926   -0.657867
     29          6           0      -12.469443    2.664071   -1.046478
     30          6           0      -12.713992   -0.639232   -1.297667
     31          6           0      -12.865849   -1.007303   -2.753812
     32          7           0       -7.366966   -1.314383   -0.044465
     33          6           0       -8.512514   -2.206394   -0.384075
     34          6           0       -7.989404   -3.512588   -0.409804
     35          6           0       -6.648225   -3.378259   -0.116825
     36          6           0       -6.297253   -2.070506    0.055505
     37          6           0       -8.850985   -4.798009   -0.670706
     38          6           0       -5.482611   -4.267961    0.124140
     39          8           0       -5.450957   -5.519759    0.058848
     40          6           0       -4.284726   -3.330780    0.434025
     41          6           0       -3.551912   -3.774160    1.662214
     42          8           0       -3.853360   -3.474149    2.802063
     43          8           0       -2.620029   -4.751151    1.263312
     44          6           0       -1.719285   -5.343307    2.385260
     45          6           0        2.712169   -0.789279   -1.352098
     46          6           0        3.944659   -0.558740   -0.822192
     47          6           0        4.819293    0.281354   -1.413273
     48          6           0        4.734910    1.098128   -2.738086
     49          6           0        6.166451    0.626369   -0.715590
     50          6           0        7.466946   -0.165894   -1.201118
     51          6           0        8.728249    0.190276   -0.435520
     52          6           0        9.989060   -0.557101   -0.849015
     53          6           0        9.866362   -2.053322   -0.991938
     54          6           0       11.263967   -0.221296    0.071024
     55          6           0       12.545292   -0.404369   -0.700155
     56          6           0       13.714080    0.063752    0.293239
     57          6           0       15.183410   -0.255096   -0.290730
     58          6           0       15.536638   -1.686041   -0.384437
     59          6           0       16.259717    0.514874    0.556823
     60          6           0       17.614391    0.560118    0.121141
     61          6           0       18.605406    1.454920    0.793334
     62          6           0       20.089165    1.458048    0.364145
     63          6           0       20.317342    1.834162   -1.110009
     64          6           0       20.901551    2.279020    1.308558
     65          1           0       -3.995647    3.626929    1.381763
     66          1           0      -10.164426    4.085125   -0.139419
     67          1           0      -10.592573   -2.546027   -1.041149
     68          1           0       -2.910581   -1.250232    1.977753
     69          1           0       -2.051083    1.637197    1.412186
     70          1           0       -1.953947    0.869437    3.677912
     71          1           0       -2.865755    2.370970    3.686351
     72          1           0       -3.713692    0.824066    3.545654
     73          1           0       -2.333052   -1.634508   -0.274332
     74          1           0       -2.372187    0.082599   -0.651079
     75          1           0       -0.226745    0.659316    0.333008
     76          1           0       -0.253612   -0.909993    1.333079
     77          1           0       -4.630675    5.943821    0.460729
     78          1           0       -5.897095    6.973083    1.407934
     79          1           0       -4.908400    5.607380    2.179153
     80          1           0       -8.299380    7.039162    0.925583
     81          1           0       -9.892020    5.905807   -1.520094
     82          1           0      -10.348188    7.372924   -0.284351
     83          1           0      -12.626010    3.179943   -0.111141
     84          1           0      -12.276293    3.561411   -1.640927
     85          1           0      -13.253451    2.278993   -1.410613
     86          1           0      -12.711771   -1.682229   -0.704825
     87          1           0      -13.607074   -0.018035   -0.999915
     88          1           0      -13.114210   -0.164813   -3.370730
     89          1           0      -12.065304   -1.567017   -3.109079
     90          1           0      -13.834830   -1.419773   -3.189815
     91          1           0       -9.622568   -4.815873    0.027765
     92          1           0       -9.248607   -4.899765   -1.612626
     93          1           0       -8.317180   -5.786671   -0.341148
     94          1           0       -3.610425   -3.390487   -0.430424
     95          1           0       -1.403347   -6.210335    1.851213
     96          1           0       -0.925228   -4.645173    2.572569
     97          1           0       -2.438958   -5.507900    3.260041
     98          1           0        2.723753   -1.879519   -1.353500
     99          1           0        2.490154   -0.312892   -2.483770
    100          1           0        4.129393   -0.940445    0.134367
    101          1           0        4.574156    2.302712   -2.442129
    102          1           0        5.771479    0.916365   -3.279977
    103          1           0        3.842397    0.522648   -3.250975
    104          1           0        6.608953    1.732728   -0.818615
    105          1           0        6.165168    0.361648    0.274318
    106          1           0        7.155667   -1.278544   -1.028223
    107          1           0        7.518759   -0.168212   -2.267638
    108          1           0        8.943643    1.253685   -0.333647
    109          1           0        8.460567   -0.216987    0.684309
    110          1           0       10.585671   -0.080867   -1.814166
    111          1           0        9.143937   -2.504407   -1.559981
    112          1           0       10.793197   -2.455408   -1.345038
    113          1           0        9.557922   -2.208647    0.107169
    114          1           0       11.117209    0.756572    0.319909
    115          1           0       10.912884   -0.623629    1.003074
    116          1           0       12.779252   -1.414264   -0.881915
    117          1           0       12.510915    0.438709   -1.693828
    118          1           0       13.558917    1.141562    0.307940
    119          1           0       13.681335   -0.434099    1.314166
    120          1           0       14.977949    0.179214   -1.411546
    121          1           0       14.757230   -2.310955   -1.046303
    122          1           0       16.559236   -1.778370   -1.155165
    123          1           0       15.504219   -2.327612    0.626313
    124          1           0       16.035590    1.610582    0.592469
    125          1           0       16.226841   -0.260824    1.433583
    126          1           0       18.136833   -0.462574    0.236333
    127          1           0       17.567035    0.674135   -1.036946
    128          1           0       18.023332    2.383449    0.765535
    129          1           0       18.562720    1.252848    1.867244
    130          1           0       20.417639    0.307383    0.532061
    131          1           0       19.944328    2.936501   -1.346714
    132          1           0       21.470048    1.816982   -0.887133
    133          1           0       19.979935    1.092316   -1.906939
    134          1           0       20.464596    1.893553    2.365990
    135          1           0       22.054774    2.057968    1.282167
    136          1           0       20.624204    3.382932    0.974494
    137          1           0       -7.214488    1.689105    0.278902
    138          1           0       -7.546545   -0.266182   -0.106026
 ---------------------------------------------------------------------

 SCF Done:  E(RB3LYP) =  -2732.97623408     A.U. after   17 cycles

 Excitation energies and oscillator strengths:

 Excited State   1:      Singlet-A      1.9589 eV  632.93 nm  f=0.1242  <S**2>=0.000
     235 -> 238       -0.32862
     236 -> 237        0.61044
 This state for optimization and/or second-order correction.
 Total Energy, E(TD-HF/TD-KS) =  -2732.90424581
 Copying the excited state density for this state as the 1-particle RhoCI density.

 The electronic state is 1-A.
 Alpha  occ. eigenvalues --  -19.16977 -19.16818 -19.13198 -19.11958 -19.11932
 Alpha  occ. eigenvalues --  -14.36575 -14.36519 -14.33548 -14.30821 -10.31836
 Alpha  occ. eigenvalues --  -10.31792 -10.27883 -10.25215 -10.24882 -10.24430
 Alpha  occ. eigenvalues --  -10.23859 -10.23758 -10.23552 -10.23319 -10.22681
 Alpha  occ. eigenvalues --  -10.22393 -10.22350 -10.22211 -10.22187 -10.22068
 Alpha  occ. eigenvalues --  -10.21919 -10.21822 -10.21710 -10.21586 -10.21395
 Alpha  occ. eigenvalues --  -10.21343 -10.21193 -10.21176 -10.21143 -10.21003
 Alpha  occ. eigenvalues --  -10.20810 -10.20607 -10.20492 -10.20482 -10.20430
 Alpha  occ. eigenvalues --  -10.20322 -10.20270 -10.20121 -10.20120 -10.19906
 Alpha  occ. eigenvalues --  -10.19831 -10.19665 -10.19518 -10.19237 -10.19115
 Alpha  occ. eigenvalues --  -10.19037 -10.19033 -10.19002 -10.18883 -10.18732
 Alpha  occ. eigenvalues --  -10.18381 -10.18307 -10.18228 -10.17762 -10.17529
 Alpha  occ. eigenvalues --  -10.17475 -10.17258 -10.17258 -10.17225  -1.06740
 Alpha  occ. eigenvalues --   -1.06359  -1.00177  -0.98975  -0.97671  -0.97185
 Alpha  occ. eigenvalues --   -0.96883  -0.96060  -0.93172  -0.84013  -0.83656
 Alpha  occ. eigenvalues --   -0.82694  -0.82409  -0.82139  -0.81646  -0.80439
 Alpha  occ. eigenvalues --   -0.79895  -0.79803  -0.79514  -0.79140  -0.77993
 Alpha  occ. eigenvalues --   -0.77428  -0.76325  -0.75604  -0.75518  -0.74950
 Alpha  occ. eigenvalues --   -0.73718  -0.73119  -0.72574  -0.71729  -0.71037
 Alpha  occ. eigenvalues --   -0.70125  -0.69409  -0.69001  -0.68199  -0.67638
 Alpha  occ. eigenvalues --   -0.66932  -0.66550  -0.66103  -0.66066  -0.65183
 Alpha  occ. eigenvalues --   -0.64742  -0.63291  -0.62325  -0.61410  -0.61062
 Alpha  occ. eigenvalues --   -0.60714  -0.58930  -0.58273  -0.57723  -0.57091
 Alpha  occ. eigenvalues --   -0.56465  -0.55467  -0.55401  -0.54685  -0.54419
 Alpha  occ. eigenvalues --   -0.54027  -0.53984  -0.53359  -0.53026  -0.52836
 Alpha  occ. eigenvalues --   -0.52679  -0.51930  -0.51651  -0.51195  -0.50430
 Alpha  occ. eigenvalues --   -0.50200  -0.49271  -0.49141  -0.48879  -0.48802
 Alpha  occ. eigenvalues --   -0.48695  -0.48166  -0.47764  -0.47150  -0.47029
 Alpha  occ. eigenvalues --   -0.46547  -0.46336  -0.46223  -0.46112  -0.45971
 Alpha  occ. eigenvalues --   -0.45444  -0.45090  -0.45021  -0.44862  -0.44667
 Alpha  occ. eigenvalues --   -0.44304  -0.44090  -0.44052  -0.43914  -0.43582
 Alpha  occ. eigenvalues --   -0.43396  -0.43087  -0.42998  -0.42858  -0.42809
 Alpha  occ. eigenvalues --   -0.42426  -0.42059  -0.41964  -0.41809  -0.41702
 Alpha  occ. eigenvalues --   -0.41477  -0.41388  -0.40861  -0.40579  -0.40271
 Alpha  occ. eigenvalues --   -0.40161  -0.39966  -0.39534  -0.39518  -0.39363
 Alpha  occ. eigenvalues --   -0.39215  -0.39160  -0.39110  -0.38876  -0.38747
 Alpha  occ. eigenvalues --   -0.38433  -0.38234  -0.38167  -0.37750  -0.37582
 Alpha  occ. eigenvalues --   -0.37505  -0.37334  -0.36719  -0.36650  -0.36486
 Alpha  occ. eigenvalues --   -0.36256  -0.36144  -0.35953  -0.35811  -0.35751
 Alpha  occ. eigenvalues --   -0.35649  -0.35546  -0.35293  -0.35145  -0.35121
 Alpha  occ. eigenvalues --   -0.34956  -0.34712  -0.34268  -0.34013  -0.33755
 Alpha  occ. eigenvalues --   -0.33516  -0.33371  -0.32755  -0.32587  -0.32227
 Alpha  occ. eigenvalues --   -0.32129  -0.31504  -0.31353  -0.31226  -0.30721
 Alpha  occ. eigenvalues --   -0.30534  -0.30360  -0.30133  -0.29900  -0.29841
 Alpha  occ. eigenvalues --   -0.29438  -0.29186  -0.28671  -0.28285  -0.27847
 Alpha  occ. eigenvalues --   -0.27197  -0.27006  -0.26379  -0.26224  -0.25507
 Alpha  occ. eigenvalues --   -0.24707  -0.24616  -0.23333  -0.22518  -0.19487
 Alpha  occ. eigenvalues --   -0.18747
 Alpha virt. eigenvalues --   -0.10327  -0.08144  -0.04984  -0.02941  -0.01433
 Alpha virt. eigenvalues --   -0.01203  -0.00984  -0.00201   0.01364   0.02776
 Alpha virt. eigenvalues --    0.03316   0.03656   0.03775   0.03866   0.04030

 Mulliken charges:
               1
     1  C   -0.058637
     2  C   -0.120100
     3  C   -0.071421
     4  C   -0.092121
     5  N   -0.152014
     6  C   -0.080887
     7  C    0.020837
     8  C   -0.061802
     9  C   -0.009038
    10  C    0.080812
    11  C    0.040642
    12  C    0.096048
    13  C    0.175954
    14  O   -0.274115
    15  O   -0.374456
    16  N   -0.080309
    17  C    0.163518
    18  C   -0.139016
    19  C    0.134117
    20  C    0.103512
    21  C    0.030725
    22  C   -0.093190
    23  C   -0.167355
    24  N   -0.240174
    25  C    0.078975
    26  C   -0.141958
    27  C   -0.084640
    28  C    0.048166
    29  C    0.205610
    30  C    0.025374
    31  C    0.039258
    32  N   -0.101754
    33  C    0.061303
    34  C   -0.149066
    35  C   -0.016038
    36  C    0.105376
    37  C    0.139057
    38  C    0.084419
    39  O   -0.201581
    40  C   -0.008535
    41  C    0.224947
    42  O   -0.222760
    43  O   -0.383395
    44  C    0.180797
    45  C    0.284801
    46  C   -0.046160
    47  C   -0.141202
    48  C   -0.007334
    49  C    0.052664
    50  C   -0.006219
    51  C    0.040536
    52  C   -0.162510
    53  C    0.102941
    54  C    0.097148
    55  C    0.023791
    56  C    0.006201
    57  C   -0.115587
    58  C   -0.074490
    59  C    0.079805
    60  C   -0.019421
    61  C    0.068266
    62  C   -0.111067
    63  C   -0.028355
    64  C   -0.036046
    65  H   -0.019358
    66  H   -0.021385
    67  H    0.038617
    68  H    0.008250
    69  H    0.019190
    70  H    0.006581
    71  H    0.023793
    72  H    0.003303
    73  H    0.024832
    74  H    0.004080
    75  H    0.061193
    76  H    0.036374
    77  H    0.033954
    78  H    0.047048
    79  H    0.028477
    80  H    0.016994
    81  H    0.059048
    82  H    0.054344
    83  H    0.002994
    84  H    0.008487
    85  H   -0.059791
    86  H    0.026495
    87  H    0.004109
    88  H   -0.015706
    89  H    0.003635
    90  H    0.001851
    91  H   -0.000521
    92  H    0.012820
    93  H    0.045081
    94  H    0.070845
    95  H    0.047625
    96  H    0.035868
    97  H    0.072618
    98  H    0.012444
    99  H    0.057130
   100  H   -0.031465
   101  H    0.070505
   102  H    0.051668
   103  H    0.031176
   104  H    0.012587
   105  H   -0.036271
   106  H   -0.000561
   107  H   -0.013824
   108  H   -0.000930
   109  H   -0.000249
   110  H   -0.017567
   111  H   -0.009244
   112  H   -0.003599
   113  H   -0.003002
   114  H   -0.059478
   115  H   -0.031892
   116  H   -0.000569
   117  H    0.044254
   118  H   -0.001782
   119  H    0.009824
   120  H   -0.004235
   121  H    0.022398
   122  H    0.047293
   123  H    0.037376
   124  H   -0.004161
   125  H    0.003396
   126  H   -0.018711
   127  H   -0.007784
   128  H   -0.036895
   129  H   -0.028702
   130  H    0.005784
   131  H    0.029706
   132  H    0.021538
   133  H    0.041797
   134  H    0.033075
   135  H    0.038813
   136  H    0.031923
   137  H    0.131104
   138  H    0.172543
 Sum of Mulliken charges =   0.00000

 Dipole moment (field-independent basis, Debye):
    X=              2.9580    Y=              4.7685    Z=              1.1656  Tot=              5.7312
 Quadrupole moment (field-independent basis, Debye-Ang):
   XX=           -358.7714   YY=           -386.5694   ZZ=           -399.9659
   XY=            -30.2235   XZ=             14.8700   YZ=             -1.3708

 Normal termination of Gaussian 09 at Thu Jul 25 17:53:44 2019.
