 Gaussian 09, Revision D.01,
 Gaussian 09:  ES64L-G09RevD.01 24-Apr-2013

 --------------------------
 # td=(NStates=1) B3LYP/SVP
 --------------------------

 --
 TD
 --
 Symbolic Z-matrix:
 Charge =  0 Multiplicity = 1

                         Standard orientation:
 ---------------------------------------------------------------------
 Center     Atomic      Atomic             Coordinates (Angstroms)
 Number     Number       Type             X           Y           Z
 ---------------------------------------------------------------------
      1          6           0       -5.113433   -1.914326    0.314807
      2          6           0       -4.813015    2.729174    1.764359
      3          6           0       -9.320184    3.305963   -0.120883
      4          6           0       -9.803282   -1.408103   -1.054325
      5          7           0       -5.185575    0.385654    0.867005
      6          6           0       -4.451037   -0.797493    0.774311
      7          6           0       -3.056523   -0.590769    1.265979
      8          6           0       -3.072673    0.865625    1.874521
      9          6           0       -4.472578    1.385490    1.487821
     10          6           0       -2.928531    0.874883    3.416259
     11          6           0       -2.046002   -0.822641    0.158156
     12          6           0       -0.568726   -0.756881    0.602627
     13          6           0        0.333278   -0.958630   -0.504004
     14          8           0       -0.012030   -1.330470   -1.604702
     15          8           0        1.647434   -0.817036   -0.127020
     16          7           0       -6.982310    2.702445    0.639696
     17          6           0       -5.927484    3.344263    1.131952
     18          6           0       -6.258505    4.750924    1.171354
     19          6           0       -7.463623    4.924032    0.549859
     20          6           0       -8.051136    3.588599    0.271389
     21          6           0       -5.345881    5.841019    1.679433
     22          6           0       -8.047389    6.262370    0.244016
     23          6           0       -9.032671    6.512982   -0.644870
     24          7           0       -9.225793    0.896301   -0.436121
     25          6           0       -9.840506    2.100224   -0.426125
     26          6           0      -11.211594    1.967413   -1.021283
     27          6           0      -11.402606    0.641170   -1.313798
     28          6           0      -10.112176   -0.033904   -1.001512
     29          6           0      -12.255729    3.071685   -1.202969
     30          6           0      -12.600915   -0.131896   -1.878293
     31          6           0      -12.499154   -0.340007   -3.347105
     32          7           0       -7.565764   -1.268881   -0.375373
     33          6           0       -8.533013   -2.000109   -0.826556
     34          6           0       -8.163455   -3.399895   -0.808426
     35          6           0       -6.815981   -3.390518   -0.471596
     36          6           0       -6.529097   -2.046849   -0.064919
     37          6           0       -8.997267   -4.573056   -1.315344
     38          6           0       -5.773496   -4.236753   -0.035720
     39          8           0       -5.705034   -5.422304   -0.116641
     40          6           0       -4.601931   -3.230723    0.428492
     41          6           0       -4.031864   -3.767436    1.733997
     42          8           0       -4.363472   -3.328264    2.860603
     43          8           0       -3.145866   -4.829571    1.615284
     44          6           0       -2.834145   -5.590925    2.855652
     45          6           0        2.762611   -1.039347   -1.082387
     46          6           0        4.066546   -0.749864   -0.410828
     47          6           0        5.022813   -0.066090   -0.844521
     48          6           0        4.892890    0.665093   -2.224378
     49          6           0        6.260430    0.121958   -0.126984
     50          6           0        7.491272   -0.453519   -0.711178
     51          6           0        8.902614   -0.301686    0.012513
     52          6           0       10.104894   -0.802750   -0.608639
     53          6           0       10.018025   -2.360317   -0.869888
     54          6           0       11.388668   -0.435718    0.132251
     55          6           0       12.708901   -0.566678   -0.505309
     56          6           0       13.899550   -0.000723    0.181918
     57          6           0       15.308686   -0.265998   -0.414324
     58          6           0       15.571408   -1.736829   -0.525331
     59          6           0       16.298491    0.583751    0.313860
     60          6           0       17.712995    0.666166   -0.180230
     61          6           0       18.716002    1.564086    0.553047
     62          6           0       20.095290    1.818821   -0.153723
     63          6           0       19.940958    2.651287   -1.569449
     64          6           0       21.047002    2.422297    0.843419
     65          1           0       -3.949473    3.238478    2.188185
     66          1           0       -9.871050    4.157636   -0.228860
     67          1           0      -10.588973   -1.950667   -1.562126
     68          1           0       -2.941505   -1.442267    1.970248
     69          1           0       -2.301722    1.463847    1.345316
     70          1           0       -2.047547    0.509431    3.626590
     71          1           0       -2.915477    1.869800    3.766086
     72          1           0       -3.747214    0.303009    3.728249
     73          1           0       -2.211432   -1.884958   -0.297812
     74          1           0       -2.026101   -0.136776   -0.644925
     75          1           0       -0.204127    0.287267    0.985630
     76          1           0       -0.208167   -1.408806    1.386644
     77          1           0       -4.347278    5.706081    1.111790
     78          1           0       -5.751231    6.838733    1.556329
     79          1           0       -5.296648    5.906649    2.679203
     80          1           0       -7.818695    7.146647    1.018325
     81          1           0       -9.427427    5.733514   -1.386454
     82          1           0       -9.473296    7.460471   -0.859881
     83          1           0      -12.322141    3.511449   -0.260466
     84          1           0      -12.026489    3.834412   -2.170752
     85          1           0      -13.168376    2.488900   -1.503667
     86          1           0      -12.638391   -1.083030   -1.489997
     87          1           0      -13.494324    0.554877   -1.653677
     88          1           0      -12.525666    0.596965   -3.969984
     89          1           0      -11.443380   -0.826279   -3.901625
     90          1           0      -13.298737   -1.099950   -3.553053
     91          1           0       -9.719045   -4.927630   -0.492274
     92          1           0       -9.349186   -4.736124   -2.263766
     93          1           0       -8.195797   -5.261278   -1.037750
     94          1           0       -3.794360   -3.344287   -0.244971
     95          1           0       -2.279047   -6.414760    2.428183
     96          1           0       -2.332082   -4.975613    3.503477
     97          1           0       -3.764011   -5.758236    3.310536
     98          1           0        2.605742   -2.114313   -1.161657
     99          1           0        2.438961   -0.569949   -2.040868
    100          1           0        4.270657   -1.308191    0.561061
    101          1           0        5.322288    1.787513   -2.069129
    102          1           0        5.632327    0.124425   -2.869829
    103          1           0        3.830659    0.819266   -2.700942
    104          1           0        6.372420    1.198314    0.115256
    105          1           0        6.103962   -0.144795    0.796757
    106          1           0        7.438182   -1.572598   -0.764214
    107          1           0        7.515057    0.002246   -1.621469
    108          1           0        9.012970    0.904472    0.166188
    109          1           0        8.618249   -0.585098    1.173889
    110          1           0       10.088635   -0.191749   -1.510285
    111          1           0        9.038250   -2.694141   -1.427387
    112          1           0       10.878094   -2.685333   -1.493881
    113          1           0       10.181088   -3.044647    0.011550
    114          1           0       11.130783    0.902077    0.393758
    115          1           0       11.446956   -0.926774    1.186166
    116          1           0       12.816562   -1.706738   -0.614167
    117          1           0       12.485226   -0.301175   -1.580065
    118          1           0       13.801708    1.198504    0.072307
    119          1           0       13.963445   -0.272322    1.321159
    120          1           0       15.132946    0.140126   -1.461687
    121          1           0       14.932240   -2.133138   -1.298837
    122          1           0       16.567857   -1.956259   -0.631696
    123          1           0       15.257718   -2.344409    0.460111
    124          1           0       15.755222    1.607299    0.491347
    125          1           0       16.182656    0.243257    1.345701
    126          1           0       18.173540   -0.310411   -0.248698
    127          1           0       17.600616    1.076328   -1.313290
    128          1           0       18.177394    2.495280    0.620265
    129          1           0       18.912999    1.086469    1.569955
    130          1           0       20.485518    0.616301   -0.569801
    131          1           0       19.318611    3.469547   -1.574663
    132          1           0       20.973635    2.785461   -1.957336
    133          1           0       19.582982    2.110131   -2.497412
    134          1           0       21.241107    1.948594    1.813077
    135          1           0       22.167820    2.341264    0.509936
    136          1           0       20.817366    3.528632    0.818640
    137          1           0       -7.050162    1.722536    0.394693
    138          1           0       -7.802386   -0.124031   -0.366474
 ---------------------------------------------------------------------

 SCF Done:  E(RB3LYP) =  -2733.10859881     A.U. after   17 cycles

 Excitation energies and oscillator strengths:

 Excited State   1:      Singlet-A      2.0845 eV  594.81 nm  f=0.1854  <S**2>=0.000
     235 -> 238        0.30004
     236 -> 237        0.63646
 This state for optimization and/or second-order correction.
 Total Energy, E(TD-HF/TD-KS) =  -2733.03199666
 Copying the excited state density for this state as the 1-particle RhoCI density.

 The electronic state is 1-A.
 Alpha  occ. eigenvalues --  -19.16772 -19.15762 -19.12075 -19.11616 -19.11508
 Alpha  occ. eigenvalues --  -14.36991 -14.36450 -14.31489 -14.30995 -10.31399
 Alpha  occ. eigenvalues --  -10.30407 -10.27224 -10.24770 -10.24199 -10.23935
 Alpha  occ. eigenvalues --  -10.23277 -10.23214 -10.22532 -10.22213 -10.22123
 Alpha  occ. eigenvalues --  -10.22087 -10.21998 -10.21669 -10.21536 -10.21016
 Alpha  occ. eigenvalues --  -10.20953 -10.20814 -10.20740 -10.20494 -10.20314
 Alpha  occ. eigenvalues --  -10.20194 -10.20153 -10.20148 -10.20114 -10.20104
 Alpha  occ. eigenvalues --  -10.20014 -10.20003 -10.19984 -10.19806 -10.19747
 Alpha  occ. eigenvalues --  -10.19738 -10.19696 -10.19653 -10.19622 -10.19546
 Alpha  occ. eigenvalues --  -10.19383 -10.19160 -10.19078 -10.19071 -10.19009
 Alpha  occ. eigenvalues --  -10.18880 -10.18770 -10.18708 -10.18702 -10.18506
 Alpha  occ. eigenvalues --  -10.18462 -10.18455 -10.18366 -10.18280 -10.18164
 Alpha  occ. eigenvalues --  -10.17998 -10.17664 -10.17410 -10.16615  -1.07081
 Alpha  occ. eigenvalues --   -1.06076  -1.03853  -1.00174  -0.99170  -0.98062
 Alpha  occ. eigenvalues --   -0.97490  -0.92995  -0.92320  -0.85591  -0.84527
 Alpha  occ. eigenvalues --   -0.82842  -0.82048  -0.81603  -0.81301  -0.80911
 Alpha  occ. eigenvalues --   -0.79999  -0.79732  -0.79245  -0.78648  -0.78012
 Alpha  occ. eigenvalues --   -0.77288  -0.76286  -0.75931  -0.75382  -0.75121
 Alpha  occ. eigenvalues --   -0.73643  -0.73225  -0.73012  -0.71885  -0.71159
 Alpha  occ. eigenvalues --   -0.70253  -0.69461  -0.68793  -0.68107  -0.67967
 Alpha  occ. eigenvalues --   -0.67836  -0.67640  -0.66719  -0.66353  -0.66014
 Alpha  occ. eigenvalues --   -0.64028  -0.63513  -0.63323  -0.62300  -0.61413
 Alpha  occ. eigenvalues --   -0.60872  -0.59525  -0.58749  -0.58220  -0.57036
 Alpha  occ. eigenvalues --   -0.56508  -0.56266  -0.55038  -0.54969  -0.54570
 Alpha  occ. eigenvalues --   -0.54263  -0.54093  -0.53889  -0.53705  -0.52687
 Alpha  occ. eigenvalues --   -0.52320  -0.51715  -0.51398  -0.51000  -0.50324
 Alpha  occ. eigenvalues --   -0.50215  -0.49618  -0.48777  -0.48402  -0.48032
 Alpha  occ. eigenvalues --   -0.47966  -0.47797  -0.47504  -0.47041  -0.46808
 Alpha  occ. eigenvalues --   -0.46665  -0.46210  -0.46123  -0.46038  -0.45838
 Alpha  occ. eigenvalues --   -0.45704  -0.45282  -0.45159  -0.44858  -0.44711
 Alpha  occ. eigenvalues --   -0.44457  -0.44220  -0.44000  -0.43978  -0.43693
 Alpha  occ. eigenvalues --   -0.43575  -0.43459  -0.43309  -0.43122  -0.42990
 Alpha  occ. eigenvalues --   -0.42943  -0.42720  -0.42499  -0.42214  -0.42194
 Alpha  occ. eigenvalues --   -0.41740  -0.41407  -0.41240  -0.41203  -0.40905
 Alpha  occ. eigenvalues --   -0.40699  -0.40354  -0.39941  -0.39881  -0.39621
 Alpha  occ. eigenvalues --   -0.39328  -0.39063  -0.38887  -0.38633  -0.38538
 Alpha  occ. eigenvalues --   -0.38515  -0.38243  -0.38221  -0.37968  -0.37916
 Alpha  occ. eigenvalues --   -0.37514  -0.37229  -0.37025  -0.36666  -0.36487
 Alpha  occ. eigenvalues --   -0.36426  -0.36124  -0.36027  -0.35876  -0.35535
 Alpha  occ. eigenvalues --   -0.35343  -0.35204  -0.35063  -0.34934  -0.34840
 Alpha  occ. eigenvalues --   -0.34741  -0.34646  -0.34123  -0.34051  -0.33899
 Alpha  occ. eigenvalues --   -0.33447  -0.33361  -0.32627  -0.32510  -0.32234
 Alpha  occ. eigenvalues --   -0.32023  -0.31888  -0.31379  -0.30973  -0.30886
 Alpha  occ. eigenvalues --   -0.30776  -0.30633  -0.30161  -0.29722  -0.29497
 Alpha  occ. eigenvalues --   -0.29445  -0.29341  -0.28576  -0.27902  -0.27331
 Alpha  occ. eigenvalues --   -0.27285  -0.26860  -0.26384  -0.26193  -0.26091
 Alpha  occ. eigenvalues --   -0.25386  -0.24717  -0.24444  -0.23191  -0.19618
 Alpha  occ. eigenvalues --   -0.18877
 Alpha virt. eigenvalues --   -0.10219  -0.07268  -0.03962  -0.01846  -0.00415
 Alpha virt. eigenvalues --    0.00525   0.01051   0.01204   0.02637   0.03404
 Alpha virt. eigenvalues --    0.03852   0.04117   0.04547   0.04840   0.05018

 Mulliken charges:
               1
     1  C    0.035536
     2  C   -0.029306
     3  C   -0.066030
     4  C   -0.020680
     5  N   -0.223554
     6  C   -0.108476
     7  C    0.066927
     8  C   -0.065134
     9  C   -0.028758
    10  C    0.193805
    11  C    0.054378
    12  C    0.020467
    13  C    0.161343
    14  O   -0.245631
    15  O   -0.380814
    16  N   -0.066123
    17  C    0.102840
    18  C   -0.168339
    19  C    0.035745
    20  C    0.096306
    21  C    0.168215
    22  C   -0.055849
    23  C   -0.065105
    24  N   -0.287845
    25  C    0.136622
    26  C   -0.198166
    27  C   -0.072310
    28  C    0.012874
    29  C    0.085656
    30  C    0.149180
    31  C   -0.079122
    32  N   -0.008883
    33  C    0.014095
    34  C   -0.139162
    35  C   -0.028273
    36  C    0.040668
    37  C    0.119330
    38  C    0.056785
    39  O   -0.144032
    40  C    0.020602
    41  C    0.198177
    42  O   -0.279183
    43  O   -0.356509
    44  C    0.269881
    45  C    0.311134
    46  C   -0.086915
    47  C   -0.151645
    48  C   -0.007774
    49  C    0.208907
    50  C    0.061328
    51  C   -0.086911
    52  C    0.063258
    53  C   -0.017719
    54  C   -0.109678
    55  C    0.086392
    56  C   -0.031930
    57  C   -0.088884
    58  C    0.081095
    59  C    0.049082
    60  C    0.036212
    61  C    0.059239
    62  C   -0.157009
    63  C    0.022522
    64  C    0.037262
    65  H   -0.016839
    66  H   -0.080500
    67  H   -0.022734
    68  H    0.002810
    69  H   -0.001087
    70  H   -0.037832
    71  H   -0.011499
    72  H    0.024541
    73  H    0.034226
    74  H   -0.006020
    75  H    0.034599
    76  H    0.023737
    77  H    0.048735
    78  H   -0.015059
    79  H   -0.012640
    80  H    0.041069
    81  H    0.042818
    82  H    0.018679
    83  H    0.026167
    84  H    0.048112
    85  H    0.009049
    86  H   -0.015364
    87  H    0.019405
    88  H    0.021561
    89  H    0.031191
    90  H    0.023284
    91  H    0.019337
    92  H    0.026342
    93  H    0.014492
    94  H    0.027814
    95  H    0.044855
    96  H    0.002939
    97  H    0.019374
    98  H    0.001059
    99  H    0.030574
   100  H   -0.005071
   101  H    0.024395
   102  H    0.040924
   103  H    0.047057
   104  H   -0.013843
   105  H   -0.089713
   106  H    0.006348
   107  H   -0.034349
   108  H   -0.003618
   109  H    0.001993
   110  H   -0.010586
   111  H    0.034118
   112  H    0.007705
   113  H    0.018370
   114  H   -0.011126
   115  H    0.009794
   116  H   -0.007470
   117  H   -0.009794
   118  H    0.011848
   119  H    0.011190
   120  H   -0.012888
   121  H    0.011646
   122  H   -0.016509
   123  H    0.000075
   124  H   -0.015912
   125  H   -0.035201
   126  H   -0.008359
   127  H    0.000589
   128  H   -0.012996
   129  H    0.005134
   130  H    0.002249
   131  H    0.001716
   132  H    0.011259
   133  H    0.010019
   134  H    0.018978
   135  H    0.005300
   136  H    0.024243
   137  H    0.136956
   138  H    0.228223
 Sum of Mulliken charges =   0.00000

 Dipole moment (field-independent basis, Debye):
    X=              2.8404    Y=              4.4860    Z=              0.1150  Tot=              5.3109
 Quadrupole moment (field-independent basis, Debye-Ang):
   XX=           -331.2679   YY=           -378.4844   ZZ=           -394.4506
   XY=            -31.9852   XZ=             10.4790   YZ=             -2.4764

 Normal termination of Gaussian 09 at Fri Aug  2 18:54:00 2019.
