 Gaussian 09, Revision D.01,
 Gaussian 09:  ES64L-G09RevD.01 24-Apr-2013

 --------------------------
 # td=(NStates=1) B3LYP/SVP
 --------------------------

 --
 TD
 --
 Symbolic Z-matrix:
 Charge =  0 Multiplicity = 1

                         Standard orientation:
 ---------------------------------------------------------------------
 Center     Atomic      Atomic             Coordinates (Angstroms)
 Number     Number       Type             X           Y           Z
 ---------------------------------------------------------------------
      1          6           0       -5.144813   -1.891364    0.508721
      2          6           0       -4.565077    2.810853    1.269081
      3          6           0       -9.263874    3.333753   -0.256803
      4          6           0       -9.856610   -1.411044   -0.797752
      5          7           0       -5.082697    0.469429    0.808626
      6          6           0       -4.488475   -0.724507    0.948693
      7          6           0       -3.051870   -0.600332    1.386066
      8          6           0       -2.953750    0.920915    1.830179
      9          6           0       -4.240297    1.419014    1.347698
     10          6           0       -2.838398    1.115347    3.369830
     11          6           0       -2.086594   -1.059943    0.258236
     12          6           0       -0.573456   -0.816174    0.663897
     13          6           0        0.386320   -1.249742   -0.489923
     14          8           0        0.037672   -1.976924   -1.425643
     15          8           0        1.576167   -0.589119   -0.376643
     16          7           0       -6.943848    2.834925    0.482862
     17          6           0       -5.894351    3.503593    1.062972
     18          6           0       -6.147847    4.876359    1.069711
     19          6           0       -7.395715    5.042338    0.602795
     20          6           0       -7.971898    3.653117    0.226208
     21          6           0       -5.069998    5.777718    1.429009
     22          6           0       -8.025157    6.255056    0.375728
     23          6           0       -8.936124    6.506277   -0.640667
     24          7           0       -9.164362    0.954995   -0.384327
     25          6           0       -9.797064    2.066769   -0.548815
     26          6           0      -11.207088    2.007459   -0.962617
     27          6           0      -11.411607    0.613344   -1.157001
     28          6           0      -10.101162    0.003608   -0.716872
     29          6           0      -12.210218    3.088107   -1.174357
     30          6           0      -12.616816   -0.168264   -1.590964
     31          6           0      -12.623700   -0.312233   -3.202110
     32          7           0       -7.533874   -1.286704   -0.076686
     33          6           0       -8.733656   -2.058067   -0.450627
     34          6           0       -8.209198   -3.449576   -0.647240
     35          6           0       -6.851614   -3.451666   -0.255794
     36          6           0       -6.523780   -2.132875    0.122307
     37          6           0       -9.088455   -4.616623   -0.987115
     38          6           0       -5.798168   -4.292764    0.077434
     39          8           0       -5.653944   -5.486301    0.048728
     40          6           0       -4.525908   -3.339569    0.437698
     41          6           0       -3.897127   -3.855294    1.681052
     42          8           0       -4.184145   -3.438779    2.777000
     43          8           0       -3.025973   -4.852495    1.542231
     44          6           0       -2.485625   -5.442174    2.627514
     45          6           0        2.578031   -0.884798   -1.278349
     46          6           0        3.898053   -0.543511   -0.750963
     47          6           0        5.038903    0.057476   -1.212784
     48          6           0        4.924313    0.526345   -2.686277
     49          6           0        6.338819    0.318041   -0.503585
     50          6           0        7.420464   -0.454873   -1.241950
     51          6           0        8.757743   -0.399501   -0.397877
     52          6           0       10.034220   -0.836355   -0.960654
     53          6           0       10.062256   -2.404607   -0.955428
     54          6           0       11.203345   -0.229647   -0.215176
     55          6           0       12.631436   -0.640635   -0.795430
     56          6           0       13.773862    0.002321    0.028238
     57          6           0       15.213625   -0.287812   -0.383044
     58          6           0       15.514143   -1.761175   -0.306183
     59          6           0       16.084799    0.630170    0.562485
     60          6           0       17.517045    0.711340   -0.027740
     61          6           0       18.450727    1.708800    0.753439
     62          6           0       19.927187    1.839535    0.345906
     63          6           0       20.053670    2.255923   -1.136072
     64          6           0       20.823468    2.629914    1.297446
     65          1           0       -3.845278    3.603538    1.357070
     66          1           0       -9.811719    4.152794   -0.338195
     67          1           0      -10.696760   -1.908251   -1.177544
     68          1           0       -2.936459   -1.337516    2.259610
     69          1           0       -2.085389    1.294055    1.237891
     70          1           0       -1.824526    0.520349    3.751535
     71          1           0       -2.884792    2.233909    3.612852
     72          1           0       -3.671507    0.436554    3.812485
     73          1           0       -2.209144   -2.052226   -0.177835
     74          1           0       -2.230739   -0.337203   -0.616689
     75          1           0       -0.392965    0.111603    0.793066
     76          1           0       -0.298213   -1.318581    1.702681
     77          1           0       -4.245537    5.546111    0.659642
     78          1           0       -5.368467    6.785173    1.618329
     79          1           0       -4.613149    5.463618    2.528984
     80          1           0       -7.867410    7.230249    0.860114
     81          1           0       -9.342952    5.569732   -1.292825
     82          1           0       -9.350921    7.617655   -0.999344
     83          1           0      -12.322643    3.685915   -0.243467
     84          1           0      -11.882358    3.852375   -1.926613
     85          1           0      -13.045460    2.676572   -1.671085
     86          1           0      -12.781297   -1.103028   -1.081108
     87          1           0      -13.564215    0.398916   -1.281331
     88          1           0      -12.415606    0.625056   -3.560876
     89          1           0      -11.814383   -1.081657   -3.406494
     90          1           0      -13.717574   -0.690963   -3.509985
     91          1           0       -9.818015   -4.665214   -0.223068
     92          1           0       -9.568058   -4.400226   -2.020474
     93          1           0       -8.352662   -5.444895   -1.056867
     94          1           0       -3.746791   -3.479594   -0.368194
     95          1           0       -1.751667   -6.163561    2.395719
     96          1           0       -1.910890   -4.784508    3.463452
     97          1           0       -3.249529   -5.984118    3.153128
     98          1           0        2.569365   -1.865200   -1.740475
     99          1           0        2.331090   -0.411031   -2.196647
    100          1           0        4.066411   -0.948437    0.123449
    101          1           0        5.245007    1.573174   -3.105345
    102          1           0        5.495799   -0.145985   -3.230953
    103          1           0        3.942647    0.256288   -3.264259
    104          1           0        6.530082    1.546590   -0.680433
    105          1           0        6.449623    0.180838    0.688442
    106          1           0        7.216680   -1.494479   -1.236647
    107          1           0        7.669700   -0.201688   -2.308780
    108          1           0        8.771560    0.830629   -0.362169
    109          1           0        8.546750   -0.569161    0.552012
    110          1           0        9.936171   -0.650996   -2.207672
    111          1           0        9.078069   -2.784191   -1.351814
    112          1           0       10.937935   -2.935427   -1.284013
    113          1           0       10.006162   -2.834658    0.146717
    114          1           0       11.278064    0.902314   -0.237218
    115          1           0       11.127806   -0.323793    0.790505
    116          1           0       12.785123   -1.835443   -0.803556
    117          1           0       13.050170   -0.443581   -1.911015
    118          1           0       13.715405    1.068324    0.086333
    119          1           0       13.556633   -0.336760    1.153415
    120          1           0       15.374678    0.142348   -1.436883
    121          1           0       14.515639   -2.252800   -0.718167
    122          1           0       16.403792   -1.923401   -0.846941
    123          1           0       15.482168   -2.003109    0.954806
    124          1           0       15.707049    1.638902    0.510151
    125          1           0       16.193894   -0.037465    1.670054
    126          1           0       18.216637   -0.190780   -0.005648
    127          1           0       17.495429    1.047224   -1.036199
    128          1           0       17.934414    2.619638    0.946761
    129          1           0       18.287588    1.350057    1.714312
    130          1           0       20.515594    0.871048    0.313035
    131          1           0       19.416189    3.173637   -1.280543
    132          1           0       20.987006    2.363115   -1.608683
    133          1           0       19.517404    1.438956   -1.833124
    134          1           0       20.663723    2.176589    2.239083
    135          1           0       21.751610    2.740865    0.903988
    136          1           0       20.286162    3.478300    1.446877
    137          1           0       -7.066530    1.744804    0.559435
    138          1           0       -7.578009   -0.217651   -0.018512
 ---------------------------------------------------------------------

 SCF Done:  E(RB3LYP) =  -2733.05838415     A.U. after   17 cycles

 Excitation energies and oscillator strengths:

 Excited State   1:      Singlet-A      1.9665 eV  630.49 nm  f=0.1184  <S**2>=0.000
     235 -> 238       -0.34779
     236 -> 237        0.61185
 This state for optimization and/or second-order correction.
 Total Energy, E(TD-HF/TD-KS) =  -2732.98611742
 Copying the excited state density for this state as the 1-particle RhoCI density.

 The electronic state is 1-A.
 Alpha  occ. eigenvalues --  -19.18819 -19.17491 -19.13267 -19.11883 -19.10845
 Alpha  occ. eigenvalues --  -14.37648 -14.36834 -14.32224 -14.30448 -10.32550
 Alpha  occ. eigenvalues --  -10.30500 -10.27347 -10.24068 -10.24066 -10.23897
 Alpha  occ. eigenvalues --  -10.23867 -10.23701 -10.23635 -10.23220 -10.22854
 Alpha  occ. eigenvalues --  -10.22772 -10.22349 -10.21958 -10.21898 -10.21490
 Alpha  occ. eigenvalues --  -10.21362 -10.21234 -10.21145 -10.20896 -10.20837
 Alpha  occ. eigenvalues --  -10.20806 -10.20792 -10.20753 -10.20544 -10.20467
 Alpha  occ. eigenvalues --  -10.20415 -10.20343 -10.20331 -10.20169 -10.20160
 Alpha  occ. eigenvalues --  -10.20045 -10.20005 -10.19938 -10.19778 -10.19654
 Alpha  occ. eigenvalues --  -10.19425 -10.19417 -10.19306 -10.19282 -10.19149
 Alpha  occ. eigenvalues --  -10.19111 -10.19052 -10.19019 -10.18984 -10.18945
 Alpha  occ. eigenvalues --  -10.18919 -10.18833 -10.18230 -10.18122 -10.18041
 Alpha  occ. eigenvalues --  -10.17997 -10.17566 -10.16909 -10.15610  -1.10895
 Alpha  occ. eigenvalues --   -1.10094  -1.03137  -1.00921  -1.00313  -0.98798
 Alpha  occ. eigenvalues --   -0.96900  -0.94870  -0.94443  -0.83822  -0.83364
 Alpha  occ. eigenvalues --   -0.82969  -0.81838  -0.81213  -0.80996  -0.80472
 Alpha  occ. eigenvalues --   -0.80108  -0.79914  -0.79425  -0.79124  -0.78065
 Alpha  occ. eigenvalues --   -0.77130  -0.76171  -0.75682  -0.74873  -0.74379
 Alpha  occ. eigenvalues --   -0.74258  -0.73298  -0.72393  -0.71650  -0.70545
 Alpha  occ. eigenvalues --   -0.69983  -0.69139  -0.68343  -0.68262  -0.67649
 Alpha  occ. eigenvalues --   -0.67497  -0.67141  -0.66765  -0.65995  -0.65785
 Alpha  occ. eigenvalues --   -0.64266  -0.62929  -0.62689  -0.62118  -0.61689
 Alpha  occ. eigenvalues --   -0.61251  -0.59620  -0.58900  -0.58269  -0.58180
 Alpha  occ. eigenvalues --   -0.56857  -0.56708  -0.56307  -0.56091  -0.55588
 Alpha  occ. eigenvalues --   -0.55403  -0.54253  -0.54021  -0.53534  -0.53307
 Alpha  occ. eigenvalues --   -0.53143  -0.52132  -0.51432  -0.51106  -0.50087
 Alpha  occ. eigenvalues --   -0.49777  -0.49516  -0.49351  -0.48689  -0.48155
 Alpha  occ. eigenvalues --   -0.48025  -0.47944  -0.47469  -0.47407  -0.47277
 Alpha  occ. eigenvalues --   -0.47039  -0.46986  -0.46707  -0.46427  -0.46109
 Alpha  occ. eigenvalues --   -0.45667  -0.45393  -0.45326  -0.44750  -0.44662
 Alpha  occ. eigenvalues --   -0.44568  -0.44335  -0.44187  -0.44078  -0.43782
 Alpha  occ. eigenvalues --   -0.43504  -0.43359  -0.43025  -0.42788  -0.42624
 Alpha  occ. eigenvalues --   -0.42591  -0.42176  -0.42160  -0.41757  -0.41565
 Alpha  occ. eigenvalues --   -0.41308  -0.40959  -0.40765  -0.40503  -0.40323
 Alpha  occ. eigenvalues --   -0.40053  -0.39868  -0.39537  -0.39472  -0.39360
 Alpha  occ. eigenvalues --   -0.39015  -0.38889  -0.38656  -0.38546  -0.38526
 Alpha  occ. eigenvalues --   -0.38364  -0.38233  -0.38169  -0.37998  -0.37830
 Alpha  occ. eigenvalues --   -0.37274  -0.37093  -0.36914  -0.36878  -0.36659
 Alpha  occ. eigenvalues --   -0.36508  -0.36449  -0.36316  -0.36101  -0.35982
 Alpha  occ. eigenvalues --   -0.35769  -0.35311  -0.34966  -0.34858  -0.34823
 Alpha  occ. eigenvalues --   -0.34611  -0.34439  -0.34349  -0.34034  -0.33763
 Alpha  occ. eigenvalues --   -0.33621  -0.33453  -0.33402  -0.33066  -0.32997
 Alpha  occ. eigenvalues --   -0.32684  -0.32300  -0.31894  -0.31550  -0.31388
 Alpha  occ. eigenvalues --   -0.31062  -0.30651  -0.30449  -0.29797  -0.29459
 Alpha  occ. eigenvalues --   -0.29450  -0.29138  -0.28579  -0.28425  -0.27921
 Alpha  occ. eigenvalues --   -0.27758  -0.27319  -0.26771  -0.26392  -0.25766
 Alpha  occ. eigenvalues --   -0.24612  -0.24293  -0.23759  -0.22721  -0.19425
 Alpha  occ. eigenvalues --   -0.18934
 Alpha virt. eigenvalues --   -0.10408  -0.08272  -0.04343  -0.02073  -0.00998
 Alpha virt. eigenvalues --   -0.00108   0.00196   0.00638   0.01800   0.03624
 Alpha virt. eigenvalues --    0.03691   0.03825   0.03882   0.04686   0.04924

 Mulliken charges:
               1
     1  C    0.065761
     2  C   -0.045151
     3  C   -0.026077
     4  C   -0.070817
     5  N   -0.188002
     6  C   -0.060409
     7  C   -0.059708
     8  C    0.007905
     9  C    0.024586
    10  C   -0.000837
    11  C    0.011606
    12  C    0.092463
    13  C    0.187220
    14  O   -0.246249
    15  O   -0.289129
    16  N   -0.060466
    17  C    0.014167
    18  C   -0.097428
    19  C    0.117181
    20  C    0.036882
    21  C    0.063685
    22  C   -0.110875
    23  C   -0.155033
    24  N   -0.180785
    25  C    0.099807
    26  C   -0.186109
    27  C   -0.088592
    28  C    0.020712
    29  C    0.154734
    30  C    0.004125
    31  C    0.013270
    32  N   -0.118452
    33  C    0.160690
    34  C   -0.160758
    35  C    0.051438
    36  C    0.050700
    37  C    0.105163
    38  C    0.029755
    39  O   -0.161902
    40  C   -0.096095
    41  C    0.173584
    42  O   -0.236975
    43  O   -0.239881
    44  C    0.184221
    45  C    0.359335
    46  C   -0.065835
    47  C   -0.096463
    48  C    0.016701
    49  C    0.012920
    50  C    0.034031
    51  C   -0.007133
    52  C   -0.013449
    53  C   -0.001507
    54  C    0.109795
    55  C   -0.041025
    56  C   -0.003193
    57  C   -0.119919
    58  C    0.032780
    59  C    0.021445
    60  C   -0.017660
    61  C    0.079656
    62  C   -0.114112
    63  C   -0.003043
    64  C    0.184543
    65  H   -0.039243
    66  H   -0.112093
    67  H   -0.052147
    68  H    0.032416
    69  H    0.013407
    70  H    0.033239
    71  H    0.044728
    72  H    0.048768
    73  H    0.037698
    74  H    0.011640
    75  H   -0.046270
    76  H    0.047251
    77  H    0.061157
    78  H    0.009264
    79  H    0.041141
    80  H    0.004068
    81  H    0.053242
    82  H    0.061127
    83  H    0.033127
    84  H    0.007001
    85  H   -0.001613
    86  H    0.005569
    87  H    0.008113
    88  H    0.005907
    89  H    0.027607
    90  H    0.032513
    91  H    0.036720
    92  H    0.040072
    93  H    0.049681
    94  H    0.063171
    95  H    0.006129
    96  H    0.020976
    97  H    0.009645
    98  H    0.011747
    99  H   -0.035497
   100  H   -0.078791
   101  H    0.032581
   102  H   -0.003865
   103  H    0.006952
   104  H    0.037472
   105  H    0.038588
   106  H   -0.010239
   107  H    0.021106
   108  H   -0.012967
   109  H   -0.053747
   110  H    0.012772
   111  H    0.011871
   112  H    0.020399
   113  H   -0.010363
   114  H   -0.003172
   115  H   -0.034252
   116  H    0.023688
   117  H    0.011247
   118  H   -0.022838
   119  H   -0.008999
   120  H   -0.001228
   121  H    0.020370
   122  H    0.015871
   123  H    0.022854
   124  H   -0.001174
   125  H    0.028385
   126  H    0.009251
   127  H   -0.012991
   128  H   -0.038846
   129  H   -0.049263
   130  H   -0.010434
   131  H    0.002944
   132  H   -0.002174
   133  H    0.011681
   134  H   -0.018233
   135  H   -0.007879
   136  H   -0.043193
   137  H    0.196694
   138  H    0.171870
 Sum of Mulliken charges =   0.00000

 Dipole moment (field-independent basis, Debye):
    X=              1.4068    Y=              5.0307    Z=             -0.1768  Tot=              5.2267
 Quadrupole moment (field-independent basis, Debye-Ang):
   XX=           -346.6570   YY=           -388.1969   ZZ=           -396.1065
   XY=            -23.0542   XZ=             11.4041   YZ=              1.6187

 Normal termination of Gaussian 09 at Tue Jul 30 08:43:04 2019.
