 Gaussian 09, Revision D.01,
 Gaussian 09:  ES64L-G09RevD.01 24-Apr-2013

 --------------------------
 # td=(NStates=1) B3LYP/SVP
 --------------------------

 --
 TD
 --
 Symbolic Z-matrix:
 Charge =  0 Multiplicity = 1

                         Standard orientation:
 ---------------------------------------------------------------------
 Center     Atomic      Atomic             Coordinates (Angstroms)
 Number     Number       Type             X           Y           Z
 ---------------------------------------------------------------------
      1          6           0       -5.159245   -1.951691    0.412997
      2          6           0       -4.738032    2.758393    1.444265
      3          6           0       -9.326529    3.381035   -0.209924
      4          6           0       -9.859237   -1.401666   -1.019982
      5          7           0       -5.194196    0.418950    0.825001
      6          6           0       -4.543764   -0.726335    0.897817
      7          6           0       -3.060330   -0.519923    1.316654
      8          6           0       -3.107437    0.830245    1.876671
      9          6           0       -4.359329    1.393510    1.315628
     10          6           0       -3.128800    0.880163    3.457122
     11          6           0       -1.986582   -0.790332    0.187010
     12          6           0       -0.616669   -0.984542    0.680080
     13          6           0        0.361058   -1.230336   -0.455410
     14          8           0        0.020637   -1.752597   -1.530141
     15          8           0        1.602086   -0.873531   -0.208819
     16          7           0       -7.005804    2.870104    0.509009
     17          6           0       -5.861043    3.534870    0.986209
     18          6           0       -6.106680    4.884736    0.955597
     19          6           0       -7.318768    5.076621    0.407210
     20          6           0       -8.018122    3.801399    0.244469
     21          6           0       -5.109304    5.917917    1.490892
     22          6           0       -7.986977    6.410412    0.214692
     23          6           0       -8.964109    6.638646   -0.740308
     24          7           0       -9.104032    0.988564   -0.570429
     25          6           0       -9.818934    2.108351   -0.581192
     26          6           0      -11.163349    1.943621   -0.897970
     27          6           0      -11.369098    0.591515   -1.107180
     28          6           0      -10.038298    0.055801   -0.876481
     29          6           0      -12.181876    3.193139   -1.074557
     30          6           0      -12.563995   -0.135091   -1.555982
     31          6           0      -12.622769   -0.498143   -3.078535
     32          7           0       -7.532136   -1.241885   -0.422272
     33          6           0       -8.649128   -2.002216   -0.810424
     34          6           0       -8.211032   -3.339541   -0.746188
     35          6           0       -6.943704   -3.463664   -0.258882
     36          6           0       -6.421820   -2.041601   -0.057563
     37          6           0       -9.033679   -4.505716   -1.213671
     38          6           0       -5.733952   -4.227169    0.011444
     39          8           0       -5.732907   -5.469346   -0.163259
     40          6           0       -4.625549   -3.356631    0.517670
     41          6           0       -4.034278   -3.752163    1.814446
     42          8           0       -4.255561   -3.355240    2.929958
     43          8           0       -3.236486   -4.795746    1.544432
     44          6           0       -2.888544   -5.447461    2.916031
     45          6           0        2.635812   -1.175626   -1.064396
     46          6           0        3.960451   -0.884663   -0.499676
     47          6           0        4.913661   -0.155756   -1.065097
     48          6           0        4.937186    0.480566   -2.352981
     49          6           0        6.212813    0.051669   -0.182205
     50          6           0        7.485300   -0.566933   -0.857192
     51          6           0        8.754378   -0.353008   -0.125375
     52          6           0       10.073634   -0.912980   -0.730230
     53          6           0       10.067614   -2.454154   -0.797534
     54          6           0       11.337015   -0.376563   -0.022959
     55          6           0       12.690070   -0.717976   -0.695995
     56          6           0       13.898703   -0.057244    0.046585
     57          6           0       15.308595   -0.177574   -0.520622
     58          6           0       15.842390   -1.591585   -0.768485
     59          6           0       16.261537    0.681872    0.339044
     60          6           0       17.772184    0.717325   -0.066982
     61          6           0       18.644803    1.809299    0.602932
     62          6           0       20.062835    1.887183    0.152712
     63          6           0       20.097693    2.318324   -1.203252
     64          6           0       20.794037    2.746956    1.122560
     65          1           0       -3.865613    3.341003    1.891524
     66          1           0      -10.014807    4.167732   -0.406305
     67          1           0      -10.741473   -2.150796   -1.310840
     68          1           0       -2.944333   -1.332537    2.189481
     69          1           0       -2.313916    1.493332    1.644656
     70          1           0       -2.230170    0.327337    4.053465
     71          1           0       -3.074448    1.892726    3.850112
     72          1           0       -4.310214    0.525243    3.776472
     73          1           0       -2.395949   -1.629626   -0.276361
     74          1           0       -1.900879    0.050473   -0.598752
     75          1           0       -0.133974   -0.061695    1.384036
     76          1           0       -0.660432   -1.859593    1.306864
     77          1           0       -4.198084    5.897325    0.711812
     78          1           0       -5.561911    6.794557    1.269707
     79          1           0       -4.722501    5.719758    2.363721
     80          1           0       -7.661042    7.356143    0.841511
     81          1           0       -9.049870    5.681916   -1.567270
     82          1           0       -9.531165    7.584666   -1.093485
     83          1           0      -12.109554    3.758067   -0.104975
     84          1           0      -11.785606    3.677118   -2.010950
     85          1           0      -13.233150    2.979378   -1.226029
     86          1           0      -12.804649   -0.962608   -0.922365
     87          1           0      -13.584490    0.506569   -1.334405
     88          1           0      -12.882004    0.383216   -3.648487
     89          1           0      -11.934526   -1.418173   -3.190573
     90          1           0      -13.505872   -1.031682   -3.257487
     91          1           0       -9.957501   -4.771787   -0.771777
     92          1           0       -9.277893   -4.178775   -2.284446
     93          1           0       -8.429011   -5.459766   -1.355718
     94          1           0       -3.951643   -3.502575   -0.304256
     95          1           0       -2.208784   -5.941567    2.674750
     96          1           0       -2.607146   -4.799234    3.734756
     97          1           0       -3.876336   -5.723915    3.392447
     98          1           0        2.670381   -2.273404   -1.280281
     99          1           0        2.518218   -0.616129   -1.983084
    100          1           0        4.066848   -1.365978    0.508709
    101          1           0        5.465796    1.449195   -2.354651
    102          1           0        5.580598    0.025175   -3.031576
    103          1           0        3.926596    0.388861   -3.020722
    104          1           0        6.389263    1.188313   -0.158755
    105          1           0        6.057040   -0.539221    0.662372
    106          1           0        7.267407   -1.632587   -0.990076
    107          1           0        7.540606   -0.283786   -1.926951
    108          1           0        8.980434    0.634578    0.120655
    109          1           0        8.701700   -0.789499    0.865767
    110          1           0        9.982048   -0.527751   -1.945379
    111          1           0        9.385101   -2.557397   -1.577400
    112          1           0       11.006174   -2.842989   -1.356586
    113          1           0        9.730498   -2.891443    0.072472
    114          1           0       11.324854    0.682848    0.115413
    115          1           0       11.168301   -0.964106    0.932889
    116          1           0       12.767665   -1.924027   -0.799455
    117          1           0       12.750120   -0.365634   -1.638573
    118          1           0       13.579844    1.104686    0.413635
    119          1           0       13.911880   -0.404918    1.082206
    120          1           0       15.195859    0.396531   -1.528265
    121          1           0       15.225764   -2.245780   -1.333713
    122          1           0       16.947285   -1.744393   -1.225295
    123          1           0       15.950733   -2.196576    0.161920
    124          1           0       15.831257    1.706833    0.409103
    125          1           0       16.134332    0.626965    1.584263
    126          1           0       18.140189   -0.229039    0.127017
    127          1           0       17.908617    0.679830   -1.272107
    128          1           0       18.187850    2.752534    0.364547
    129          1           0       18.791983    1.621894    1.687876
    130          1           0       20.503742    0.689643    0.160688
    131          1           0       19.969237    3.499188   -1.506791
    132          1           0       21.223960    2.220990   -1.707822
    133          1           0       19.472569    1.642232   -1.705285
    134          1           0       20.642668    2.487538    2.229544
    135          1           0       22.000558    2.791041    1.049162
    136          1           0       20.484605    3.768963    1.143494
    137          1           0       -7.067092    1.988225    0.158099
    138          1           0       -7.550351   -0.313804   -0.535501
 ---------------------------------------------------------------------

 SCF Done:  E(RB3LYP) =  -2733.01163260     A.U. after   17 cycles

 Excitation energies and oscillator strengths:

 Excited State   1:      Singlet-A      2.0410 eV  607.46 nm  f=0.1295  <S**2>=0.000
     235 -> 237        0.11245
     235 -> 238        0.33010
     236 -> 237        0.60775
 This state for optimization and/or second-order correction.
 Total Energy, E(TD-HF/TD-KS) =  -2732.93662659
 Copying the excited state density for this state as the 1-particle RhoCI density.

 The electronic state is 1-A.
 Alpha  occ. eigenvalues --  -19.18573 -19.18340 -19.13269 -19.11711 -19.11604
 Alpha  occ. eigenvalues --  -14.35642 -14.35385 -14.32234 -14.29472 -10.31862
 Alpha  occ. eigenvalues --  -10.31811 -10.27992 -10.24432 -10.23763 -10.23651
 Alpha  occ. eigenvalues --  -10.23548 -10.23488 -10.23376 -10.22995 -10.22794
 Alpha  occ. eigenvalues --  -10.22171 -10.21812 -10.21599 -10.21579 -10.21574
 Alpha  occ. eigenvalues --  -10.21504 -10.21163 -10.21097 -10.20967 -10.20810
 Alpha  occ. eigenvalues --  -10.20432 -10.20419 -10.20352 -10.20278 -10.20195
 Alpha  occ. eigenvalues --  -10.20192 -10.20076 -10.19890 -10.19858 -10.19717
 Alpha  occ. eigenvalues --  -10.19707 -10.19668 -10.19635 -10.19630 -10.19579
 Alpha  occ. eigenvalues --  -10.19512 -10.19486 -10.19386 -10.19263 -10.19176
 Alpha  occ. eigenvalues --  -10.18797 -10.18780 -10.18776 -10.18672 -10.18668
 Alpha  occ. eigenvalues --  -10.18617 -10.18574 -10.18530 -10.18356 -10.18089
 Alpha  occ. eigenvalues --  -10.17823 -10.17676 -10.17625 -10.17260  -1.11430
 Alpha  occ. eigenvalues --   -1.09687  -1.00669  -1.00367  -0.99607  -0.97319
 Alpha  occ. eigenvalues --   -0.96701  -0.95377  -0.94512  -0.86150  -0.83368
 Alpha  occ. eigenvalues --   -0.82883  -0.82180  -0.81896  -0.81533  -0.80779
 Alpha  occ. eigenvalues --   -0.80250  -0.79775  -0.79055  -0.78622  -0.78160
 Alpha  occ. eigenvalues --   -0.77343  -0.76269  -0.75709  -0.74948  -0.74039
 Alpha  occ. eigenvalues --   -0.73887  -0.73395  -0.72146  -0.72072  -0.71443
 Alpha  occ. eigenvalues --   -0.70485  -0.70119  -0.69349  -0.68575  -0.68133
 Alpha  occ. eigenvalues --   -0.67747  -0.67405  -0.66829  -0.66198  -0.65978
 Alpha  occ. eigenvalues --   -0.64569  -0.63024  -0.62383  -0.62160  -0.61659
 Alpha  occ. eigenvalues --   -0.61021  -0.59622  -0.58752  -0.57787  -0.57643
 Alpha  occ. eigenvalues --   -0.57206  -0.56778  -0.56239  -0.55747  -0.55358
 Alpha  occ. eigenvalues --   -0.54896  -0.54471  -0.54064  -0.53999  -0.53668
 Alpha  occ. eigenvalues --   -0.53067  -0.52415  -0.52147  -0.51581  -0.51339
 Alpha  occ. eigenvalues --   -0.50507  -0.49803  -0.49566  -0.49338  -0.48571
 Alpha  occ. eigenvalues --   -0.48145  -0.47984  -0.47507  -0.47305  -0.47084
 Alpha  occ. eigenvalues --   -0.46821  -0.46746  -0.46406  -0.46292  -0.46113
 Alpha  occ. eigenvalues --   -0.45954  -0.45466  -0.45281  -0.45044  -0.44738
 Alpha  occ. eigenvalues --   -0.44365  -0.44169  -0.43918  -0.43844  -0.43759
 Alpha  occ. eigenvalues --   -0.43498  -0.43399  -0.43305  -0.42827  -0.42595
 Alpha  occ. eigenvalues --   -0.42359  -0.42092  -0.41788  -0.41739  -0.41298
 Alpha  occ. eigenvalues --   -0.41122  -0.40685  -0.40534  -0.40359  -0.39974
 Alpha  occ. eigenvalues --   -0.39929  -0.39861  -0.39615  -0.39523  -0.39501
 Alpha  occ. eigenvalues --   -0.39276  -0.38987  -0.38863  -0.38751  -0.38325
 Alpha  occ. eigenvalues --   -0.38255  -0.38023  -0.37808  -0.37760  -0.37307
 Alpha  occ. eigenvalues --   -0.37292  -0.37115  -0.36975  -0.36878  -0.36640
 Alpha  occ. eigenvalues --   -0.36497  -0.36443  -0.36275  -0.35984  -0.35689
 Alpha  occ. eigenvalues --   -0.35660  -0.35449  -0.35050  -0.34723  -0.34646
 Alpha  occ. eigenvalues --   -0.34355  -0.34244  -0.33763  -0.33496  -0.33379
 Alpha  occ. eigenvalues --   -0.33323  -0.33158  -0.33070  -0.32845  -0.32820
 Alpha  occ. eigenvalues --   -0.32190  -0.31783  -0.31647  -0.31475  -0.31444
 Alpha  occ. eigenvalues --   -0.31085  -0.30558  -0.30288  -0.30270  -0.29961
 Alpha  occ. eigenvalues --   -0.29728  -0.29390  -0.29083  -0.28947  -0.27889
 Alpha  occ. eigenvalues --   -0.27752  -0.27225  -0.27096  -0.26189  -0.25790
 Alpha  occ. eigenvalues --   -0.25049  -0.24643  -0.24123  -0.22508  -0.19849
 Alpha  occ. eigenvalues --   -0.18884
 Alpha virt. eigenvalues --   -0.10096  -0.08325  -0.04688  -0.01995  -0.00646
 Alpha virt. eigenvalues --   -0.00455   0.00510   0.00669   0.02055   0.03576
 Alpha virt. eigenvalues --    0.03952   0.04035   0.04175   0.04476   0.05048

 Mulliken charges:
               1
     1  C   -0.033181
     2  C   -0.048185
     3  C   -0.058180
     4  C   -0.135283
     5  N   -0.132753
     6  C   -0.099380
     7  C   -0.063602
     8  C    0.039640
     9  C   -0.052204
    10  C   -0.032682
    11  C    0.113788
    12  C    0.027561
    13  C    0.161123
    14  O   -0.271155
    15  O   -0.252598
    16  N   -0.063698
    17  C    0.111288
    18  C   -0.174227
    19  C    0.028981
    20  C    0.063492
    21  C    0.245613
    22  C   -0.064157
    23  C   -0.125990
    24  N   -0.183446
    25  C    0.057605
    26  C   -0.154365
    27  C   -0.071172
    28  C    0.058188
    29  C    0.087533
    30  C   -0.017876
    31  C    0.087561
    32  N   -0.050297
    33  C    0.101950
    34  C   -0.153071
    35  C    0.057823
    36  C    0.080902
    37  C    0.069023
    38  C   -0.006573
    39  O   -0.205279
    40  C    0.110897
    41  C    0.210126
    42  O   -0.222250
    43  O   -0.323386
    44  C    0.317591
    45  C    0.308409
    46  C   -0.156767
    47  C   -0.118407
    48  C    0.103716
    49  C    0.109163
    50  C   -0.000978
    51  C    0.131248
    52  C   -0.202469
    53  C    0.103527
    54  C    0.053734
    55  C    0.091349
    56  C   -0.069028
    57  C    0.014494
    58  C    0.014666
    59  C   -0.033595
    60  C    0.034180
    61  C    0.054299
    62  C   -0.103856
    63  C    0.005858
    64  C    0.023062
    65  H   -0.021762
    66  H   -0.041286
    67  H    0.023903
    68  H    0.040504
    69  H   -0.023975
    70  H    0.041513
    71  H    0.007664
    72  H    0.051320
    73  H   -0.012900
    74  H    0.019980
    75  H    0.048827
    76  H    0.019798
    77  H    0.023211
    78  H   -0.030655
    79  H   -0.007957
    80  H    0.039146
    81  H    0.058404
    82  H    0.057519
    83  H    0.042099
    84  H    0.039263
    85  H    0.003447
    86  H   -0.006001
    87  H   -0.001434
    88  H    0.018319
    89  H    0.018406
    90  H   -0.029720
    91  H    0.023304
    92  H    0.022809
    93  H    0.044482
    94  H    0.048876
    95  H   -0.069249
    96  H    0.027691
    97  H    0.047780
    98  H    0.020378
    99  H   -0.011693
   100  H   -0.005809
   101  H    0.005559
   102  H    0.001824
   103  H    0.031386
   104  H    0.021118
   105  H   -0.018839
   106  H   -0.013349
   107  H   -0.018287
   108  H   -0.041537
   109  H   -0.033733
   110  H   -0.014386
   111  H   -0.019913
   112  H    0.017778
   113  H   -0.001870
   114  H   -0.010643
   115  H    0.000582
   116  H    0.019351
   117  H   -0.038034
   118  H    0.002119
   119  H   -0.021170
   120  H    0.007949
   121  H   -0.002647
   122  H    0.025936
   123  H    0.000492
   124  H   -0.018734
   125  H   -0.006262
   126  H   -0.024247
   127  H    0.014630
   128  H   -0.012304
   129  H    0.000336
   130  H    0.008090
   131  H    0.025522
   132  H    0.005326
   133  H   -0.011039
   134  H    0.001900
   135  H    0.018758
   136  H   -0.008126
   137  H    0.102571
   138  H    0.079393
 Sum of Mulliken charges =   0.00000

 Dipole moment (field-independent basis, Debye):
    X=              2.6822    Y=              3.6736    Z=              0.8540  Tot=              4.6281
 Quadrupole moment (field-independent basis, Debye-Ang):
   XX=           -371.9349   YY=           -383.1475   ZZ=           -392.2885
   XY=            -21.0121   XZ=             13.9143   YZ=             -5.8784

 Normal termination of Gaussian 09 at Thu Jul 25 20:11:31 2019.
