 Gaussian 09, Revision D.01,
 Gaussian 09:  ES64L-G09RevD.01 24-Apr-2013

 --------------------------
 # td=(NStates=1) B3LYP/SVP
 --------------------------

 --
 TD
 --
 Symbolic Z-matrix:
 Charge =  0 Multiplicity = 1

                         Standard orientation:
 ---------------------------------------------------------------------
 Center     Atomic      Atomic             Coordinates (Angstroms)
 Number     Number       Type             X           Y           Z
 ---------------------------------------------------------------------
      1          6           0       -5.105932   -2.037929    0.386110
      2          6           0       -4.649516    2.825834    1.154448
      3          6           0       -9.379353    3.291715   -0.084313
      4          6           0       -9.849299   -1.419256   -0.847011
      5          7           0       -5.282438    0.455663    0.760469
      6          6           0       -4.566140   -0.675236    0.730004
      7          6           0       -3.066238   -0.503913    1.185040
      8          6           0       -3.060853    0.936967    1.608244
      9          6           0       -4.441033    1.461337    1.119332
     10          6           0       -2.994596    1.115261    3.107334
     11          6           0       -2.054201   -0.860458   -0.041583
     12          6           0       -0.596260   -1.096615    0.479062
     13          6           0        0.495622   -1.447562   -0.612019
     14          8           0        0.195702   -1.886634   -1.643667
     15          8           0        1.726696   -1.111205   -0.161003
     16          7           0       -6.937939    2.779542    0.446488
     17          6           0       -5.894836    3.465690    0.929266
     18          6           0       -6.222771    4.843513    0.991925
     19          6           0       -7.571756    4.984378    0.536208
     20          6           0       -8.067170    3.612754    0.266850
     21          6           0       -5.355703    5.871884    1.405984
     22          6           0       -8.242685    6.246618    0.410121
     23          6           0       -9.093914    6.600398   -0.642432
     24          7           0       -9.187544    0.896071   -0.371967
     25          6           0       -9.874212    2.065606   -0.495963
     26          6           0      -11.273394    1.952162   -0.877648
     27          6           0      -11.463632    0.610803   -1.060818
     28          6           0      -10.196511   -0.023212   -0.699669
     29          6           0      -12.340462    2.970413   -1.001493
     30          6           0      -12.595538   -0.151571   -1.607931
     31          6           0      -12.610886   -0.166914   -3.267088
     32          7           0       -7.521364   -1.253086   -0.095230
     33          6           0       -8.596803   -1.969757   -0.513570
     34          6           0       -8.310619   -3.337936   -0.540767
     35          6           0       -6.977095   -3.318447   -0.205721
     36          6           0       -6.454230   -2.069819   -0.025131
     37          6           0       -9.075256   -4.528202   -1.244123
     38          6           0       -5.861866   -4.251110    0.007952
     39          8           0       -5.731965   -5.483444    0.055397
     40          6           0       -4.517326   -3.353539    0.390675
     41          6           0       -4.056941   -3.854672    1.742562
     42          8           0       -4.328522   -3.284451    2.816382
     43          8           0       -3.131305   -4.802648    1.584109
     44          6           0       -2.569539   -5.285710    2.815743
     45          6           0        2.785118   -1.467961   -1.027866
     46          6           0        4.083385   -0.895966   -0.442167
     47          6           0        4.997515   -0.173257   -1.082472
     48          6           0        4.865752    0.357153   -2.481526
     49          6           0        6.257686    0.191582   -0.346734
     50          6           0        7.590621   -0.269129   -1.004176
     51          6           0        8.796757   -0.156270   -0.099847
     52          6           0       10.118523   -0.670508   -0.761622
     53          6           0       10.089109   -2.204988   -0.739646
     54          6           0       11.307099   -0.146267    0.117304
     55          6           0       12.741624   -0.434967   -0.570734
     56          6           0       13.888018    0.078302    0.292780
     57          6           0       15.312574   -0.142463   -0.402629
     58          6           0       15.698182   -1.636362   -0.435051
     59          6           0       16.362151    0.673038    0.404258
     60          6           0       17.758619    0.749687   -0.217800
     61          6           0       18.671124    1.662480    0.610523
     62          6           0       20.109406    1.691761    0.109883
     63          6           0       20.230900    2.348555   -1.252850
     64          6           0       20.947039    2.577067    0.994162
     65          1           0       -3.725630    3.433130    1.530372
     66          1           0      -10.210322    4.049867    0.254437
     67          1           0      -10.525790   -2.305513   -1.088675
     68          1           0       -2.783997   -1.194053    1.955385
     69          1           0       -2.067718    1.545788    1.370500
     70          1           0       -2.077588    0.613119    3.416032
     71          1           0       -2.818578    2.195905    3.520382
     72          1           0       -3.725584    0.649951    3.841447
     73          1           0       -2.455448   -1.856374   -0.444757
     74          1           0       -2.063558   -0.008826   -0.858218
     75          1           0       -0.387121   -0.118899    0.819230
     76          1           0       -0.622643   -1.979040    1.111916
     77          1           0       -4.364811    5.848424    0.835474
     78          1           0       -5.756467    6.865164    1.472363
     79          1           0       -4.814683    5.648595    2.305647
     80          1           0       -8.140187    7.083104    1.126350
     81          1           0       -9.425626    6.007243   -1.442855
     82          1           0       -9.401508    7.648312   -0.514187
     83          1           0      -12.471883    3.650671   -0.081667
     84          1           0      -12.036161    3.627805   -1.877012
     85          1           0      -13.367138    2.509640   -1.301113
     86          1           0      -12.796515   -1.126766   -1.288083
     87          1           0      -13.575545    0.396817   -1.318667
     88          1           0      -12.734773    0.901947   -3.581183
     89          1           0      -11.640115   -0.541352   -3.617445
     90          1           0      -13.541764   -0.764162   -3.554494
     91          1           0      -10.257175   -4.569411   -0.999166
     92          1           0       -9.036320   -4.733130   -2.445708
     93          1           0       -8.591354   -5.585120   -0.892598
     94          1           0       -3.695145   -3.440817   -0.184844
     95          1           0       -1.941370   -5.910647    2.469943
     96          1           0       -1.968492   -4.602679    3.307788
     97          1           0       -3.277205   -5.737627    3.433210
     98          1           0        2.694183   -2.578869   -1.044772
     99          1           0        2.327078   -1.119120   -1.845972
    100          1           0        4.318908   -1.598092    0.436836
    101          1           0        5.358916    1.399559   -2.432227
    102          1           0        5.364972   -0.300380   -3.124547
    103          1           0        3.878578    0.502046   -2.809403
    104          1           0        6.231495    1.360848   -0.357977
    105          1           0        6.165594   -0.301567    0.614321
    106          1           0        7.355087   -1.442243   -1.114547
    107          1           0        7.647440    0.176591   -2.011212
    108          1           0        9.050430    0.910415   -0.046786
    109          1           0        8.568851   -0.629231    0.923671
    110          1           0       10.168105   -0.120780   -1.704386
    111          1           0        9.197383   -2.679757   -1.374848
    112          1           0       10.980336   -2.595647   -1.084465
    113          1           0        9.847699   -2.706420    0.264638
    114          1           0       11.060462    0.975277    0.159342
    115          1           0       11.083231   -0.644900    1.253265
    116          1           0       12.744784   -1.521899   -0.743560
    117          1           0       12.836748    0.058488   -1.603652
    118          1           0       13.825749    1.131500    0.620865
    119          1           0       13.956417   -0.620439    1.227331
    120          1           0       15.358482    0.019980   -1.405982
    121          1           0       15.047042   -2.227112   -1.192574
    122          1           0       16.538185   -1.900654   -0.846380
    123          1           0       15.500050   -1.989844    0.661783
    124          1           0       15.885329    1.771918    0.475161
    125          1           0       16.305691    0.262267    1.420990
    126          1           0       18.323101   -0.349661   -0.156612
    127          1           0       17.814972    1.024596   -1.280049
    128          1           0       18.098588    2.578443    0.834468
    129          1           0       18.652597    1.093567    1.558311
    130          1           0       20.395149    0.648099   -0.021505
    131          1           0       20.089189    3.455996   -1.052327
    132          1           0       21.160562    2.513230   -1.725228
    133          1           0       19.718262    1.788962   -1.835793
    134          1           0       20.995295    1.873970    1.872685
    135          1           0       21.909185    2.920607    0.522845
    136          1           0       20.501327    3.579463    1.135346
    137          1           0       -7.014710    1.830575    0.415474
    138          1           0       -7.703938   -0.160894   -0.230603
 ---------------------------------------------------------------------

 SCF Done:  E(RB3LYP) =  -2733.11453079     A.U. after   17 cycles

 Excitation energies and oscillator strengths:

 Excited State   1:      Singlet-A      2.0076 eV  617.57 nm  f=0.1738  <S**2>=0.000
     235 -> 237       -0.19422
     235 -> 238       -0.28552
     236 -> 237        0.59850
     236 -> 238       -0.14354
 This state for optimization and/or second-order correction.
 Total Energy, E(TD-HF/TD-KS) =  -2733.04075232
 Copying the excited state density for this state as the 1-particle RhoCI density.

 The electronic state is 1-A.
 Alpha  occ. eigenvalues --  -19.18219 -19.16613 -19.12703 -19.12091 -19.11528
 Alpha  occ. eigenvalues --  -14.36638 -14.35907 -14.32816 -14.30912 -10.31025
 Alpha  occ. eigenvalues --  -10.30806 -10.28075 -10.24007 -10.24003 -10.23555
 Alpha  occ. eigenvalues --  -10.23271 -10.22954 -10.22880 -10.22494 -10.22350
 Alpha  occ. eigenvalues --  -10.22054 -10.21884 -10.21230 -10.21230 -10.21032
 Alpha  occ. eigenvalues --  -10.20683 -10.20665 -10.20640 -10.20635 -10.20608
 Alpha  occ. eigenvalues --  -10.20452 -10.20447 -10.20296 -10.20288 -10.19882
 Alpha  occ. eigenvalues --  -10.19858 -10.19798 -10.19786 -10.19732 -10.19732
 Alpha  occ. eigenvalues --  -10.19580 -10.19542 -10.19524 -10.19513 -10.19467
 Alpha  occ. eigenvalues --  -10.19360 -10.19255 -10.19185 -10.19179 -10.19122
 Alpha  occ. eigenvalues --  -10.19116 -10.19078 -10.18867 -10.18855 -10.18658
 Alpha  occ. eigenvalues --  -10.18560 -10.18520 -10.18468 -10.18196 -10.18075
 Alpha  occ. eigenvalues --  -10.17773 -10.17730 -10.17511 -10.15624  -1.10483
 Alpha  occ. eigenvalues --   -1.09279  -1.02935  -1.01033  -0.99257  -0.98765
 Alpha  occ. eigenvalues --   -0.98460  -0.94496  -0.93417  -0.84976  -0.82924
 Alpha  occ. eigenvalues --   -0.82318  -0.82084  -0.81040  -0.80861  -0.80264
 Alpha  occ. eigenvalues --   -0.80023  -0.79809  -0.79582  -0.78659  -0.77399
 Alpha  occ. eigenvalues --   -0.76595  -0.76327  -0.75770  -0.74723  -0.74174
 Alpha  occ. eigenvalues --   -0.73981  -0.73166  -0.71992  -0.71636  -0.70906
 Alpha  occ. eigenvalues --   -0.69675  -0.68989  -0.68415  -0.68163  -0.68051
 Alpha  occ. eigenvalues --   -0.67397  -0.67113  -0.66458  -0.65393  -0.65073
 Alpha  occ. eigenvalues --   -0.64140  -0.62656  -0.62049  -0.61822  -0.61551
 Alpha  occ. eigenvalues --   -0.60294  -0.58298  -0.57982  -0.57868  -0.56740
 Alpha  occ. eigenvalues --   -0.56566  -0.56411  -0.56194  -0.55847  -0.55595
 Alpha  occ. eigenvalues --   -0.55572  -0.54821  -0.54359  -0.53841  -0.52945
 Alpha  occ. eigenvalues --   -0.52618  -0.51936  -0.51193  -0.50889  -0.50622
 Alpha  occ. eigenvalues --   -0.50105  -0.49675  -0.49144  -0.49040  -0.48343
 Alpha  occ. eigenvalues --   -0.48233  -0.47895  -0.47734  -0.47484  -0.47375
 Alpha  occ. eigenvalues --   -0.46944  -0.46557  -0.46385  -0.45994  -0.45740
 Alpha  occ. eigenvalues --   -0.45408  -0.45193  -0.45018  -0.44684  -0.44557
 Alpha  occ. eigenvalues --   -0.44476  -0.44276  -0.44128  -0.43851  -0.43592
 Alpha  occ. eigenvalues --   -0.43209  -0.43132  -0.42983  -0.42727  -0.42682
 Alpha  occ. eigenvalues --   -0.42573  -0.42440  -0.42034  -0.41822  -0.41465
 Alpha  occ. eigenvalues --   -0.41278  -0.41163  -0.40730  -0.40632  -0.40216
 Alpha  occ. eigenvalues --   -0.40015  -0.39932  -0.39665  -0.39551  -0.39047
 Alpha  occ. eigenvalues --   -0.38890  -0.38584  -0.38522  -0.38228  -0.38189
 Alpha  occ. eigenvalues --   -0.37868  -0.37808  -0.37688  -0.37359  -0.37286
 Alpha  occ. eigenvalues --   -0.37190  -0.37110  -0.36942  -0.36839  -0.36740
 Alpha  occ. eigenvalues --   -0.36493  -0.36282  -0.36096  -0.36031  -0.35842
 Alpha  occ. eigenvalues --   -0.35714  -0.35604  -0.35465  -0.35184  -0.34983
 Alpha  occ. eigenvalues --   -0.34825  -0.34574  -0.34557  -0.34232  -0.33906
 Alpha  occ. eigenvalues --   -0.33782  -0.33649  -0.33087  -0.32812  -0.32724
 Alpha  occ. eigenvalues --   -0.32425  -0.32310  -0.32199  -0.31686  -0.31300
 Alpha  occ. eigenvalues --   -0.31105  -0.30501  -0.30432  -0.30063  -0.29911
 Alpha  occ. eigenvalues --   -0.29704  -0.29159  -0.28594  -0.27981  -0.27837
 Alpha  occ. eigenvalues --   -0.27660  -0.27119  -0.26879  -0.26214  -0.25943
 Alpha  occ. eigenvalues --   -0.25232  -0.24151  -0.23229  -0.22890  -0.19721
 Alpha  occ. eigenvalues --   -0.18603
 Alpha virt. eigenvalues --   -0.10279  -0.07808  -0.04146  -0.02319  -0.00348
 Alpha virt. eigenvalues --   -0.00159   0.00051   0.01689   0.02674   0.03717
 Alpha virt. eigenvalues --    0.03825   0.03969   0.04339   0.04528   0.04839

 Mulliken charges:
               1
     1  C   -0.020023
     2  C   -0.109124
     3  C   -0.160983
     4  C   -0.057463
     5  N   -0.147601
     6  C   -0.018391
     7  C    0.013951
     8  C   -0.071303
     9  C    0.053288
    10  C    0.003283
    11  C   -0.041633
    12  C    0.079444
    13  C    0.123321
    14  O   -0.179957
    15  O   -0.323583
    16  N   -0.004454
    17  C    0.103601
    18  C   -0.117152
    19  C    0.065827
    20  C    0.120939
    21  C    0.144453
    22  C   -0.127690
    23  C   -0.015219
    24  N   -0.280298
    25  C    0.087319
    26  C   -0.134193
    27  C   -0.043609
    28  C    0.088803
    29  C    0.046616
    30  C    0.034632
    31  C   -0.024634
    32  N   -0.053575
    33  C   -0.013785
    34  C   -0.084439
    35  C    0.026222
    36  C    0.068586
    37  C   -0.070034
    38  C    0.073656
    39  O   -0.195209
    40  C    0.016459
    41  C    0.201422
    42  O   -0.265709
    43  O   -0.297512
    44  C    0.328332
    45  C    0.278117
    46  C   -0.075809
    47  C   -0.169690
    48  C    0.136767
    49  C    0.089068
    50  C   -0.043161
    51  C    0.049945
    52  C   -0.067397
    53  C    0.036083
    54  C   -0.046865
    55  C    0.039874
    56  C    0.037825
    57  C   -0.044175
    58  C    0.039174
    59  C    0.023932
    60  C   -0.032834
    61  C    0.036486
    62  C   -0.081150
    63  C    0.124751
    64  C    0.053491
    65  H    0.002438
    66  H    0.038646
    67  H   -0.007187
    68  H   -0.001700
    69  H    0.021274
    70  H   -0.003992
    71  H    0.013847
    72  H    0.031008
    73  H    0.023420
    74  H    0.028880
    75  H    0.009160
    76  H    0.026431
    77  H    0.007342
    78  H    0.011262
    79  H   -0.007754
    80  H    0.018768
    81  H    0.015696
    82  H    0.023036
    83  H    0.041806
    84  H    0.027706
    85  H    0.029836
    86  H   -0.010671
    87  H    0.000673
    88  H    0.018613
    89  H    0.031562
    90  H    0.030708
    91  H    0.045902
    92  H    0.065139
    93  H    0.065967
    94  H    0.001728
    95  H   -0.042492
    96  H   -0.001016
    97  H    0.021879
    98  H    0.008398
    99  H   -0.039026
   100  H    0.012291
   101  H    0.014436
   102  H    0.024930
   103  H    0.005066
   104  H    0.019101
   105  H   -0.010752
   106  H    0.007298
   107  H    0.003766
   108  H   -0.019651
   109  H    0.009709
   110  H   -0.011688
   111  H    0.013808
   112  H   -0.009556
   113  H    0.011976
   114  H    0.002706
   115  H    0.020350
   116  H    0.006231
   117  H    0.005686
   118  H    0.003044
   119  H    0.002610
   120  H   -0.045787
   121  H   -0.001954
   122  H   -0.037053
   123  H    0.012466
   124  H    0.006123
   125  H   -0.006143
   126  H    0.006636
   127  H    0.006525
   128  H   -0.008134
   129  H   -0.015872
   130  H   -0.015638
   131  H   -0.011711
   132  H   -0.020777
   133  H   -0.056221
   134  H    0.014085
   135  H    0.001805
   136  H    0.006620
   137  H    0.095109
   138  H    0.204264
 Sum of Mulliken charges =   0.00000

 Dipole moment (field-independent basis, Debye):
    X=              3.1774    Y=              4.3408    Z=             -0.6397  Tot=              5.4174
 Quadrupole moment (field-independent basis, Debye-Ang):
   XX=           -344.2856   YY=           -380.8299   ZZ=           -396.0821
   XY=            -29.0534   XZ=              2.6234   YZ=             -0.2410

 Normal termination of Gaussian 09 at Thu Jul 25 04:52:02 2019.
