 Gaussian 09, Revision D.01,
 Gaussian 09:  ES64L-G09RevD.01 24-Apr-2013

 --------------------------
 # td=(NStates=1) B3LYP/SVP
 --------------------------

 --
 TD
 --
 Symbolic Z-matrix:
 Charge =  0 Multiplicity = 1

                         Standard orientation:
 ---------------------------------------------------------------------
 Center     Atomic      Atomic             Coordinates (Angstroms)
 Number     Number       Type             X           Y           Z
 ---------------------------------------------------------------------
      1          6           0       -5.187868   -1.920561    0.391807
      2          6           0       -4.685788    2.751407    1.462567
      3          6           0       -9.273424    3.323050   -0.232741
      4          6           0       -9.873438   -1.334936   -0.832867
      5          7           0       -5.091107    0.375538    0.784693
      6          6           0       -4.460232   -0.816336    0.702837
      7          6           0       -3.060059   -0.604360    1.175765
      8          6           0       -3.029965    0.724837    1.781005
      9          6           0       -4.318050    1.403623    1.375213
     10          6           0       -2.914104    0.717504    3.500108
     11          6           0       -2.063326   -0.781848    0.069633
     12          6           0       -0.577454   -0.883664    0.601368
     13          6           0        0.361372   -1.111099   -0.487400
     14          8           0        0.153681   -1.479227   -1.622627
     15          8           0        1.608777   -0.824033   -0.135159
     16          7           0       -7.038850    2.732098    0.539099
     17          6           0       -5.894901    3.312355    1.145091
     18          6           0       -6.183464    4.691086    1.211142
     19          6           0       -7.485037    5.010347    0.598564
     20          6           0       -7.992391    3.684108    0.305574
     21          6           0       -5.176388    5.776674    1.580417
     22          6           0       -8.129806    6.282814    0.449063
     23          6           0       -8.938101    6.633638   -0.565524
     24          7           0       -9.199745    0.968472   -0.463851
     25          6           0       -9.825194    2.101739   -0.649200
     26          6           0      -11.225007    2.007644   -1.135456
     27          6           0      -11.384331    0.655130   -1.356481
     28          6           0      -10.128271    0.017884   -0.872102
     29          6           0      -12.228618    3.141339   -1.248420
     30          6           0      -12.593092   -0.066245   -1.834558
     31          6           0      -12.470479   -0.431885   -3.418660
     32          7           0       -7.603706   -1.159130   -0.075953
     33          6           0       -8.664514   -1.941717   -0.613973
     34          6           0       -8.268964   -3.331191   -0.588012
     35          6           0       -6.918789   -3.368937   -0.176632
     36          6           0       -6.495435   -1.995549    0.045711
     37          6           0       -9.152532   -4.476643   -1.011191
     38          6           0       -5.752359   -4.226680    0.029361
     39          8           0       -5.738769   -5.473016   -0.101396
     40          6           0       -4.612939   -3.327963    0.360320
     41          6           0       -4.020869   -3.872395    1.671670
     42          8           0       -4.318325   -3.442703    2.809226
     43          8           0       -3.242521   -4.898953    1.420948
     44          6           0       -2.495454   -5.408650    2.558657
     45          6           0        2.662278   -1.172252   -1.075887
     46          6           0        4.004757   -0.748919   -0.531908
     47          6           0        4.934826    0.027840   -0.967570
     48          6           0        5.018087    0.619366   -2.380485
     49          6           0        6.276108    0.228915   -0.163502
     50          6           0        7.562698   -0.418370   -0.782155
     51          6           0        8.839536   -0.250523   -0.052448
     52          6           0       10.144826   -0.835763   -0.744688
     53          6           0       10.114964   -2.325480   -0.929610
     54          6           0       11.299749   -0.377357    0.016229
     55          6           0       12.672685   -0.863903   -0.555802
     56          6           0       13.779262   -0.130384    0.221229
     57          6           0       15.243948   -0.220813   -0.302229
     58          6           0       15.690946   -1.706360   -0.509097
     59          6           0       16.207525    0.602028    0.535207
     60          6           0       17.562587    0.743502   -0.040300
     61          6           0       18.594711    1.781968    0.532499
     62          6           0       20.019749    1.850189    0.001611
     63          6           0       20.051372    2.399780   -1.434704
     64          6           0       20.820468    2.742006    0.819224
     65          1           0       -3.973208    3.255233    1.801648
     66          1           0       -9.798432    4.300583   -0.141190
     67          1           0      -10.708710   -1.953535   -1.028704
     68          1           0       -2.890066   -1.403273    1.966385
     69          1           0       -2.065417    1.364938    1.451933
     70          1           0       -2.039705    0.244425    3.802685
     71          1           0       -3.033305    1.641590    3.981119
     72          1           0       -3.863964    0.201750    3.698208
     73          1           0       -2.173187   -1.852730   -0.619012
     74          1           0       -2.245842   -0.107864   -0.625100
     75          1           0       -0.384755    0.126584    1.297267
     76          1           0       -0.585626   -1.715046    1.104391
     77          1           0       -4.491962    6.027947    0.724727
     78          1           0       -5.729192    6.653258    2.123916
     79          1           0       -4.665707    5.212982    2.452073
     80          1           0       -7.878572    7.034053    1.261065
     81          1           0       -9.107275    5.969922   -1.423766
     82          1           0       -9.387404    7.674245   -0.739616
     83          1           0      -12.041113    3.743044   -0.266541
     84          1           0      -12.232983    3.570067   -2.251593
     85          1           0      -13.135069    2.623021   -1.377852
     86          1           0      -12.740843   -0.997426   -1.212931
     87          1           0      -13.560245    0.500663   -1.698446
     88          1           0      -12.507887    0.592989   -3.971936
     89          1           0      -11.400463   -1.041894   -3.594967
     90          1           0      -13.086057   -1.172222   -3.796612
     91          1           0       -9.808666   -4.704211   -0.169169
     92          1           0       -9.530196   -4.494607   -2.116690
     93          1           0       -8.339972   -5.259179   -0.933418
     94          1           0       -3.649595   -3.502227   -0.264958
     95          1           0       -2.013039   -6.457957    2.239766
     96          1           0       -1.522019   -4.602778    2.712663
     97          1           0       -3.157474   -5.491325    3.419552
     98          1           0        2.720821   -2.292942   -1.333671
     99          1           0        2.583701   -0.684612   -2.055509
    100          1           0        4.199405   -1.038776    0.590642
    101          1           0        5.895768    1.604964   -2.640396
    102          1           0        5.356436   -0.286559   -3.057259
    103          1           0        3.836837    1.055300   -2.519541
    104          1           0        6.290561    1.300296    0.046743
    105          1           0        6.079207   -0.363518    0.847055
    106          1           0        7.018665   -1.337476   -1.101575
    107          1           0        7.698647    0.249838   -1.768630
    108          1           0        8.810644    0.800144    0.090106
    109          1           0        8.492338   -0.688403    0.879545
    110          1           0       10.227389   -0.330174   -1.684538
    111          1           0        8.966266   -2.675927   -1.423935
    112          1           0       11.213696   -2.818998   -1.159066
    113          1           0        9.819884   -2.818317    0.024628
    114          1           0       11.268616    0.776239    0.014772
    115          1           0       11.161873   -0.750018    0.970587
    116          1           0       12.699129   -1.859230   -0.525262
    117          1           0       12.597163   -0.408645   -1.515409
    118          1           0       13.388087    0.993567    0.283707
    119          1           0       13.781961   -0.183073    1.279641
    120          1           0       15.277650    0.049681   -1.283874
    121          1           0       14.971098   -2.251783   -1.103746
    122          1           0       16.523419   -1.794525   -1.140500
    123          1           0       15.747162   -2.447927    0.509657
    124          1           0       15.714375    1.577680    0.442447
    125          1           0       16.513089    0.282281    1.620138
    126          1           0       17.967891   -0.347621   -0.224638
    127          1           0       17.630562    0.947053   -1.339539
    128          1           0       18.034053    2.715034    0.597936
    129          1           0       18.693624    1.344104    1.561032
    130          1           0       20.437592    0.855061   -0.132244
    131          1           0       19.488362    3.262688   -1.579645
    132          1           0       21.253313    2.399286   -1.763443
    133          1           0       19.507478    1.666285   -2.153872
    134          1           0       20.815937    2.422244    1.842507
    135          1           0       21.897622    2.599784    0.621400
    136          1           0       20.479998    3.667590    0.746663
    137          1           0       -7.157444    1.773233    0.223900
    138          1           0       -7.614650   -0.100172    0.162830
 ---------------------------------------------------------------------

 SCF Done:  E(RB3LYP) =  -2733.00090345     A.U. after   17 cycles

 Excitation energies and oscillator strengths:

 Excited State   1:      Singlet-A      2.0360 eV  608.97 nm  f=0.1602  <S**2>=0.000
     235 -> 237       -0.11399
     235 -> 238       -0.31314
     236 -> 237        0.61714
 This state for optimization and/or second-order correction.
 Total Energy, E(TD-HF/TD-KS) =  -2732.92608268
 Copying the excited state density for this state as the 1-particle RhoCI density.

 The electronic state is 1-A.
 Alpha  occ. eigenvalues --  -19.19405 -19.17970 -19.12280 -19.11989 -19.11525
 Alpha  occ. eigenvalues --  -14.36727 -14.36506 -14.31571 -14.30253 -10.32210
 Alpha  occ. eigenvalues --  -10.31376 -10.27674 -10.27521 -10.25748 -10.23675
 Alpha  occ. eigenvalues --  -10.23575 -10.23313 -10.23182 -10.23166 -10.23046
 Alpha  occ. eigenvalues --  -10.22360 -10.21811 -10.21786 -10.21737 -10.21459
 Alpha  occ. eigenvalues --  -10.21356 -10.21291 -10.21134 -10.21036 -10.20733
 Alpha  occ. eigenvalues --  -10.20634 -10.20603 -10.20521 -10.20293 -10.20227
 Alpha  occ. eigenvalues --  -10.20223 -10.20167 -10.19977 -10.19958 -10.19918
 Alpha  occ. eigenvalues --  -10.19830 -10.19822 -10.19770 -10.19570 -10.19546
 Alpha  occ. eigenvalues --  -10.19184 -10.19171 -10.18944 -10.18871 -10.18839
 Alpha  occ. eigenvalues --  -10.18816 -10.18797 -10.18775 -10.18632 -10.18494
 Alpha  occ. eigenvalues --  -10.18450 -10.18433 -10.18430 -10.18392 -10.18293
 Alpha  occ. eigenvalues --  -10.18215 -10.17472 -10.17404 -10.15906  -1.10725
 Alpha  occ. eigenvalues --   -1.10422  -1.00298  -1.00036  -0.99236  -0.96992
 Alpha  occ. eigenvalues --   -0.96186  -0.94295  -0.93603  -0.85721  -0.83363
 Alpha  occ. eigenvalues --   -0.82448  -0.82036  -0.81756  -0.81382  -0.81213
 Alpha  occ. eigenvalues --   -0.80641  -0.79873  -0.79539  -0.79191  -0.78176
 Alpha  occ. eigenvalues --   -0.77276  -0.76703  -0.75641  -0.75033  -0.74176
 Alpha  occ. eigenvalues --   -0.74055  -0.73317  -0.72656  -0.71778  -0.70501
 Alpha  occ. eigenvalues --   -0.70098  -0.69284  -0.68625  -0.67953  -0.67928
 Alpha  occ. eigenvalues --   -0.67085  -0.66817  -0.66394  -0.66155  -0.65679
 Alpha  occ. eigenvalues --   -0.64804  -0.63603  -0.62701  -0.62240  -0.62200
 Alpha  occ. eigenvalues --   -0.61335  -0.58699  -0.58349  -0.57981  -0.57695
 Alpha  occ. eigenvalues --   -0.57221  -0.56538  -0.56305  -0.56007  -0.55685
 Alpha  occ. eigenvalues --   -0.54737  -0.54633  -0.54406  -0.53588  -0.53311
 Alpha  occ. eigenvalues --   -0.52984  -0.52003  -0.51377  -0.50437  -0.50206
 Alpha  occ. eigenvalues --   -0.50011  -0.49605  -0.49326  -0.49049  -0.48575
 Alpha  occ. eigenvalues --   -0.47897  -0.47780  -0.47552  -0.47461  -0.47219
 Alpha  occ. eigenvalues --   -0.46834  -0.46453  -0.46140  -0.46102  -0.45813
 Alpha  occ. eigenvalues --   -0.45606  -0.45339  -0.45208  -0.45092  -0.44912
 Alpha  occ. eigenvalues --   -0.44635  -0.44374  -0.44168  -0.44089  -0.43575
 Alpha  occ. eigenvalues --   -0.43468  -0.43291  -0.43127  -0.42995  -0.42629
 Alpha  occ. eigenvalues --   -0.42486  -0.42380  -0.42165  -0.42009  -0.41616
 Alpha  occ. eigenvalues --   -0.41357  -0.41155  -0.41103  -0.41047  -0.40695
 Alpha  occ. eigenvalues --   -0.40423  -0.40261  -0.39831  -0.39485  -0.39114
 Alpha  occ. eigenvalues --   -0.38877  -0.38798  -0.38732  -0.38510  -0.38488
 Alpha  occ. eigenvalues --   -0.38128  -0.38032  -0.37710  -0.37594  -0.37438
 Alpha  occ. eigenvalues --   -0.37176  -0.36947  -0.36712  -0.36608  -0.36494
 Alpha  occ. eigenvalues --   -0.36381  -0.36046  -0.35724  -0.35628  -0.35496
 Alpha  occ. eigenvalues --   -0.35253  -0.35163  -0.35072  -0.34832  -0.34577
 Alpha  occ. eigenvalues --   -0.34548  -0.34451  -0.34192  -0.33960  -0.33838
 Alpha  occ. eigenvalues --   -0.33497  -0.33329  -0.33226  -0.33022  -0.32752
 Alpha  occ. eigenvalues --   -0.32358  -0.31699  -0.31488  -0.31153  -0.30923
 Alpha  occ. eigenvalues --   -0.30755  -0.30590  -0.30572  -0.30286  -0.30184
 Alpha  occ. eigenvalues --   -0.29855  -0.29704  -0.28182  -0.27981  -0.27715
 Alpha  occ. eigenvalues --   -0.27488  -0.27372  -0.26297  -0.26023  -0.25852
 Alpha  occ. eigenvalues --   -0.25391  -0.24731  -0.23454  -0.23158  -0.19640
 Alpha  occ. eigenvalues --   -0.19015
 Alpha virt. eigenvalues --   -0.10380  -0.07698  -0.04906  -0.02215  -0.00739
 Alpha virt. eigenvalues --   -0.00104   0.00122   0.00572   0.01752   0.02378
 Alpha virt. eigenvalues --    0.02721   0.03558   0.03998   0.04258   0.04497

 Mulliken charges:
               1
     1  C    0.072656
     2  C    0.021423
     3  C   -0.080123
     4  C   -0.102956
     5  N   -0.231761
     6  C   -0.135819
     7  C    0.078371
     8  C   -0.115676
     9  C   -0.011776
    10  C    0.072023
    11  C   -0.017814
    12  C    0.135208
    13  C    0.153422
    14  O   -0.240291
    15  O   -0.295852
    16  N   -0.086906
    17  C    0.245742
    18  C   -0.193114
    19  C    0.066082
    20  C   -0.027469
    21  C    0.043516
    22  C   -0.053708
    23  C   -0.066228
    24  N   -0.219684
    25  C    0.113287
    26  C   -0.205256
    27  C   -0.037364
    28  C    0.077927
    29  C    0.184466
    30  C    0.006372
    31  C   -0.033139
    32  N   -0.132600
    33  C    0.151908
    34  C   -0.177371
    35  C    0.007036
    36  C    0.142590
    37  C    0.076638
    38  C    0.077413
    39  O   -0.210858
    40  C   -0.046868
    41  C    0.181634
    42  O   -0.269664
    43  O   -0.261526
    44  C    0.105366
    45  C    0.295698
    46  C   -0.113573
    47  C   -0.154735
    48  C   -0.101092
    49  C    0.028123
    50  C   -0.063644
    51  C    0.103169
    52  C    0.029118
    53  C   -0.050087
    54  C   -0.028206
    55  C    0.157034
    56  C    0.007781
    57  C    0.007292
    58  C   -0.008295
    59  C    0.118941
    60  C   -0.147853
    61  C    0.062932
    62  C   -0.070058
    63  C   -0.017091
    64  C    0.158871
    65  H   -0.150652
    66  H   -0.016713
    67  H   -0.048346
    68  H    0.012444
    69  H    0.020742
    70  H    0.011308
    71  H    0.001175
    72  H    0.033348
    73  H    0.044440
    74  H   -0.036767
    75  H    0.068640
    76  H   -0.029272
    77  H    0.062245
    78  H    0.034687
    79  H    0.031432
    80  H    0.017568
    81  H    0.036795
    82  H    0.041365
    83  H    0.065794
    84  H    0.011775
    85  H   -0.035080
    86  H    0.015110
    87  H    0.015562
    88  H    0.039790
    89  H    0.026165
    90  H    0.005418
    91  H    0.032979
    92  H    0.061023
    93  H    0.037481
    94  H    0.069067
    95  H    0.068381
    96  H    0.052950
    97  H    0.065653
    98  H    0.037542
    99  H    0.008136
   100  H    0.005989
   101  H    0.056090
   102  H    0.067503
   103  H    0.065016
   104  H    0.005539
   105  H   -0.001390
   106  H    0.016825
   107  H   -0.007470
   108  H   -0.019752
   109  H   -0.016966
   110  H   -0.027519
   111  H    0.028660
   112  H    0.055241
   113  H   -0.003629
   114  H    0.001642
   115  H   -0.032724
   116  H   -0.016417
   117  H   -0.018944
   118  H   -0.021778
   119  H   -0.030180
   120  H   -0.043002
   121  H   -0.012633
   122  H   -0.001060
   123  H    0.016560
   124  H   -0.009190
   125  H    0.021534
   126  H    0.003734
   127  H   -0.027104
   128  H   -0.004361
   129  H   -0.010013
   130  H   -0.015135
   131  H   -0.007917
   132  H    0.024697
   133  H    0.012867
   134  H   -0.023926
   135  H   -0.005065
   136  H   -0.030849
   137  H    0.132234
   138  H    0.187133
 Sum of Mulliken charges =   0.00000

 Dipole moment (field-independent basis, Debye):
    X=              1.7064    Y=              3.8376    Z=              1.0771  Tot=              4.3358
 Quadrupole moment (field-independent basis, Debye-Ang):
   XX=           -356.9417   YY=           -385.0431   ZZ=           -398.4882
   XY=            -28.1633   XZ=             17.4904   YZ=             -2.6049

 Normal termination of Gaussian 09 at Sun Aug  4 01:34:39 2019.
