 Gaussian 09, Revision D.01,
 Gaussian 09:  ES64L-G09RevD.01 24-Apr-2013

 --------------------------
 # td=(NStates=1) B3LYP/SVP
 --------------------------

 --
 TD
 --
 Symbolic Z-matrix:
 Charge =  0 Multiplicity = 1

                         Standard orientation:
 ---------------------------------------------------------------------
 Center     Atomic      Atomic             Coordinates (Angstroms)
 Number     Number       Type             X           Y           Z
 ---------------------------------------------------------------------
      1          6           0       -5.048427   -1.964118    0.341324
      2          6           0       -4.701665    2.775359    1.480457
      3          6           0       -9.152720    3.442984   -0.191987
      4          6           0       -9.739643   -1.350195   -0.964134
      5          7           0       -5.184344    0.440100    0.738519
      6          6           0       -4.498386   -0.736644    0.697427
      7          6           0       -3.077314   -0.644293    1.288001
      8          6           0       -3.103297    0.732661    1.896307
      9          6           0       -4.410970    1.355837    1.288870
     10          6           0       -3.157920    0.683505    3.433753
     11          6           0       -2.106241   -0.802526    0.026131
     12          6           0       -0.635794   -0.766289    0.453352
     13          6           0        0.313643   -0.937330   -0.707218
     14          8           0        0.043002   -1.334421   -1.842430
     15          8           0        1.620638   -0.738422   -0.370518
     16          7           0       -6.939090    2.819097    0.522931
     17          6           0       -5.825570    3.414838    1.039695
     18          6           0       -6.109214    4.847083    1.165004
     19          6           0       -7.455449    5.010455    0.719244
     20          6           0       -7.927609    3.685000    0.337262
     21          6           0       -5.199370    5.866276    1.643774
     22          6           0       -8.079581    6.328775    0.566408
     23          6           0       -8.823873    6.606291   -0.492393
     24          7           0       -9.124656    0.986639   -0.521498
     25          6           0       -9.718933    2.031448   -0.468312
     26          6           0      -11.227579    1.920877   -0.968029
     27          6           0      -11.374136    0.681088   -1.291063
     28          6           0      -10.064563    0.059784   -0.965134
     29          6           0      -12.230233    3.090700   -1.185433
     30          6           0      -12.533410   -0.044014   -1.822081
     31          6           0      -12.644655   -0.240161   -3.310637
     32          7           0       -7.500511   -1.272385   -0.147836
     33          6           0       -8.608963   -2.005541   -0.566802
     34          6           0       -8.193454   -3.422854   -0.688666
     35          6           0       -6.861337   -3.429766   -0.260138
     36          6           0       -6.433570   -2.080798   -0.033116
     37          6           0       -9.085652   -4.621957   -1.016775
     38          6           0       -5.812644   -4.361500    0.136523
     39          8           0       -5.746602   -5.570932    0.154825
     40          6           0       -4.588596   -3.388403    0.446111
     41          6           0       -3.984251   -3.804626    1.790069
     42          8           0       -4.063911   -3.269370    2.887099
     43          8           0       -3.277495   -5.048961    1.606405
     44          6           0       -2.823736   -5.511593    2.834078
     45          6           0        2.585482   -1.002256   -1.380341
     46          6           0        3.930709   -0.738301   -0.745841
     47          6           0        4.951712   -0.054238   -1.244101
     48          6           0        4.964896    0.712204   -2.487202
     49          6           0        6.224252   -0.069969   -0.358687
     50          6           0        7.474836   -0.541727   -1.100966
     51          6           0        8.789972   -0.401868   -0.170728
     52          6           0       10.156626   -0.804327   -0.856881
     53          6           0       10.165775   -2.300757   -1.139056
     54          6           0       11.290216   -0.388648    0.055032
     55          6           0       12.626157   -0.641801   -0.602807
     56          6           0       13.826043   -0.102003    0.350903
     57          6           0       15.200106   -0.292650   -0.263692
     58          6           0       15.747646   -1.755536   -0.379314
     59          6           0       16.220235    0.574289    0.466193
     60          6           0       17.658796    0.808028   -0.039754
     61          6           0       18.545091    1.721501    0.765428
     62          6           0       20.002934    1.835593    0.114337
     63          6           0       20.086136    2.380243   -1.224251
     64          6           0       20.883233    2.620874    1.040527
     65          1           0       -3.936326    3.325917    1.829214
     66          1           0       -9.947795    4.205660   -0.175327
     67          1           0      -10.625343   -2.145811   -1.294054
     68          1           0       -2.994998   -1.206913    2.021000
     69          1           0       -2.373935    1.193807    1.571764
     70          1           0       -2.204416    0.312538    3.965098
     71          1           0       -3.415155    1.812921    3.794837
     72          1           0       -4.027542    0.026964    3.848619
     73          1           0       -2.147472   -1.832842   -0.383538
     74          1           0       -2.363047    0.014350   -0.611754
     75          1           0       -0.482828    0.201759    0.861370
     76          1           0       -0.702489   -1.617050    1.160818
     77          1           0       -4.595041    5.889092    0.797866
     78          1           0       -5.917564    6.820088    1.865762
     79          1           0       -4.887159    5.519381    2.660701
     80          1           0       -7.698983    6.994965    1.259272
     81          1           0       -8.899521    5.916934   -1.479324
     82          1           0       -9.038006    7.498404   -0.654045
     83          1           0      -12.494498    3.754171   -0.222590
     84          1           0      -12.062751    3.872387   -1.800547
     85          1           0      -13.168090    2.282154   -1.475633
     86          1           0      -12.715459   -0.991572   -1.358786
     87          1           0      -13.386805    0.632664   -1.394462
     88          1           0      -12.699114    0.837909   -3.702161
     89          1           0      -11.811291   -0.641932   -3.752936
     90          1           0      -13.517870   -0.893910   -3.589823
     91          1           0       -9.714987   -4.938703   -0.185093
     92          1           0       -9.766952   -4.322273   -1.928444
     93          1           0       -8.317764   -5.445972   -1.025434
     94          1           0       -3.691109   -3.764411   -0.310244
     95          1           0       -2.244916   -6.471847    2.500265
     96          1           0       -2.324878   -4.828959    3.473969
     97          1           0       -3.581034   -5.750979    3.638463
     98          1           0        2.683064   -2.154991   -1.678492
     99          1           0        2.217575   -0.415238   -2.294948
    100          1           0        3.989955   -1.326949    0.321285
    101          1           0        5.356524    1.655026   -2.508401
    102          1           0        5.545335    0.312958   -3.155280
    103          1           0        4.008463    0.870137   -2.949642
    104          1           0        6.507550    1.073153    0.079330
    105          1           0        6.275321   -0.764075    0.593677
    106          1           0        7.313650   -1.587231   -1.407403
    107          1           0        7.770164   -0.167400   -2.087299
    108          1           0        8.781221    0.776262   -0.014010
    109          1           0        8.731823   -0.867883    0.931407
    110          1           0       10.198894   -0.404038   -1.847824
    111          1           0        9.247862   -2.704061   -1.474681
    112          1           0       10.952518   -2.608471   -1.854768
    113          1           0        9.989903   -2.926332    0.102893
    114          1           0       10.846609    0.760168    0.192055
    115          1           0       11.063215   -0.875000    1.096863
    116          1           0       12.902339   -1.560961   -0.951383
    117          1           0       12.694204    0.013633   -1.540572
    118          1           0       13.612108    0.830987    0.504298
    119          1           0       13.915917   -0.541826    1.274349
    120          1           0       15.306775    0.014022   -1.223148
    121          1           0       14.931288   -2.323323   -1.111337
    122          1           0       16.981970   -1.671425   -0.606192
    123          1           0       15.728054   -2.192596    0.755680
    124          1           0       15.712996    1.560674    0.562645
    125          1           0       16.551082    0.159789    1.530300
    126          1           0       18.110844   -0.343508   -0.290628
    127          1           0       17.621922    1.080346   -1.272909
    128          1           0       18.244234    2.851675    0.952346
    129          1           0       18.554995    1.641474    1.838724
    130          1           0       20.346091    0.793860    0.048041
    131          1           0       20.041483    3.458381   -1.477929
    132          1           0       21.129685    2.286571   -1.562841
    133          1           0       19.417054    1.764493   -1.861152
    134          1           0       21.038201    2.331496    2.207399
    135          1           0       21.877235    2.699964    0.571192
    136          1           0       20.525042    3.688745    1.050309
    137          1           0       -7.189126    1.782191    0.335450
    138          1           0       -7.578190   -0.220903   -0.014093
 ---------------------------------------------------------------------

 SCF Done:  E(RB3LYP) =  -2732.92132455     A.U. after   17 cycles

 Excitation energies and oscillator strengths:

 Excited State   1:      Singlet-A      2.1404 eV  579.27 nm  f=0.1539  <S**2>=0.000
     235 -> 238       -0.28290
     236 -> 237        0.64227
 This state for optimization and/or second-order correction.
 Total Energy, E(TD-HF/TD-KS) =  -2732.84266781
 Copying the excited state density for this state as the 1-particle RhoCI density.

 The electronic state is 1-A.
 Alpha  occ. eigenvalues --  -19.17567 -19.17189 -19.14036 -19.12470 -19.12419
 Alpha  occ. eigenvalues --  -14.37461 -14.37269 -14.32759 -14.31535 -10.32314
 Alpha  occ. eigenvalues --  -10.31804 -10.28115 -10.25506 -10.24463 -10.23819
 Alpha  occ. eigenvalues --  -10.23559 -10.23365 -10.23241 -10.23007 -10.22985
 Alpha  occ. eigenvalues --  -10.22874 -10.22372 -10.22328 -10.21750 -10.21659
 Alpha  occ. eigenvalues --  -10.21268 -10.21139 -10.21097 -10.21069 -10.20956
 Alpha  occ. eigenvalues --  -10.20876 -10.20854 -10.20637 -10.20599 -10.20532
 Alpha  occ. eigenvalues --  -10.20501 -10.20459 -10.20399 -10.19925 -10.19813
 Alpha  occ. eigenvalues --  -10.19804 -10.19748 -10.19658 -10.19473 -10.19405
 Alpha  occ. eigenvalues --  -10.19197 -10.19021 -10.19000 -10.18996 -10.18954
 Alpha  occ. eigenvalues --  -10.18792 -10.18785 -10.18721 -10.18700 -10.18599
 Alpha  occ. eigenvalues --  -10.18571 -10.18506 -10.18500 -10.18480 -10.17952
 Alpha  occ. eigenvalues --  -10.17601 -10.17363 -10.16991 -10.16266  -1.09144
 Alpha  occ. eigenvalues --   -1.07990  -1.02849  -1.00573  -0.99562  -0.99532
 Alpha  occ. eigenvalues --   -0.98396  -0.97488  -0.95237  -0.84808  -0.83097
 Alpha  occ. eigenvalues --   -0.82488  -0.82250  -0.82170  -0.81911  -0.81432
 Alpha  occ. eigenvalues --   -0.81213  -0.80191  -0.79784  -0.78501  -0.78051
 Alpha  occ. eigenvalues --   -0.77369  -0.76093  -0.75487  -0.75182  -0.74624
 Alpha  occ. eigenvalues --   -0.73775  -0.73032  -0.72748  -0.71823  -0.71670
 Alpha  occ. eigenvalues --   -0.70104  -0.69655  -0.68496  -0.67460  -0.67379
 Alpha  occ. eigenvalues --   -0.66866  -0.66717  -0.65619  -0.65538  -0.64954
 Alpha  occ. eigenvalues --   -0.63603  -0.63455  -0.63134  -0.62464  -0.62106
 Alpha  occ. eigenvalues --   -0.60731  -0.59746  -0.58649  -0.58229  -0.57722
 Alpha  occ. eigenvalues --   -0.57182  -0.56398  -0.55908  -0.55816  -0.55307
 Alpha  occ. eigenvalues --   -0.55011  -0.54763  -0.54188  -0.54079  -0.53590
 Alpha  occ. eigenvalues --   -0.53077  -0.52576  -0.52054  -0.51401  -0.50876
 Alpha  occ. eigenvalues --   -0.50459  -0.50055  -0.49780  -0.49081  -0.48619
 Alpha  occ. eigenvalues --   -0.48317  -0.48128  -0.47903  -0.47423  -0.47202
 Alpha  occ. eigenvalues --   -0.46380  -0.46376  -0.46191  -0.45959  -0.45730
 Alpha  occ. eigenvalues --   -0.45439  -0.45382  -0.45217  -0.45018  -0.44875
 Alpha  occ. eigenvalues --   -0.44478  -0.44260  -0.44111  -0.44064  -0.43912
 Alpha  occ. eigenvalues --   -0.43864  -0.43554  -0.43309  -0.42766  -0.42615
 Alpha  occ. eigenvalues --   -0.42511  -0.42408  -0.42302  -0.41941  -0.41581
 Alpha  occ. eigenvalues --   -0.41363  -0.41303  -0.41148  -0.40985  -0.40874
 Alpha  occ. eigenvalues --   -0.40608  -0.39930  -0.39860  -0.39714  -0.39507
 Alpha  occ. eigenvalues --   -0.39223  -0.38981  -0.38478  -0.38462  -0.38274
 Alpha  occ. eigenvalues --   -0.38040  -0.37941  -0.37746  -0.37722  -0.37589
 Alpha  occ. eigenvalues --   -0.37383  -0.37252  -0.37136  -0.36942  -0.36744
 Alpha  occ. eigenvalues --   -0.36603  -0.36505  -0.36152  -0.36133  -0.35867
 Alpha  occ. eigenvalues --   -0.35557  -0.35363  -0.35330  -0.35202  -0.35081
 Alpha  occ. eigenvalues --   -0.34858  -0.34625  -0.34460  -0.34014  -0.33504
 Alpha  occ. eigenvalues --   -0.33482  -0.33322  -0.33001  -0.32186  -0.32090
 Alpha  occ. eigenvalues --   -0.32077  -0.31553  -0.31469  -0.31354  -0.31153
 Alpha  occ. eigenvalues --   -0.30844  -0.30580  -0.30346  -0.30156  -0.29609
 Alpha  occ. eigenvalues --   -0.29221  -0.29048  -0.28569  -0.28497  -0.27940
 Alpha  occ. eigenvalues --   -0.27564  -0.27523  -0.27285  -0.26755  -0.26220
 Alpha  occ. eigenvalues --   -0.25258  -0.25001  -0.24751  -0.24218  -0.20161
 Alpha  occ. eigenvalues --   -0.18709
 Alpha virt. eigenvalues --   -0.09624  -0.07797  -0.04640  -0.02278  -0.01333
 Alpha virt. eigenvalues --   -0.01000   0.00411   0.01085   0.02355   0.02824
 Alpha virt. eigenvalues --    0.03080   0.03408   0.03818   0.04427   0.04599

 Mulliken charges:
               1
     1  C    0.116700
     2  C   -0.057855
     3  C   -0.107174
     4  C   -0.095313
     5  N   -0.137263
     6  C   -0.121067
     7  C    0.095363
     8  C    0.120594
     9  C   -0.060934
    10  C   -0.010639
    11  C    0.035875
    12  C    0.079132
    13  C    0.190823
    14  O   -0.253483
    15  O   -0.306724
    16  N   -0.056718
    17  C    0.161218
    18  C   -0.180881
    19  C   -0.003119
    20  C    0.100886
    21  C    0.107682
    22  C   -0.001564
    23  C    0.046708
    24  N   -0.116312
    25  C   -0.063466
    26  C   -0.142929
    27  C   -0.030814
    28  C    0.017492
    29  C    0.027929
    30  C    0.022685
    31  C    0.060868
    32  N   -0.056208
    33  C    0.040614
    34  C   -0.143907
    35  C   -0.018579
    36  C    0.029697
    37  C    0.064160
    38  C    0.095109
    39  O   -0.155022
    40  C   -0.134336
    41  C    0.214423
    42  O   -0.225505
    43  O   -0.317334
    44  C    0.184209
    45  C    0.195361
    46  C   -0.136282
    47  C   -0.085003
    48  C    0.237364
    49  C    0.002286
    50  C    0.002056
    51  C   -0.067830
    52  C   -0.054481
    53  C   -0.008033
    54  C    0.017385
    55  C    0.068024
    56  C    0.175407
    57  C    0.001509
    58  C   -0.099489
    59  C   -0.015942
    60  C   -0.063898
    61  C    0.055215
    62  C   -0.056684
    63  C    0.036083
    64  C   -0.005293
    65  H   -0.074487
    66  H   -0.001476
    67  H    0.019064
    68  H   -0.113201
    69  H   -0.127940
    70  H    0.038236
    71  H    0.021586
    72  H    0.048048
    73  H    0.025081
    74  H    0.001996
    75  H    0.013536
    76  H    0.049764
    77  H    0.043250
    78  H    0.032708
    79  H    0.049057
    80  H   -0.030356
    81  H    0.063759
    82  H   -0.055925
    83  H    0.026900
    84  H    0.003394
    85  H    0.036490
    86  H   -0.009531
    87  H    0.013207
    88  H    0.012603
    89  H   -0.006755
    90  H    0.024456
    91  H    0.032913
    92  H    0.050550
    93  H    0.047488
    94  H    0.098209
    95  H    0.044670
    96  H   -0.001645
    97  H    0.006041
    98  H    0.045203
    99  H    0.038649
   100  H    0.032011
   101  H   -0.026825
   102  H   -0.038629
   103  H   -0.012555
   104  H    0.018520
   105  H    0.025496
   106  H   -0.003203
   107  H   -0.008081
   108  H    0.011078
   109  H    0.021506
   110  H   -0.020569
   111  H   -0.005451
   112  H    0.029134
   113  H   -0.010873
   114  H    0.013092
   115  H    0.013442
   116  H   -0.027523
   117  H   -0.005444
   118  H   -0.064713
   119  H   -0.033560
   120  H   -0.050258
   121  H    0.046390
   122  H    0.044729
   123  H    0.019863
   124  H   -0.000172
   125  H    0.003109
   126  H    0.010263
   127  H    0.008627
   128  H   -0.015451
   129  H   -0.021317
   130  H   -0.005580
   131  H    0.000330
   132  H   -0.009243
   133  H    0.010918
   134  H    0.026766
   135  H   -0.003492
   136  H    0.001913
   137  H    0.183040
   138  H    0.164395
 Sum of Mulliken charges =   0.00000

 Dipole moment (field-independent basis, Debye):
    X=              0.3572    Y=              6.4087    Z=             -0.1117  Tot=              6.4196
 Quadrupole moment (field-independent basis, Debye-Ang):
   XX=           -362.5931   YY=           -388.9692   ZZ=           -393.3022
   XY=            -20.2520   XZ=             -1.7500   YZ=              1.1253

 Normal termination of Gaussian 09 at Sat Jul 27 09:22:54 2019.
