 Gaussian 09, Revision D.01,
 Gaussian 09:  ES64L-G09RevD.01 24-Apr-2013

 --------------------------
 # td=(NStates=1) B3LYP/SVP
 --------------------------

 --
 TD
 --
 Symbolic Z-matrix:
 Charge =  0 Multiplicity = 1

                         Standard orientation:
 ---------------------------------------------------------------------
 Center     Atomic      Atomic             Coordinates (Angstroms)
 Number     Number       Type             X           Y           Z
 ---------------------------------------------------------------------
      1          6           0       -5.040293   -1.966261    0.445836
      2          6           0       -4.819084    2.892033    1.359229
      3          6           0       -9.326418    3.246027   -0.304219
      4          6           0       -9.803036   -1.540951   -0.820299
      5          7           0       -5.203109    0.399870    0.821905
      6          6           0       -4.496944   -0.718383    0.858442
      7          6           0       -3.063219   -0.464802    1.274422
      8          6           0       -3.116443    1.060419    1.782277
      9          6           0       -4.505724    1.472519    1.361965
     10          6           0       -2.969466    1.074091    3.331954
     11          6           0       -2.043858   -0.673699    0.073306
     12          6           0       -0.555295   -0.563923    0.522891
     13          6           0        0.370440   -0.891682   -0.638324
     14          8           0        0.133331   -1.246396   -1.758037
     15          8           0        1.665559   -0.725850   -0.219208
     16          7           0       -7.032567    2.683783    0.373853
     17          6           0       -5.974438    3.360952    1.005002
     18          6           0       -6.376339    4.810474    1.115485
     19          6           0       -7.638578    4.921537    0.570465
     20          6           0       -8.145108    3.559315    0.198806
     21          6           0       -5.549021    5.920783    1.591176
     22          6           0       -8.330779    6.159960    0.450490
     23          6           0       -9.383901    6.429999   -0.539702
     24          7           0       -9.207751    0.743152   -0.519772
     25          6           0       -9.836728    1.945805   -0.640857
     26          6           0      -11.251496    1.768162   -1.084316
     27          6           0      -11.348804    0.381766   -1.247553
     28          6           0      -10.169209   -0.222951   -0.834147
     29          6           0      -12.332970    2.811012   -1.280407
     30          6           0      -12.647225   -0.335320   -1.730660
     31          6           0      -12.729562   -0.713181   -3.269743
     32          7           0       -7.428969   -1.361249   -0.248893
     33          6           0       -8.570488   -2.138958   -0.544079
     34          6           0       -8.170500   -3.459324   -0.555282
     35          6           0       -6.771926   -3.373371   -0.199686
     36          6           0       -6.397692   -2.074215    0.028296
     37          6           0       -8.967888   -4.680619   -0.855521
     38          6           0       -5.691275   -4.341181    0.094126
     39          8           0       -5.570414   -5.520087    0.027611
     40          6           0       -4.478214   -3.352281    0.487091
     41          6           0       -3.887272   -3.721286    1.878507
     42          8           0       -4.086998   -3.240456    2.983532
     43          8           0       -2.955633   -4.699106    1.606553
     44          6           0       -2.255828   -5.324084    2.765997
     45          6           0        2.681417   -0.947627   -1.173677
     46          6           0        4.042103   -0.514350   -0.673965
     47          6           0        5.048174    0.189125   -1.255547
     48          6           0        5.113486    0.642921   -2.731931
     49          6           0        6.339646    0.451714   -0.367956
     50          6           0        7.487914   -0.341611   -1.004549
     51          6           0        8.800466   -0.080425   -0.063174
     52          6           0       10.015804   -0.539074   -0.767381
     53          6           0        9.972881   -2.077268   -0.984641
     54          6           0       11.207310   -0.161498    0.118826
     55          6           0       12.624155   -0.511962   -0.475902
     56          6           0       13.814355   -0.039243    0.304090
     57          6           0       15.144772   -0.268852   -0.372205
     58          6           0       15.532766   -1.778964   -0.448649
     59          6           0       16.270471    0.421178    0.619925
     60          6           0       17.701831    0.513309   -0.037569
     61          6           0       18.635152    1.545482    0.624281
     62          6           0       20.064735    1.589961    0.049645
     63          6           0       20.293713    2.037947   -1.448056
     64          6           0       20.986282    2.469916    1.021598
     65          1           0       -4.133550    3.414785    1.972297
     66          1           0      -10.229504    3.961085   -0.276607
     67          1           0      -10.669131   -2.202061   -1.031708
     68          1           0       -2.845026   -1.018775    2.290751
     69          1           0       -2.280552    1.562141    1.312862
     70          1           0       -2.025104    0.732947    3.769775
     71          1           0       -2.989505    2.088869    3.693717
     72          1           0       -3.676568    0.471626    3.765885
     73          1           0       -2.284069   -1.588870   -0.373682
     74          1           0       -2.569673    0.037397   -0.757760
     75          1           0       -0.329777    0.350794    1.008208
     76          1           0       -0.237644   -1.516104    1.165517
     77          1           0       -4.542180    5.760667    1.269601
     78          1           0       -5.758532    7.029801    1.267207
     79          1           0       -5.575917    5.904045    2.722515
     80          1           0       -8.370734    7.074116    0.920216
     81          1           0       -9.606612    5.695856   -1.126629
     82          1           0       -9.918383    7.213537   -0.634412
     83          1           0      -12.733522    2.825280   -0.116681
     84          1           0      -11.526517    3.795137   -1.685570
     85          1           0      -13.121890    2.511195   -1.882476
     86          1           0      -12.627693   -1.288663   -1.398279
     87          1           0      -13.498645    0.260793   -1.458805
     88          1           0      -12.638144    0.208908   -3.887410
     89          1           0      -12.011965   -1.264381   -3.570385
     90          1           0      -13.740095   -1.238874   -3.433960
     91          1           0       -9.959086   -4.515272   -0.394744
     92          1           0       -9.433855   -4.727364   -1.893503
     93          1           0       -8.330983   -5.718708   -0.658006
     94          1           0       -3.512154   -3.590969   -0.027217
     95          1           0       -1.397958   -5.891413    2.184490
     96          1           0       -1.851753   -4.407805    3.583523
     97          1           0       -2.920166   -5.964710    3.309131
     98          1           0        2.807641   -2.023386   -1.257251
     99          1           0        2.646426   -0.545026   -2.242921
    100          1           0        4.336055   -0.857111    0.488244
    101          1           0        5.585629    1.723721   -2.727787
    102          1           0        5.749199   -0.088776   -3.383939
    103          1           0        4.110487    0.738764   -3.098892
    104          1           0        6.566507    1.404301   -0.423206
    105          1           0        6.422366    0.133443    0.823656
    106          1           0        7.337754   -1.482135   -1.017605
    107          1           0        7.758074    0.228733   -2.038065
    108          1           0        8.643405    1.004073    0.214257
    109          1           0        8.496977   -0.846761    0.881625
    110          1           0       10.235702    0.089299   -1.660364
    111          1           0        9.148121   -2.602018   -1.703263
    112          1           0       10.985602   -2.424324   -1.625024
    113          1           0        9.950308   -2.687727   -0.062262
    114          1           0       11.414110    0.939207    0.116781
    115          1           0       11.169266   -0.525140    1.043204
    116          1           0       12.936639   -1.658379   -0.714084
    117          1           0       12.551416    0.026836   -1.559109
    118          1           0       13.601654    1.062773    0.443686
    119          1           0       13.946634   -0.511796    1.266659
    120          1           0       15.224406    0.191269   -1.289201
    121          1           0       14.918910   -2.198928   -1.234355
    122          1           0       16.570514   -1.825307   -0.992845
    123          1           0       15.473194   -2.337572    0.576880
    124          1           0       15.843908    1.578355    0.966269
    125          1           0       16.315930   -0.175839    1.608849
    126          1           0       17.978110   -0.522459   -0.049146
    127          1           0       17.555940    0.652221   -1.144191
    128          1           0       18.126197    2.569096    0.387610
    129          1           0       18.609515    1.424016    1.631237
    130          1           0       20.606461    0.536501    0.126203
    131          1           0       19.825350    3.101935   -1.585880
    132          1           0       21.139179    1.975890   -1.885426
    133          1           0       19.579501    1.330157   -1.960699
    134          1           0       20.830363    2.098379    1.965940
    135          1           0       22.081278    2.606837    0.790888
    136          1           0       20.606548    3.565636    1.145366
    137          1           0       -7.088023    1.720844    0.302576
    138          1           0       -7.647485   -0.312710   -0.370342
 ---------------------------------------------------------------------

 SCF Done:  E(RB3LYP) =  -2733.00933415     A.U. after   17 cycles

 Excitation energies and oscillator strengths:

 Excited State   1:      Singlet-A      2.1805 eV  568.61 nm  f=0.0990  <S**2>=0.000
     235 -> 237       -0.18566
     235 -> 238        0.32815
     236 -> 237        0.57173
     236 -> 238        0.16205
 This state for optimization and/or second-order correction.
 Total Energy, E(TD-HF/TD-KS) =  -2732.92920281
 Copying the excited state density for this state as the 1-particle RhoCI density.

 The electronic state is 1-A.
 Alpha  occ. eigenvalues --  -19.17361 -19.17311 -19.12708 -19.12510 -19.12018
 Alpha  occ. eigenvalues --  -14.36729 -14.35980 -14.32514 -14.29925 -10.31693
 Alpha  occ. eigenvalues --  -10.31357 -10.27397 -10.26588 -10.24702 -10.24459
 Alpha  occ. eigenvalues --  -10.24344 -10.23970 -10.22765 -10.22352 -10.22319
 Alpha  occ. eigenvalues --  -10.22282 -10.22191 -10.21874 -10.21406 -10.21328
 Alpha  occ. eigenvalues --  -10.21075 -10.20906 -10.20778 -10.20751 -10.20749
 Alpha  occ. eigenvalues --  -10.20712 -10.20699 -10.20631 -10.20429 -10.20426
 Alpha  occ. eigenvalues --  -10.20426 -10.20425 -10.20287 -10.20237 -10.20196
 Alpha  occ. eigenvalues --  -10.20007 -10.19850 -10.19727 -10.19626 -10.19615
 Alpha  occ. eigenvalues --  -10.19395 -10.19367 -10.19308 -10.19110 -10.18997
 Alpha  occ. eigenvalues --  -10.18925 -10.18797 -10.18678 -10.18614 -10.18229
 Alpha  occ. eigenvalues --  -10.18218 -10.18043 -10.18020 -10.17802 -10.17658
 Alpha  occ. eigenvalues --  -10.17632 -10.17567 -10.17524 -10.17480  -1.09568
 Alpha  occ. eigenvalues --   -1.07223  -1.03665  -1.00938  -0.99352  -0.99244
 Alpha  occ. eigenvalues --   -0.96775  -0.94191  -0.92853  -0.84238  -0.82560
 Alpha  occ. eigenvalues --   -0.82206  -0.81957  -0.80971  -0.80487  -0.80280
 Alpha  occ. eigenvalues --   -0.79865  -0.79299  -0.79023  -0.78759  -0.77604
 Alpha  occ. eigenvalues --   -0.76374  -0.75648  -0.75473  -0.74671  -0.74192
 Alpha  occ. eigenvalues --   -0.73265  -0.73114  -0.72167  -0.71355  -0.71114
 Alpha  occ. eigenvalues --   -0.69774  -0.69571  -0.68226  -0.67846  -0.67268
 Alpha  occ. eigenvalues --   -0.66899  -0.66295  -0.65745  -0.65567  -0.64896
 Alpha  occ. eigenvalues --   -0.64602  -0.63791  -0.62577  -0.62127  -0.62010
 Alpha  occ. eigenvalues --   -0.60850  -0.58610  -0.58174  -0.57875  -0.57302
 Alpha  occ. eigenvalues --   -0.56624  -0.56063  -0.55745  -0.55701  -0.55326
 Alpha  occ. eigenvalues --   -0.55088  -0.54720  -0.54272  -0.53923  -0.52902
 Alpha  occ. eigenvalues --   -0.52436  -0.51645  -0.51508  -0.50366  -0.49750
 Alpha  occ. eigenvalues --   -0.49460  -0.48836  -0.48600  -0.48466  -0.48305
 Alpha  occ. eigenvalues --   -0.47835  -0.47317  -0.47071  -0.46959  -0.46907
 Alpha  occ. eigenvalues --   -0.46782  -0.46666  -0.46193  -0.45958  -0.45838
 Alpha  occ. eigenvalues --   -0.45204  -0.45076  -0.44910  -0.44870  -0.44538
 Alpha  occ. eigenvalues --   -0.44459  -0.43647  -0.43490  -0.43171  -0.43034
 Alpha  occ. eigenvalues --   -0.42925  -0.42861  -0.42796  -0.42457  -0.42433
 Alpha  occ. eigenvalues --   -0.42286  -0.42156  -0.41774  -0.41567  -0.41365
 Alpha  occ. eigenvalues --   -0.41291  -0.41235  -0.41028  -0.40967  -0.40496
 Alpha  occ. eigenvalues --   -0.40074  -0.40036  -0.39988  -0.39453  -0.39323
 Alpha  occ. eigenvalues --   -0.39066  -0.39030  -0.38833  -0.38725  -0.38413
 Alpha  occ. eigenvalues --   -0.38272  -0.38205  -0.37912  -0.37787  -0.37522
 Alpha  occ. eigenvalues --   -0.37367  -0.37204  -0.37008  -0.36936  -0.36801
 Alpha  occ. eigenvalues --   -0.36712  -0.36491  -0.36208  -0.35907  -0.35625
 Alpha  occ. eigenvalues --   -0.35542  -0.35364  -0.35082  -0.34999  -0.34566
 Alpha  occ. eigenvalues --   -0.34469  -0.34403  -0.34061  -0.33957  -0.33724
 Alpha  occ. eigenvalues --   -0.33604  -0.33139  -0.33056  -0.32886  -0.32529
 Alpha  occ. eigenvalues --   -0.32419  -0.31776  -0.31223  -0.31081  -0.31017
 Alpha  occ. eigenvalues --   -0.30666  -0.30552  -0.30319  -0.30300  -0.30136
 Alpha  occ. eigenvalues --   -0.29950  -0.28923  -0.28753  -0.28183  -0.27690
 Alpha  occ. eigenvalues --   -0.27511  -0.27164  -0.26596  -0.26142  -0.24883
 Alpha  occ. eigenvalues --   -0.24433  -0.23968  -0.23501  -0.21934  -0.20286
 Alpha  occ. eigenvalues --   -0.19163
 Alpha virt. eigenvalues --   -0.09758  -0.08476  -0.04727  -0.02398  -0.00256
 Alpha virt. eigenvalues --    0.00372   0.00519   0.00986   0.02562   0.02634
 Alpha virt. eigenvalues --    0.03559   0.03829   0.04323   0.04687   0.04905

 Mulliken charges:
               1
     1  C    0.030263
     2  C   -0.105686
     3  C   -0.155042
     4  C   -0.076540
     5  N   -0.156251
     6  C   -0.096224
     7  C   -0.075650
     8  C   -0.059048
     9  C   -0.004586
    10  C    0.094985
    11  C    0.060959
    12  C    0.052584
    13  C    0.170832
    14  O   -0.210010
    15  O   -0.320335
    16  N   -0.094272
    17  C    0.232164
    18  C   -0.118361
    19  C    0.151131
    20  C    0.192733
    21  C    0.070209
    22  C   -0.133219
    23  C    0.067808
    24  N   -0.277625
    25  C    0.024027
    26  C   -0.164407
    27  C   -0.081673
    28  C    0.065694
    29  C    0.020904
    30  C    0.134162
    31  C    0.042647
    32  N   -0.005872
    33  C    0.074477
    34  C   -0.085400
    35  C   -0.112082
    36  C    0.097353
    37  C    0.062146
    38  C    0.113872
    39  O   -0.132830
    40  C   -0.124079
    41  C    0.212193
    42  O   -0.228532
    43  O   -0.344019
    44  C    0.113650
    45  C    0.314106
    46  C   -0.155720
    47  C   -0.162151
    48  C    0.032428
    49  C    0.112790
    50  C   -0.088103
    51  C   -0.040146
    52  C    0.015742
    53  C   -0.065125
    54  C    0.098074
    55  C   -0.077081
    56  C    0.081563
    57  C   -0.056049
    58  C    0.001336
    59  C   -0.086552
    60  C    0.034991
    61  C    0.103133
    62  C   -0.143528
    63  C    0.089266
    64  C    0.030300
    65  H   -0.029658
    66  H    0.020326
    67  H   -0.030116
    68  H    0.030575
    69  H   -0.005594
    70  H    0.004377
    71  H   -0.007651
    72  H    0.009819
    73  H   -0.011501
    74  H    0.036375
    75  H    0.034029
    76  H    0.063244
    77  H    0.019470
    78  H    0.044023
    79  H    0.037803
    80  H   -0.027035
    81  H   -0.035069
    82  H   -0.033069
    83  H    0.063947
    84  H    0.070793
    85  H    0.016668
    86  H   -0.041309
    87  H   -0.003837
    88  H    0.005579
    89  H   -0.041013
    90  H    0.021988
    91  H    0.009321
    92  H    0.019137
    93  H    0.085105
    94  H    0.060739
    95  H    0.065861
    96  H    0.063984
    97  H    0.047741
    98  H    0.003312
    99  H    0.022565
   100  H    0.015796
   101  H    0.027506
   102  H    0.063616
   103  H    0.014884
   104  H   -0.046226
   105  H    0.020346
   106  H    0.033211
   107  H    0.016872
   108  H    0.007933
   109  H    0.015154
   110  H   -0.007208
   111  H    0.036697
   112  H    0.030280
   113  H    0.022022
   114  H   -0.002778
   115  H   -0.044241
   116  H    0.009878
   117  H   -0.006451
   118  H   -0.011843
   119  H   -0.016409
   120  H   -0.032435
   121  H    0.009319
   122  H    0.016234
   123  H    0.037543
   124  H    0.005296
   125  H    0.009032
   126  H   -0.014324
   127  H   -0.002319
   128  H    0.009165
   129  H   -0.026453
   130  H    0.007455
   131  H    0.011688
   132  H   -0.033573
   133  H   -0.000880
   134  H   -0.019958
   135  H    0.016392
   136  H   -0.003797
   137  H    0.109951
   138  H    0.169378
 Sum of Mulliken charges =   0.00000

 Dipole moment (field-independent basis, Debye):
    X=              1.2454    Y=              4.5490    Z=              0.9471  Tot=              4.8106
 Quadrupole moment (field-independent basis, Debye-Ang):
   XX=           -351.8214   YY=           -379.7537   ZZ=           -396.0606
   XY=            -33.6889   XZ=              4.1316   YZ=              1.0582

 Normal termination of Gaussian 09 at Sun Aug  4 17:08:21 2019.
