 Gaussian 09, Revision D.01,
 Gaussian 09:  ES64L-G09RevD.01 24-Apr-2013

 --------------------------
 # td=(NStates=1) B3LYP/SVP
 --------------------------

 --
 TD
 --
 Symbolic Z-matrix:
 Charge =  0 Multiplicity = 1

                         Standard orientation:
 ---------------------------------------------------------------------
 Center     Atomic      Atomic             Coordinates (Angstroms)
 Number     Number       Type             X           Y           Z
 ---------------------------------------------------------------------
      1          6           0       -5.108842   -1.928394    0.540120
      2          6           0       -4.826238    2.742757    1.239349
      3          6           0       -9.461201    3.251866   -0.212257
      4          6           0       -9.781543   -1.549918   -0.894611
      5          7           0       -5.211950    0.462583    0.688150
      6          6           0       -4.494712   -0.720118    0.853483
      7          6           0       -2.947072   -0.462004    1.209402
      8          6           0       -3.162096    0.957176    1.686688
      9          6           0       -4.504582    1.429148    1.189208
     10          6           0       -3.014856    0.984294    3.223605
     11          6           0       -1.974794   -0.787309    0.004245
     12          6           0       -0.526665   -0.737923    0.615221
     13          6           0        0.405678   -0.922486   -0.490124
     14          8           0        0.106092   -1.528779   -1.543980
     15          8           0        1.649276   -0.461872   -0.259764
     16          7           0       -7.124352    2.726849    0.408599
     17          6           0       -6.107951    3.385008    0.988760
     18          6           0       -6.349396    4.812853    0.961665
     19          6           0       -7.748739    4.948282    0.644671
     20          6           0       -8.197490    3.614547    0.260484
     21          6           0       -5.364598    5.798840    1.489982
     22          6           0       -8.347335    6.319117    0.379481
     23          6           0       -9.124788    6.662905   -0.625142
     24          7           0       -9.209106    0.767111   -0.415983
     25          6           0       -9.896470    1.960082   -0.544409
     26          6           0      -11.316171    1.711244   -0.922710
     27          6           0      -11.440504    0.396341   -1.038051
     28          6           0      -10.139042   -0.264843   -0.640164
     29          6           0      -12.364172    2.726506   -1.121760
     30          6           0      -12.725383   -0.316196   -1.518754
     31          6           0      -12.838485   -0.642242   -2.955642
     32          7           0       -7.488397   -1.327689   -0.215758
     33          6           0       -8.505189   -2.200582   -0.630468
     34          6           0       -8.004169   -3.507709   -0.676358
     35          6           0       -6.687822   -3.414233   -0.199769
     36          6           0       -6.482406   -2.121083    0.151524
     37          6           0       -8.863397   -4.746047   -1.000112
     38          6           0       -5.593440   -4.267168   -0.024869
     39          8           0       -5.553826   -5.504618   -0.027208
     40          6           0       -4.444047   -3.338296    0.468394
     41          6           0       -3.864330   -3.783595    1.742401
     42          8           0       -4.109112   -3.364721    2.797581
     43          8           0       -2.984616   -4.735373    1.512816
     44          6           0       -2.269214   -5.297500    2.711934
     45          6           0        2.643034   -0.744777   -1.193847
     46          6           0        4.035636   -0.397355   -0.729594
     47          6           0        5.010107    0.279027   -1.297365
     48          6           0        4.921897    1.043998   -2.537990
     49          6           0        6.365936    0.483342   -0.579231
     50          6           0        7.603725   -0.236687   -1.228423
     51          6           0        8.817706   -0.142170   -0.284666
     52          6           0       10.161956   -0.688788   -0.881049
     53          6           0       10.070151   -2.245963   -1.180258
     54          6           0       11.328511   -0.255845    0.027020
     55          6           0       12.715073   -0.574080   -0.553386
     56          6           0       13.886875   -0.045588    0.250138
     57          6           0       15.217812   -0.444522   -0.209318
     58          6           0       15.572817   -1.816833   -0.057429
     59          6           0       16.348339    0.590868    0.505501
     60          6           0       17.717942    0.564510   -0.070895
     61          6           0       18.602504    1.530365    0.606811
     62          6           0       19.998969    1.574350    0.208646
     63          6           0       20.183660    2.134929   -1.129914
     64          6           0       20.857477    2.483967    1.052157
     65          1           0       -4.298739    3.507912    1.905572
     66          1           0      -10.342109    3.987639   -0.252218
     67          1           0      -10.520778   -2.283232   -1.031045
     68          1           0       -2.634010   -1.088536    2.005123
     69          1           0       -2.460635    1.752551    1.145521
     70          1           0       -2.103406    0.505477    3.350916
     71          1           0       -3.065511    2.022864    3.767148
     72          1           0       -3.675636    0.169715    3.636317
     73          1           0       -2.126268   -1.566395   -0.413770
     74          1           0       -2.120365    0.112802   -0.704185
     75          1           0       -0.238123    0.235397    1.188702
     76          1           0       -0.659850   -1.596691    1.500623
     77          1           0       -4.404856    6.053811    0.828536
     78          1           0       -5.872036    6.777411    1.871076
     79          1           0       -4.933923    5.273385    2.512516
     80          1           0       -8.493719    7.192223    1.030994
     81          1           0       -9.552532    5.952131   -1.311068
     82          1           0       -9.536079    7.794408   -0.665443
     83          1           0      -11.973272    3.524198   -0.360271
     84          1           0      -12.145417    3.338390   -1.990437
     85          1           0      -13.455109    2.398217   -1.092559
     86          1           0      -12.973818   -1.369840   -1.115532
     87          1           0      -13.863829    0.277344   -1.087656
     88          1           0      -13.077567    0.162163   -3.758821
     89          1           0      -11.909637   -1.087264   -3.422771
     90          1           0      -13.618245   -1.441263   -3.107803
     91          1           0       -9.807936   -4.527172   -0.558320
     92          1           0       -8.816567   -4.894204   -2.301351
     93          1           0       -8.196136   -5.706368   -0.711560
     94          1           0       -3.820496   -3.526440   -0.454661
     95          1           0       -1.830482   -6.391198    2.279764
     96          1           0       -1.692589   -4.582351    3.404611
     97          1           0       -2.985217   -5.684194    3.432293
     98          1           0        2.503523   -1.708386   -1.442177
     99          1           0        2.318571   -0.396900   -2.085321
    100          1           0        4.267065   -0.865467    0.248607
    101          1           0        4.668344    2.255169   -2.308192
    102          1           0        5.776138    0.934673   -3.274631
    103          1           0        3.870083    0.744640   -2.975382
    104          1           0        6.679224    1.474541   -0.479428
    105          1           0        6.368168    0.077044    0.592454
    106          1           0        7.462254   -1.312174   -1.300277
    107          1           0        7.652182    0.127149   -2.292573
    108          1           0        9.129960    0.931707   -0.269048
    109          1           0        8.455250   -0.739765    0.746804
    110          1           0       10.167627   -0.043462   -1.994302
    111          1           0        9.040537   -2.604317   -1.691517
    112          1           0       11.071381   -2.671857   -1.668778
    113          1           0        9.965257   -2.719086   -0.244317
    114          1           0       11.114528    0.877112    0.237195
    115          1           0       11.334178   -0.862729    0.972958
    116          1           0       12.916412   -1.800294   -0.676805
    117          1           0       12.549088   -0.468073   -1.736299
    118          1           0       13.751662    1.088989    0.054205
    119          1           0       13.554307   -0.476726    1.241140
    120          1           0       15.406264   -0.060299   -1.348906
    121          1           0       15.010855   -2.417584   -0.674155
    122          1           0       16.601791   -2.224993   -0.247779
    123          1           0       15.337432   -2.246842    0.954378
    124          1           0       15.919151    1.454663    0.476211
    125          1           0       16.433552    0.164422    1.646598
    126          1           0       18.095278   -0.472424    0.137126
    127          1           0       17.708996    0.670981   -1.304770
    128          1           0       18.356027    2.667508    0.507842
    129          1           0       18.555680    1.484321    1.765970
    130          1           0       20.405815    0.664086    0.267719
    131          1           0       19.710005    3.168364   -1.271197
    132          1           0       21.148505    2.205196   -1.557817
    133          1           0       19.817125    1.564014   -1.826401
    134          1           0       20.665392    2.283833    2.198424
    135          1           0       21.925517    2.616616    0.716976
    136          1           0       20.379354    3.582201    1.084496
    137          1           0       -7.049912    1.762247    0.512974
    138          1           0       -7.395566   -0.356471    0.203186
 ---------------------------------------------------------------------

 SCF Done:  E(RB3LYP) =  -2732.94026622     A.U. after   17 cycles

 Excitation energies and oscillator strengths:

 Excited State   1:      Singlet-A      2.1000 eV  590.41 nm  f=0.2079  <S**2>=0.000
     235 -> 237       -0.41207
     235 -> 238        0.21339
     236 -> 237        0.49246
     236 -> 238        0.20215
 This state for optimization and/or second-order correction.
 Total Energy, E(TD-HF/TD-KS) =  -2732.86309442
 Copying the excited state density for this state as the 1-particle RhoCI density.

 The electronic state is 1-A.
 Alpha  occ. eigenvalues --  -19.18165 -19.17384 -19.12291 -19.11720 -19.11462
 Alpha  occ. eigenvalues --  -14.37130 -14.36696 -14.32492 -14.30524 -10.31948
 Alpha  occ. eigenvalues --  -10.30371 -10.26900 -10.26418 -10.25189 -10.24021
 Alpha  occ. eigenvalues --  -10.23460 -10.23221 -10.23004 -10.22841 -10.22548
 Alpha  occ. eigenvalues --  -10.22496 -10.22244 -10.22234 -10.22059 -10.21868
 Alpha  occ. eigenvalues --  -10.21860 -10.21799 -10.21667 -10.21296 -10.21240
 Alpha  occ. eigenvalues --  -10.21077 -10.21014 -10.20963 -10.20744 -10.20630
 Alpha  occ. eigenvalues --  -10.20540 -10.20458 -10.20346 -10.20278 -10.20250
 Alpha  occ. eigenvalues --  -10.20247 -10.19956 -10.19951 -10.19738 -10.19711
 Alpha  occ. eigenvalues --  -10.19690 -10.19546 -10.19448 -10.19324 -10.19306
 Alpha  occ. eigenvalues --  -10.19260 -10.19112 -10.19045 -10.18934 -10.18880
 Alpha  occ. eigenvalues --  -10.18802 -10.18793 -10.18405 -10.18254 -10.17880
 Alpha  occ. eigenvalues --  -10.17504 -10.17263 -10.16631 -10.15485  -1.10467
 Alpha  occ. eigenvalues --   -1.10209  -1.01338  -1.01004  -0.99549  -0.99231
 Alpha  occ. eigenvalues --   -0.98944  -0.95288  -0.92201  -0.85051  -0.83409
 Alpha  occ. eigenvalues --   -0.82694  -0.82182  -0.82108  -0.81666  -0.81060
 Alpha  occ. eigenvalues --   -0.80208  -0.80099  -0.79644  -0.78838  -0.78305
 Alpha  occ. eigenvalues --   -0.77271  -0.76909  -0.76231  -0.75676  -0.75168
 Alpha  occ. eigenvalues --   -0.74343  -0.73424  -0.72676  -0.72099  -0.70515
 Alpha  occ. eigenvalues --   -0.69652  -0.69061  -0.68522  -0.68320  -0.67791
 Alpha  occ. eigenvalues --   -0.67551  -0.67009  -0.66476  -0.66233  -0.65887
 Alpha  occ. eigenvalues --   -0.64015  -0.63675  -0.62372  -0.62114  -0.61428
 Alpha  occ. eigenvalues --   -0.59866  -0.59277  -0.58836  -0.58419  -0.57624
 Alpha  occ. eigenvalues --   -0.57086  -0.56360  -0.56088  -0.55784  -0.55526
 Alpha  occ. eigenvalues --   -0.55090  -0.54563  -0.54542  -0.53783  -0.53295
 Alpha  occ. eigenvalues --   -0.53079  -0.52246  -0.51356  -0.50823  -0.50709
 Alpha  occ. eigenvalues --   -0.50359  -0.49704  -0.48831  -0.48695  -0.48268
 Alpha  occ. eigenvalues --   -0.47990  -0.47957  -0.47856  -0.47617  -0.47134
 Alpha  occ. eigenvalues --   -0.46938  -0.46557  -0.46491  -0.46167  -0.46005
 Alpha  occ. eigenvalues --   -0.45947  -0.45224  -0.45007  -0.44946  -0.44728
 Alpha  occ. eigenvalues --   -0.44530  -0.44248  -0.44036  -0.43824  -0.43504
 Alpha  occ. eigenvalues --   -0.43232  -0.42707  -0.42651  -0.42571  -0.42470
 Alpha  occ. eigenvalues --   -0.42076  -0.41863  -0.41568  -0.41487  -0.41251
 Alpha  occ. eigenvalues --   -0.40888  -0.40756  -0.40493  -0.40420  -0.40390
 Alpha  occ. eigenvalues --   -0.40119  -0.40017  -0.39896  -0.39536  -0.39369
 Alpha  occ. eigenvalues --   -0.39253  -0.38688  -0.38669  -0.38652  -0.38201
 Alpha  occ. eigenvalues --   -0.37895  -0.37847  -0.37734  -0.37660  -0.37408
 Alpha  occ. eigenvalues --   -0.37291  -0.37124  -0.36776  -0.36693  -0.36325
 Alpha  occ. eigenvalues --   -0.36221  -0.36013  -0.35958  -0.35900  -0.35818
 Alpha  occ. eigenvalues --   -0.35684  -0.35321  -0.35016  -0.34946  -0.34841
 Alpha  occ. eigenvalues --   -0.34734  -0.34708  -0.34252  -0.34080  -0.33627
 Alpha  occ. eigenvalues --   -0.33308  -0.33270  -0.32760  -0.32527  -0.32429
 Alpha  occ. eigenvalues --   -0.32126  -0.31743  -0.31674  -0.31404  -0.31008
 Alpha  occ. eigenvalues --   -0.30754  -0.30589  -0.30296  -0.30065  -0.30061
 Alpha  occ. eigenvalues --   -0.29992  -0.29408  -0.28218  -0.28157  -0.27860
 Alpha  occ. eigenvalues --   -0.27697  -0.26833  -0.26809  -0.26152  -0.25950
 Alpha  occ. eigenvalues --   -0.25451  -0.25212  -0.24514  -0.23227  -0.19978
 Alpha  occ. eigenvalues --   -0.19618
 Alpha virt. eigenvalues --   -0.11069  -0.07208  -0.04508  -0.02499  -0.01578
 Alpha virt. eigenvalues --   -0.00358   0.00018   0.01529   0.01996   0.03205
 Alpha virt. eigenvalues --    0.03405   0.03487   0.03956   0.04100   0.04206

 Mulliken charges:
               1
     1  C   -0.029717
     2  C   -0.056279
     3  C   -0.121824
     4  C    0.008547
     5  N   -0.189171
     6  C   -0.070381
     7  C   -0.021083
     8  C   -0.094788
     9  C    0.065996
    10  C    0.097972
    11  C    0.218826
    12  C   -0.076408
    13  C    0.218568
    14  O   -0.283378
    15  O   -0.290877
    16  N    0.001238
    17  C   -0.046768
    18  C   -0.077944
    19  C    0.035550
    20  C    0.141947
    21  C   -0.029971
    22  C   -0.010042
    23  C   -0.107510
    24  N   -0.264625
    25  C    0.051325
    26  C   -0.134445
    27  C   -0.039655
    28  C    0.083370
    29  C    0.116236
    30  C   -0.042008
    31  C   -0.026764
    32  N   -0.033941
    33  C    0.036156
    34  C   -0.117683
    35  C    0.013684
    36  C    0.063249
    37  C    0.006863
    38  C   -0.000905
    39  O   -0.200531
    40  C   -0.039722
    41  C    0.187421
    42  O   -0.182106
    43  O   -0.297542
    44  C    0.132793
    45  C    0.389873
    46  C   -0.064236
    47  C   -0.079844
    48  C   -0.009316
    49  C    0.047085
    50  C    0.003306
    51  C   -0.010411
    52  C   -0.153582
    53  C   -0.007822
    54  C    0.060885
    55  C   -0.119539
    56  C    0.102962
    57  C   -0.098748
    58  C    0.082995
    59  C    0.056953
    60  C    0.061061
    61  C   -0.027440
    62  C    0.026020
    63  C    0.115685
    64  C   -0.016462
    65  H   -0.012106
    66  H    0.001585
    67  H   -0.041725
    68  H   -0.023939
    69  H    0.014443
    70  H   -0.020164
    71  H    0.041382
    72  H    0.025362
    73  H   -0.090171
    74  H    0.022390
    75  H    0.051065
    76  H    0.070882
    77  H    0.064054
    78  H    0.041517
    79  H    0.053997
    80  H    0.019414
    81  H    0.015692
    82  H    0.043380
    83  H    0.014933
    84  H    0.007172
    85  H    0.043321
    86  H    0.015350
    87  H    0.019562
    88  H    0.016820
    89  H    0.017220
    90  H    0.010539
    91  H    0.044282
    92  H    0.052649
    93  H    0.075595
    94  H    0.072962
    95  H    0.071649
    96  H    0.054960
    97  H    0.025939
    98  H   -0.038260
    99  H   -0.057654
   100  H   -0.009309
   101  H    0.047541
   102  H    0.050108
   103  H    0.019828
   104  H   -0.015540
   105  H    0.002525
   106  H   -0.011131
   107  H    0.002227
   108  H    0.002251
   109  H    0.030456
   110  H    0.012077
   111  H    0.032941
   112  H    0.041285
   113  H   -0.010362
   114  H    0.014990
   115  H    0.003521
   116  H   -0.000706
   117  H    0.003387
   118  H    0.012614
   119  H    0.007354
   120  H    0.001725
   121  H   -0.021466
   122  H    0.007421
   123  H   -0.006815
   124  H   -0.064667
   125  H    0.002952
   126  H   -0.005267
   127  H    0.019294
   128  H   -0.015437
   129  H   -0.007116
   130  H   -0.054221
   131  H   -0.001334
   132  H   -0.024941
   133  H   -0.068842
   134  H   -0.000990
   135  H    0.025134
   136  H   -0.004098
   137  H    0.116284
   138  H    0.189131
 Sum of Mulliken charges =   0.00000

 Dipole moment (field-independent basis, Debye):
    X=              1.9194    Y=              4.3872    Z=              1.4946  Tot=              5.0165
 Quadrupole moment (field-independent basis, Debye-Ang):
   XX=           -360.2683   YY=           -384.4318   ZZ=           -396.0322
   XY=            -39.0716   XZ=             -1.8132   YZ=             -2.2754

 Normal termination of Gaussian 09 at Sun Aug  4 03:51:28 2019.
