 Gaussian 09, Revision D.01,
 Gaussian 09:  ES64L-G09RevD.01 24-Apr-2013

 --------------------------
 # td=(NStates=1) B3LYP/SVP
 --------------------------

 --
 TD
 --
 Symbolic Z-matrix:
 Charge =  0 Multiplicity = 1

                         Standard orientation:
 ---------------------------------------------------------------------
 Center     Atomic      Atomic             Coordinates (Angstroms)
 Number     Number       Type             X           Y           Z
 ---------------------------------------------------------------------
      1          6           0       -5.108724   -1.910945    0.465980
      2          6           0       -4.939517    2.782356    1.288253
      3          6           0       -9.557882    3.206528   -0.246097
      4          6           0       -9.869749   -1.584004   -0.892858
      5          7           0       -5.221640    0.369392    0.788893
      6          6           0       -4.422115   -0.713221    0.768640
      7          6           0       -3.038375   -0.546591    1.233085
      8          6           0       -3.032434    0.949086    1.707708
      9          6           0       -4.465522    1.468968    1.164228
     10          6           0       -2.778372    1.119229    3.201468
     11          6           0       -2.043902   -0.788189    0.179978
     12          6           0       -0.535169   -0.588810    0.512734
     13          6           0        0.389308   -0.805516   -0.696372
     14          8           0        0.060218   -1.205822   -1.744221
     15          8           0        1.646137   -0.536976   -0.315447
     16          7           0       -7.259638    2.653186    0.521974
     17          6           0       -6.179209    3.364455    0.967683
     18          6           0       -6.474358    4.782904    1.069031
     19          6           0       -7.886241    4.868734    0.542746
     20          6           0       -8.264302    3.525348    0.219146
     21          6           0       -5.551623    5.905028    1.462422
     22          6           0       -8.458637    6.178204    0.273922
     23          6           0       -9.235387    6.385289   -0.740153
     24          7           0       -9.338201    0.834845   -0.455345
     25          6           0      -10.111765    1.954285   -0.545560
     26          6           0      -11.452293    1.663235   -0.877727
     27          6           0      -11.592424    0.332620   -1.098352
     28          6           0      -10.225220   -0.257752   -0.831109
     29          6           0      -12.530236    2.759708   -1.091202
     30          6           0      -12.832493   -0.381283   -1.584296
     31          6           0      -12.636496   -0.815249   -3.034911
     32          7           0       -7.387278   -1.261913   -0.217554
     33          6           0       -8.584338   -2.138440   -0.576660
     34          6           0       -8.197931   -3.413986   -0.682574
     35          6           0       -6.863168   -3.411561   -0.193230
     36          6           0       -6.436926   -2.045428   -0.022631
     37          6           0       -8.956410   -4.609802   -0.768557
     38          6           0       -5.707155   -4.292587    0.211282
     39          8           0       -5.621642   -5.516156    0.194598
     40          6           0       -4.547745   -3.271998    0.348110
     41          6           0       -3.736322   -3.712723    1.659955
     42          8           0       -3.927392   -3.175734    2.806582
     43          8           0       -2.879391   -4.766649    1.399786
     44          6           0       -2.270636   -5.313385    2.611410
     45          6           0        2.638371   -0.810274   -1.217019
     46          6           0        4.025491   -0.640535   -0.563240
     47          6           0        5.099623    0.143883   -1.052092
     48          6           0        5.074370    1.051843   -2.363546
     49          6           0        6.298964    0.376660   -0.180629
     50          6           0        7.628267   -0.243700   -0.887895
     51          6           0        8.958166   -0.169058   -0.007078
     52          6           0       10.103340   -0.645074   -0.773576
     53          6           0       10.034959   -2.214200   -1.156066
     54          6           0       11.409891   -0.378888    0.046272
     55          6           0       12.771867   -0.706556   -0.564615
     56          6           0       13.982463   -0.200564    0.204289
     57          6           0       15.293706   -0.334083   -0.448612
     58          6           0       15.672815   -1.746429   -0.821531
     59          6           0       16.334115    0.446558    0.418815
     60          6           0       17.805842    0.555098   -0.132247
     61          6           0       18.848473    1.362397    0.755290
     62          6           0       20.214996    1.642361    0.103645
     63          6           0       20.250895    2.599802   -1.133487
     64          6           0       21.031981    2.333741    1.252299
     65          1           0       -4.265292    3.602734    1.632498
     66          1           0      -10.150799    3.957806   -0.416214
     67          1           0      -10.504284   -2.202644   -1.237261
     68          1           0       -2.945126   -1.050815    2.218159
     69          1           0       -2.493318    1.883377    1.096472
     70          1           0       -1.734898    0.824631    3.483860
     71          1           0       -3.051514    2.029949    3.493419
     72          1           0       -3.331514    0.378888    3.842822
     73          1           0       -2.281597   -1.752815   -0.113595
     74          1           0       -2.118188   -0.100070   -0.749420
     75          1           0       -0.312874    0.378928    0.911316
     76          1           0       -0.104742   -1.402462    1.109480
     77          1           0       -4.634072    6.053786    0.981369
     78          1           0       -6.043268    6.977555    1.148101
     79          1           0       -5.273876    5.717742    2.548042
     80          1           0       -8.019207    6.822014    1.039084
     81          1           0       -9.661020    5.748640   -1.412647
     82          1           0       -9.773953    7.477778   -0.731514
     83          1           0      -12.781714    3.418634   -0.095162
     84          1           0      -12.433293    3.550024   -1.817096
     85          1           0      -13.518058    2.307950   -1.288323
     86          1           0      -13.047376   -1.225072   -0.870328
     87          1           0      -13.603494    0.413470   -1.295772
     88          1           0      -12.830926   -0.122612   -3.549562
     89          1           0      -11.709548   -1.352579   -3.213689
     90          1           0      -13.425900   -1.596453   -3.361051
     91          1           0       -9.832484   -4.678443    0.210437
     92          1           0       -9.563047   -4.597572   -1.652899
     93          1           0       -8.227094   -5.660323   -0.617188
     94          1           0       -3.771699   -3.426540   -0.510964
     95          1           0       -1.306860   -5.880563    2.390709
     96          1           0       -1.836846   -4.378730    2.989493
     97          1           0       -2.740325   -5.851942    3.409144
     98          1           0        2.609551   -1.977313   -1.524114
     99          1           0        2.751996   -0.116069   -2.020361
    100          1           0        4.368108   -1.202036    0.456290
    101          1           0        5.278543    2.015910   -2.070041
    102          1           0        5.829430    0.596431   -3.236542
    103          1           0        4.030249    0.950622   -2.886414
    104          1           0        6.498794    1.309946   -0.023136
    105          1           0        6.269658   -0.021364    0.708641
    106          1           0        7.604224   -1.202695   -1.341198
    107          1           0        7.832597    0.518923   -1.896564
    108          1           0        9.100213    0.902246    0.335205
    109          1           0        8.837717   -0.811234    1.024360
    110          1           0       10.115211    0.009321   -1.775702
    111          1           0        9.188368   -2.400414   -1.561830
    112          1           0       10.958512   -2.535023   -1.672829
    113          1           0       10.226033   -2.870903   -0.271372
    114          1           0       11.308399    0.686896    0.330407
    115          1           0       11.098588   -0.955070    0.950828
    116          1           0       12.668986   -1.797990   -0.635210
    117          1           0       12.616269   -0.235393   -1.599422
    118          1           0       13.748656    0.815769    0.365553
    119          1           0       14.025469   -0.551060    1.089011
    120          1           0       15.241061    0.199232   -1.272440
    121          1           0       14.895254   -2.124891   -1.406850
    122          1           0       16.797869   -1.888286   -1.340168
    123          1           0       15.551375   -2.422948    0.236203
    124          1           0       15.898845    1.463206    0.637888
    125          1           0       16.384304   -0.283512    1.462346
    126          1           0       18.278264   -0.343086   -0.393738
    127          1           0       17.739668    1.061462   -1.175433
    128          1           0       18.170949    2.383567    0.788896
    129          1           0       18.928600    1.021477    1.785006
    130          1           0       20.825980    0.593324   -0.166697
    131          1           0       19.674434    3.726117   -0.999471
    132          1           0       21.219657    2.805456   -1.477627
    133          1           0       19.883889    2.154947   -2.003256
    134          1           0       21.086528    1.741962    2.302988
    135          1           0       22.044399    2.597819    0.840619
    136          1           0       20.522248    3.405865    1.448348
    137          1           0       -7.313249    1.679612    0.459977
    138          1           0       -7.312538   -0.127900   -0.146862
 ---------------------------------------------------------------------

 SCF Done:  E(RB3LYP) =  -2732.91852962     A.U. after   17 cycles

 Excitation energies and oscillator strengths:

 Excited State   1:      Singlet-A      2.0402 eV  607.71 nm  f=0.1640  <S**2>=0.000
     235 -> 237        0.46644
     235 -> 238        0.18726
     236 -> 237       -0.41079
     236 -> 238        0.27197
 This state for optimization and/or second-order correction.
 Total Energy, E(TD-HF/TD-KS) =  -2732.84355395
 Copying the excited state density for this state as the 1-particle RhoCI density.

 The electronic state is 1-A.
 Alpha  occ. eigenvalues --  -19.18961 -19.18122 -19.12822 -19.12822 -19.11777
 Alpha  occ. eigenvalues --  -14.37165 -14.37158 -14.32552 -14.30138 -10.32507
 Alpha  occ. eigenvalues --  -10.31274 -10.27658 -10.25670 -10.24497 -10.24308
 Alpha  occ. eigenvalues --  -10.24037 -10.23507 -10.23421 -10.22910 -10.22380
 Alpha  occ. eigenvalues --  -10.22091 -10.21785 -10.21766 -10.21742 -10.21655
 Alpha  occ. eigenvalues --  -10.21616 -10.21270 -10.21255 -10.21156 -10.21071
 Alpha  occ. eigenvalues --  -10.20808 -10.20539 -10.20389 -10.20324 -10.20304
 Alpha  occ. eigenvalues --  -10.20201 -10.20078 -10.20044 -10.20021 -10.19986
 Alpha  occ. eigenvalues --  -10.19878 -10.19780 -10.19720 -10.19716 -10.19675
 Alpha  occ. eigenvalues --  -10.19628 -10.19621 -10.19564 -10.19503 -10.19330
 Alpha  occ. eigenvalues --  -10.19099 -10.18933 -10.18805 -10.18725 -10.18567
 Alpha  occ. eigenvalues --  -10.18513 -10.18422 -10.18354 -10.17916 -10.17407
 Alpha  occ. eigenvalues --  -10.17311 -10.17310 -10.17067 -10.15923  -1.11887
 Alpha  occ. eigenvalues --   -1.07298  -1.03437  -1.01410  -0.98741  -0.98498
 Alpha  occ. eigenvalues --   -0.97961  -0.94026  -0.91841  -0.83972  -0.82846
 Alpha  occ. eigenvalues --   -0.82833  -0.82494  -0.81885  -0.81486  -0.80780
 Alpha  occ. eigenvalues --   -0.80271  -0.79628  -0.79181  -0.78772  -0.77785
 Alpha  occ. eigenvalues --   -0.76886  -0.75907  -0.75389  -0.74744  -0.74471
 Alpha  occ. eigenvalues --   -0.73139  -0.72737  -0.72389  -0.71498  -0.71153
 Alpha  occ. eigenvalues --   -0.70311  -0.69296  -0.68562  -0.68430  -0.67725
 Alpha  occ. eigenvalues --   -0.67506  -0.67297  -0.66206  -0.65898  -0.65261
 Alpha  occ. eigenvalues --   -0.64605  -0.63450  -0.63094  -0.62644  -0.61680
 Alpha  occ. eigenvalues --   -0.60688  -0.59160  -0.58561  -0.58087  -0.57613
 Alpha  occ. eigenvalues --   -0.56947  -0.56752  -0.56455  -0.55857  -0.55494
 Alpha  occ. eigenvalues --   -0.54875  -0.54298  -0.54142  -0.53919  -0.53143
 Alpha  occ. eigenvalues --   -0.52455  -0.52200  -0.51393  -0.51207  -0.50558
 Alpha  occ. eigenvalues --   -0.49360  -0.49101  -0.48963  -0.48836  -0.48240
 Alpha  occ. eigenvalues --   -0.48115  -0.47887  -0.47795  -0.47412  -0.47018
 Alpha  occ. eigenvalues --   -0.46977  -0.46467  -0.46266  -0.46042  -0.45815
 Alpha  occ. eigenvalues --   -0.45687  -0.45598  -0.45572  -0.45310  -0.44973
 Alpha  occ. eigenvalues --   -0.44745  -0.44614  -0.44249  -0.43999  -0.43773
 Alpha  occ. eigenvalues --   -0.43407  -0.43257  -0.42996  -0.42839  -0.42654
 Alpha  occ. eigenvalues --   -0.42389  -0.42357  -0.42022  -0.41862  -0.41284
 Alpha  occ. eigenvalues --   -0.41137  -0.41017  -0.40845  -0.40701  -0.40234
 Alpha  occ. eigenvalues --   -0.39943  -0.39812  -0.39768  -0.39532  -0.39471
 Alpha  occ. eigenvalues --   -0.39218  -0.39034  -0.38636  -0.38507  -0.38386
 Alpha  occ. eigenvalues --   -0.38304  -0.38171  -0.38028  -0.37819  -0.37411
 Alpha  occ. eigenvalues --   -0.37097  -0.37073  -0.36802  -0.36660  -0.36508
 Alpha  occ. eigenvalues --   -0.36421  -0.36185  -0.36119  -0.35965  -0.35766
 Alpha  occ. eigenvalues --   -0.35426  -0.35153  -0.34951  -0.34715  -0.34610
 Alpha  occ. eigenvalues --   -0.34427  -0.34320  -0.34173  -0.34095  -0.33715
 Alpha  occ. eigenvalues --   -0.33456  -0.33217  -0.33091  -0.32939  -0.32867
 Alpha  occ. eigenvalues --   -0.32346  -0.32144  -0.31741  -0.31563  -0.31267
 Alpha  occ. eigenvalues --   -0.31141  -0.31027  -0.30855  -0.30779  -0.30168
 Alpha  occ. eigenvalues --   -0.29952  -0.29931  -0.28992  -0.28553  -0.28198
 Alpha  occ. eigenvalues --   -0.27593  -0.27218  -0.26625  -0.26180  -0.25075
 Alpha  occ. eigenvalues --   -0.24524  -0.23924  -0.23701  -0.22878  -0.19648
 Alpha  occ. eigenvalues --   -0.19014
 Alpha virt. eigenvalues --   -0.10819  -0.07565  -0.04031  -0.02217  -0.01276
 Alpha virt. eigenvalues --   -0.00773   0.00238   0.01292   0.01860   0.03335
 Alpha virt. eigenvalues --    0.03608   0.03674   0.04335   0.04608   0.04805

 Mulliken charges:
               1
     1  C    0.070420
     2  C   -0.069431
     3  C    0.005148
     4  C    0.004615
     5  N   -0.217603
     6  C   -0.096090
     7  C    0.088639
     8  C   -0.178048
     9  C    0.049286
    10  C    0.123738
    11  C    0.092808
    12  C    0.064903
    13  C    0.121764
    14  O   -0.182275
    15  O   -0.278094
    16  N    0.010244
    17  C    0.057320
    18  C   -0.124102
    19  C   -0.041182
    20  C    0.109586
    21  C    0.050551
    22  C    0.016848
    23  C   -0.015670
    24  N   -0.293763
    25  C    0.069268
    26  C   -0.074798
    27  C   -0.122348
    28  C    0.101081
    29  C    0.047308
    30  C    0.048595
    31  C    0.160386
    32  N   -0.066186
    33  C    0.121362
    34  C   -0.081132
    35  C   -0.043796
    36  C    0.005193
    37  C   -0.044723
    38  C    0.109886
    39  O   -0.188028
    40  C   -0.102107
    41  C    0.232297
    42  O   -0.286642
    43  O   -0.307654
    44  C    0.185544
    45  C    0.298125
    46  C   -0.163159
    47  C   -0.161924
    48  C    0.015119
    49  C    0.279830
    50  C   -0.092612
    51  C    0.005778
    52  C   -0.134401
    53  C    0.107190
    54  C   -0.017693
    55  C    0.067181
    56  C    0.161869
    57  C    0.036182
    58  C   -0.010394
    59  C   -0.038120
    60  C    0.049628
    61  C    0.002532
    62  C   -0.126444
    63  C    0.043683
    64  C   -0.031417
    65  H   -0.029624
    66  H   -0.133300
    67  H   -0.133373
    68  H    0.035166
    69  H    0.025754
    70  H    0.017268
    71  H   -0.026745
    72  H    0.022656
    73  H   -0.026554
    74  H    0.026578
    75  H    0.024727
    76  H    0.020924
    77  H    0.020030
    78  H    0.038938
    79  H    0.046147
    80  H    0.012616
    81  H    0.009521
    82  H    0.030892
    83  H    0.022768
    84  H    0.020616
    85  H   -0.002605
    86  H    0.008875
    87  H    0.011235
    88  H   -0.081095
    89  H    0.018566
    90  H    0.000767
    91  H    0.055842
    92  H    0.024638
    93  H    0.092933
    94  H    0.090859
    95  H    0.027089
    96  H    0.015245
    97  H    0.049695
    98  H    0.042140
    99  H   -0.012138
   100  H    0.018130
   101  H    0.019843
   102  H    0.058036
   103  H    0.026502
   104  H   -0.053880
   105  H   -0.062523
   106  H    0.000429
   107  H    0.006003
   108  H    0.001205
   109  H    0.011219
   110  H    0.002102
   111  H   -0.042303
   112  H    0.008640
   113  H   -0.005784
   114  H   -0.020588
   115  H   -0.014957
   116  H   -0.002220
   117  H    0.001521
   118  H   -0.039846
   119  H   -0.084190
   120  H   -0.069823
   121  H    0.001399
   122  H    0.046674
   123  H    0.006777
   124  H    0.007275
   125  H    0.002799
   126  H   -0.024909
   127  H   -0.006496
   128  H    0.005055
   129  H    0.004409
   130  H    0.022267
   131  H    0.029809
   132  H   -0.010061
   133  H   -0.009262
   134  H    0.035771
   135  H    0.010529
   136  H    0.017646
   137  H    0.099107
   138  H    0.212575
 Sum of Mulliken charges =   0.00000

 Dipole moment (field-independent basis, Debye):
    X=              1.7111    Y=              5.1437    Z=             -0.1201  Tot=              5.4222
 Quadrupole moment (field-independent basis, Debye-Ang):
   XX=           -353.3351   YY=           -385.3942   ZZ=           -396.4431
   XY=            -25.8943   XZ=              5.3850   YZ=             -1.8482

 Normal termination of Gaussian 09 at Tue Jul 30 10:30:27 2019.
