 Gaussian 09, Revision D.01,
 Gaussian 09:  ES64L-G09RevD.01 24-Apr-2013

 --------------------------
 # td=(NStates=1) B3LYP/SVP
 --------------------------

 --
 TD
 --
 Symbolic Z-matrix:
 Charge =  0 Multiplicity = 1

                         Standard orientation:
 ---------------------------------------------------------------------
 Center     Atomic      Atomic             Coordinates (Angstroms)
 Number     Number       Type             X           Y           Z
 ---------------------------------------------------------------------
      1          6           0       -5.126743   -1.981171    0.503522
      2          6           0       -4.717686    2.699258    1.433645
      3          6           0       -9.251664    3.390023   -0.338114
      4          6           0       -9.782817   -1.328775   -0.891605
      5          7           0       -5.133263    0.403245    0.815977
      6          6           0       -4.549488   -0.826136    0.801154
      7          6           0       -3.123563   -0.542915    1.260819
      8          6           0       -3.071790    0.892363    1.981476
      9          6           0       -4.454119    1.338205    1.319016
     10          6           0       -3.066014    0.727640    3.492642
     11          6           0       -2.061669   -0.875169    0.188308
     12          6           0       -0.611400   -0.972901    0.628081
     13          6           0        0.390255   -1.198418   -0.577173
     14          8           0        0.052083   -1.745570   -1.608689
     15          8           0        1.553503   -0.829058   -0.226576
     16          7           0       -6.980453    2.739972    0.326924
     17          6           0       -5.851020    3.366139    0.988855
     18          6           0       -6.206349    4.786344    1.175231
     19          6           0       -7.462691    4.935950    0.724830
     20          6           0       -8.058570    3.663069    0.185922
     21          6           0       -5.309910    5.780543    1.730467
     22          6           0       -8.194879    6.264478    0.530709
     23          6           0       -8.902406    6.681001   -0.450173
     24          7           0       -9.072846    0.957022   -0.468280
     25          6           0       -9.702159    2.090956   -0.552021
     26          6           0      -11.128329    2.015553   -1.144075
     27          6           0      -11.347458    0.680615   -1.275553
     28          6           0      -10.020021    0.078673   -0.791613
     29          6           0      -12.186703    3.103668   -1.340354
     30          6           0      -12.539328   -0.065418   -1.745727
     31          6           0      -12.674074   -0.202986   -3.269840
     32          7           0       -7.507450   -1.225308   -0.332450
     33          6           0       -8.592795   -1.934671   -0.671060
     34          6           0       -8.162091   -3.400349   -0.707200
     35          6           0       -6.886216   -3.449805   -0.383714
     36          6           0       -6.484961   -2.111442   -0.032533
     37          6           0       -9.083963   -4.536312   -1.161622
     38          6           0       -5.750101   -4.327394    0.017075
     39          8           0       -5.655656   -5.539866   -0.214182
     40          6           0       -4.520384   -3.446325    0.414205
     41          6           0       -4.130173   -3.937251    1.750784
     42          8           0       -4.172208   -3.246770    2.911788
     43          8           0       -3.423998   -4.996418    1.589619
     44          6           0       -2.805821   -5.605672    2.831949
     45          6           0        2.676092   -1.113903   -1.144977
     46          6           0        3.983297   -0.710223   -0.468059
     47          6           0        4.863840    0.141649   -1.043332
     48          6           0        4.649624    0.974456   -2.228001
     49          6           0        6.243722    0.243920   -0.316725
     50          6           0        7.499928   -0.362215   -0.995640
     51          6           0        8.775900   -0.170900   -0.122138
     52          6           0       10.122153   -0.706133   -0.807866
     53          6           0       10.057591   -2.178646   -1.034767
     54          6           0       11.353473   -0.396502    0.065790
     55          6           0       12.739217   -0.542075   -0.674841
     56          6           0       13.814776   -0.135413    0.237718
     57          6           0       15.248176   -0.249534   -0.383525
     58          6           0       15.725450   -1.610409   -0.870074
     59          6           0       16.331415    0.518116    0.450989
     60          6           0       17.697357    0.793906   -0.188911
     61          6           0       18.602107    1.600028    0.613775
     62          6           0       20.155314    1.674459    0.139266
     63          6           0       20.209456    2.379131   -1.290556
     64          6           0       20.930595    2.519718    1.086242
     65          1           0       -3.913299    3.380194    1.878311
     66          1           0       -9.921672    4.056918   -0.365870
     67          1           0      -10.671779   -2.047716   -1.215773
     68          1           0       -2.712930   -1.320840    2.297048
     69          1           0       -2.252774    1.406949    1.633482
     70          1           0       -2.121912    0.344218    3.849485
     71          1           0       -3.297062    1.825866    3.918777
     72          1           0       -3.871787   -0.046005    3.564189
     73          1           0       -2.304508   -1.816239   -0.568713
     74          1           0       -2.277098    0.163574   -0.561379
     75          1           0       -0.113984   -0.182729    1.043571
     76          1           0       -0.377671   -1.800604    1.209085
     77          1           0       -4.278999    5.689496    1.046969
     78          1           0       -5.684383    6.849646    1.780593
     79          1           0       -4.793602    5.449188    2.529338
     80          1           0       -7.927397    6.891794    1.395379
     81          1           0       -8.952242    5.814477   -1.244379
     82          1           0       -9.438730    7.700525   -0.578807
     83          1           0      -12.506141    3.622919   -0.434942
     84          1           0      -12.029297    4.069118   -1.937429
     85          1           0      -13.066629    2.808429   -1.640882
     86          1           0      -12.716306   -0.935568   -1.038716
     87          1           0      -13.407475    0.542114   -1.483925
     88          1           0      -12.480125    0.785870   -3.749225
     89          1           0      -11.914309   -1.002251   -3.747201
     90          1           0      -13.717658   -0.507808   -3.550315
     91          1           0       -9.835284   -4.748196   -0.433613
     92          1           0       -9.262812   -4.474277   -2.052547
     93          1           0       -8.524494   -5.418192   -1.010435
     94          1           0       -3.590319   -3.418432   -0.349239
     95          1           0       -2.276124   -6.467515    2.598422
     96          1           0       -2.378385   -4.756529    3.196255
     97          1           0       -3.584808   -6.030694    3.557817
     98          1           0        2.589240   -2.081354   -1.720913
     99          1           0        2.355300   -0.615079   -2.020810
    100          1           0        4.283464   -1.386703    0.378829
    101          1           0        4.992444    2.012369   -1.963105
    102          1           0        5.370000    0.698209   -2.939432
    103          1           0        3.837207    1.037571   -2.564528
    104          1           0        6.331746    1.239856   -0.202494
    105          1           0        6.182126   -0.200877    0.709096
    106          1           0        7.182709   -1.368452   -1.417624
    107          1           0        7.687262    0.225903   -2.113346
    108          1           0        8.818854    0.876441    0.354065
    109          1           0        8.636826   -0.738817    0.866135
    110          1           0       10.208286   -0.308339   -1.790661
    111          1           0        9.301150   -2.557622   -1.865616
    112          1           0       11.059300   -2.636890   -1.166479
    113          1           0        9.619658   -2.659288   -0.047714
    114          1           0       11.311386    0.545144    0.302025
    115          1           0       11.161275   -1.118561    0.845085
    116          1           0       13.039136   -1.599621   -0.872476
    117          1           0       12.808838    0.016172   -1.616737
    118          1           0       13.749136    0.861175    0.785343
    119          1           0       13.665907   -0.724770    1.173725
    120          1           0       15.086247    0.340947   -1.383263
    121          1           0       15.119227   -2.264192   -1.598766
    122          1           0       17.010838   -1.620026   -1.072837
    123          1           0       15.622282   -2.452800    0.058707
    124          1           0       15.945160    1.616959    0.739587
    125          1           0       16.165347   -0.200531    1.491491
    126          1           0       18.266127   -0.175495   -0.196814
    127          1           0       17.787781    1.233663   -1.277770
    128          1           0       18.119722    2.693719    0.799775
    129          1           0       18.646804    1.250809    1.770912
    130          1           0       20.599621    0.601521    0.396150
    131          1           0       20.094577    3.405494   -1.287286
    132          1           0       21.348095    2.366510   -1.693222
    133          1           0       19.704297    1.866233   -1.900781
    134          1           0       20.996811    2.073856    2.210693
    135          1           0       22.045171    2.480958    0.730275
    136          1           0       20.671958    3.484599    1.216815
    137          1           0       -7.144099    1.801757    0.339117
    138          1           0       -7.561222   -0.235996    0.094573
 ---------------------------------------------------------------------

 SCF Done:  E(RB3LYP) =  -2732.87580948     A.U. after   17 cycles

 Excitation energies and oscillator strengths:

 Excited State   1:      Singlet-A      2.1419 eV  578.84 nm  f=0.2118  <S**2>=0.000
     235 -> 238        0.26256
     236 -> 237        0.63831
     236 -> 238        0.12690
 This state for optimization and/or second-order correction.
 Total Energy, E(TD-HF/TD-KS) =  -2732.79709508
 Copying the excited state density for this state as the 1-particle RhoCI density.

 The electronic state is 1-A.
 Alpha  occ. eigenvalues --  -19.19210 -19.18495 -19.12556 -19.10856 -19.10798
 Alpha  occ. eigenvalues --  -14.37118 -14.35434 -14.31141 -14.30668 -10.31753
 Alpha  occ. eigenvalues --  -10.30181 -10.28610 -10.25122 -10.24913 -10.24110
 Alpha  occ. eigenvalues --  -10.23509 -10.22992 -10.22962 -10.22505 -10.22113
 Alpha  occ. eigenvalues --  -10.21868 -10.21496 -10.21468 -10.21428 -10.21421
 Alpha  occ. eigenvalues --  -10.21246 -10.21239 -10.21029 -10.20969 -10.20780
 Alpha  occ. eigenvalues --  -10.20584 -10.20581 -10.20428 -10.20353 -10.20352
 Alpha  occ. eigenvalues --  -10.20339 -10.20298 -10.19967 -10.19814 -10.19770
 Alpha  occ. eigenvalues --  -10.19673 -10.19666 -10.19662 -10.19389 -10.19374
 Alpha  occ. eigenvalues --  -10.19218 -10.19112 -10.18959 -10.18918 -10.18785
 Alpha  occ. eigenvalues --  -10.18783 -10.18627 -10.18622 -10.18563 -10.18428
 Alpha  occ. eigenvalues --  -10.18370 -10.18332 -10.18218 -10.18085 -10.17752
 Alpha  occ. eigenvalues --  -10.17713 -10.17446 -10.16995 -10.16713  -1.11153
 Alpha  occ. eigenvalues --   -1.09952  -1.01723  -0.99697  -0.98359  -0.95931
 Alpha  occ. eigenvalues --   -0.95494  -0.94423  -0.93639  -0.84345  -0.83129
 Alpha  occ. eigenvalues --   -0.82327  -0.82137  -0.81033  -0.80989  -0.80396
 Alpha  occ. eigenvalues --   -0.79869  -0.79600  -0.79243  -0.78421  -0.77678
 Alpha  occ. eigenvalues --   -0.77227  -0.76609  -0.76485  -0.75281  -0.74558
 Alpha  occ. eigenvalues --   -0.74381  -0.73977  -0.73210  -0.72722  -0.71317
 Alpha  occ. eigenvalues --   -0.70835  -0.69916  -0.69432  -0.68643  -0.68629
 Alpha  occ. eigenvalues --   -0.67474  -0.66809  -0.65630  -0.65381  -0.65297
 Alpha  occ. eigenvalues --   -0.64115  -0.61957  -0.61664  -0.61245  -0.60946
 Alpha  occ. eigenvalues --   -0.60548  -0.58906  -0.58377  -0.57898  -0.57420
 Alpha  occ. eigenvalues --   -0.57299  -0.56224  -0.55994  -0.55582  -0.55330
 Alpha  occ. eigenvalues --   -0.54872  -0.54470  -0.54001  -0.53757  -0.53513
 Alpha  occ. eigenvalues --   -0.52679  -0.51399  -0.51228  -0.50607  -0.50188
 Alpha  occ. eigenvalues --   -0.49845  -0.49430  -0.49134  -0.49056  -0.48734
 Alpha  occ. eigenvalues --   -0.48607  -0.47593  -0.47395  -0.47144  -0.46983
 Alpha  occ. eigenvalues --   -0.46881  -0.46450  -0.46239  -0.46200  -0.46010
 Alpha  occ. eigenvalues --   -0.45882  -0.45629  -0.45116  -0.45084  -0.44927
 Alpha  occ. eigenvalues --   -0.44585  -0.44440  -0.44087  -0.43753  -0.43450
 Alpha  occ. eigenvalues --   -0.43278  -0.42983  -0.42872  -0.42797  -0.42571
 Alpha  occ. eigenvalues --   -0.42469  -0.42389  -0.42070  -0.41520  -0.41477
 Alpha  occ. eigenvalues --   -0.41341  -0.41281  -0.41052  -0.40888  -0.40516
 Alpha  occ. eigenvalues --   -0.40274  -0.39925  -0.39715  -0.39559  -0.38886
 Alpha  occ. eigenvalues --   -0.38756  -0.38658  -0.38545  -0.38291  -0.38111
 Alpha  occ. eigenvalues --   -0.38035  -0.37981  -0.37694  -0.37592  -0.37256
 Alpha  occ. eigenvalues --   -0.37171  -0.37031  -0.37005  -0.36785  -0.36715
 Alpha  occ. eigenvalues --   -0.36483  -0.36350  -0.36243  -0.35879  -0.35515
 Alpha  occ. eigenvalues --   -0.35447  -0.34978  -0.34872  -0.34737  -0.34658
 Alpha  occ. eigenvalues --   -0.34425  -0.34024  -0.33712  -0.33594  -0.33396
 Alpha  occ. eigenvalues --   -0.33075  -0.32897  -0.32711  -0.32526  -0.32372
 Alpha  occ. eigenvalues --   -0.32078  -0.31878  -0.31329  -0.31116  -0.31077
 Alpha  occ. eigenvalues --   -0.30768  -0.30318  -0.30232  -0.29864  -0.29481
 Alpha  occ. eigenvalues --   -0.29022  -0.28602  -0.28379  -0.27638  -0.27429
 Alpha  occ. eigenvalues --   -0.26886  -0.26772  -0.26046  -0.25836  -0.25228
 Alpha  occ. eigenvalues --   -0.24697  -0.24611  -0.24448  -0.23582  -0.20278
 Alpha  occ. eigenvalues --   -0.17863
 Alpha virt. eigenvalues --   -0.09092  -0.07188  -0.05148  -0.02007  -0.00542
 Alpha virt. eigenvalues --   -0.00279   0.01303   0.02136   0.02972   0.03550
 Alpha virt. eigenvalues --    0.04155   0.04222   0.04419   0.04476   0.05030

 Mulliken charges:
               1
     1  C    0.041232
     2  C   -0.080395
     3  C   -0.003713
     4  C   -0.142432
     5  N   -0.080684
     6  C   -0.025814
     7  C   -0.165440
     8  C   -0.007062
     9  C   -0.049067
    10  C    0.054075
    11  C   -0.050363
    12  C    0.149026
    13  C    0.095716
    14  O   -0.261145
    15  O   -0.253511
    16  N   -0.114652
    17  C    0.123004
    18  C   -0.089502
    19  C   -0.028839
    20  C    0.142636
    21  C    0.137563
    22  C   -0.023053
    23  C   -0.051619
    24  N   -0.162813
    25  C    0.046405
    26  C   -0.116508
    27  C   -0.103407
    28  C    0.039741
    29  C    0.137270
    30  C    0.071869
    31  C   -0.015411
    32  N   -0.046401
    33  C    0.054466
    34  C   -0.241066
    35  C    0.070062
    36  C    0.015905
    37  C    0.299175
    38  C    0.086501
    39  O   -0.189575
    40  C   -0.054157
    41  C    0.234644
    42  O   -0.352151
    43  O   -0.261757
    44  C    0.237881
    45  C    0.228739
    46  C   -0.046860
    47  C   -0.196875
    48  C    0.317414
    49  C    0.105781
    50  C   -0.045896
    51  C    0.009115
    52  C   -0.029742
    53  C   -0.038157
    54  C    0.129614
    55  C    0.045944
    56  C    0.002029
    57  C   -0.034966
    58  C   -0.091233
    59  C   -0.056146
    60  C    0.083392
    61  C   -0.100040
    62  C   -0.102387
    63  C    0.119931
    64  C    0.020070
    65  H   -0.007185
    66  H   -0.136909
    67  H    0.016512
    68  H    0.029751
    69  H   -0.039824
    70  H    0.019052
    71  H    0.017833
    72  H    0.054943
    73  H    0.055983
    74  H    0.011687
    75  H   -0.018182
    76  H   -0.000560
    77  H    0.020342
    78  H    0.043894
    79  H   -0.018509
    80  H   -0.007308
    81  H    0.043863
    82  H    0.048671
    83  H    0.000508
    84  H    0.010179
    85  H   -0.056536
    86  H    0.014035
    87  H   -0.015047
    88  H    0.024714
    89  H    0.030198
    90  H    0.019294
    91  H    0.006207
    92  H   -0.045851
    93  H   -0.015261
    94  H    0.118918
    95  H    0.026921
    96  H    0.028495
    97  H    0.047705
    98  H    0.035150
    99  H   -0.018380
   100  H    0.011705
   101  H    0.004236
   102  H    0.000467
   103  H   -0.107388
   104  H   -0.031189
   105  H    0.000380
   106  H    0.021206
   107  H    0.003042
   108  H    0.007068
   109  H   -0.003957
   110  H   -0.023557
   111  H    0.028621
   112  H    0.017203
   113  H    0.003589
   114  H   -0.055214
   115  H   -0.007964
   116  H   -0.000607
   117  H   -0.003421
   118  H   -0.014299
   119  H   -0.022732
   120  H   -0.005312
   121  H    0.043384
   122  H    0.048621
   123  H   -0.001721
   124  H    0.016452
   125  H    0.030065
   126  H   -0.000950
   127  H    0.028209
   128  H   -0.005640
   129  H    0.002739
   130  H    0.026620
   131  H    0.000220
   132  H    0.003170
   133  H   -0.040353
   134  H    0.008868
   135  H    0.011401
   136  H   -0.018082
   137  H    0.094296
   138  H    0.199159
 Sum of Mulliken charges =   0.00000

 Dipole moment (field-independent basis, Debye):
    X=              3.6912    Y=              3.5374    Z=              0.6516  Tot=              5.1539
 Quadrupole moment (field-independent basis, Debye-Ang):
   XX=           -339.6185   YY=           -372.7222   ZZ=           -398.0169
   XY=            -15.7858   XZ=             -2.3512   YZ=             -6.1780

 Normal termination of Gaussian 09 at Sat Aug  3 17:04:30 2019.
