 Gaussian 09, Revision D.01,
 Gaussian 09:  ES64L-G09RevD.01 24-Apr-2013

 --------------------------
 # td=(NStates=1) B3LYP/SVP
 --------------------------

 --
 TD
 --
 Symbolic Z-matrix:
 Charge =  0 Multiplicity = 1

                         Standard orientation:
 ---------------------------------------------------------------------
 Center     Atomic      Atomic             Coordinates (Angstroms)
 Number     Number       Type             X           Y           Z
 ---------------------------------------------------------------------
      1          6           0       -5.120264   -1.944019    0.417330
      2          6           0       -4.599200    2.757160    1.477381
      3          6           0       -9.255600    3.388922   -0.228375
      4          6           0       -9.860303   -1.348550   -0.885283
      5          7           0       -5.100266    0.447318    0.878785
      6          6           0       -4.408772   -0.792863    0.889756
      7          6           0       -3.006823   -0.705942    1.300486
      8          6           0       -2.935409    0.752568    1.848088
      9          6           0       -4.309137    1.300246    1.392910
     10          6           0       -2.845361    0.777434    3.357043
     11          6           0       -2.065984   -0.893541    0.029475
     12          6           0       -0.704559   -0.916912    0.465480
     13          6           0        0.357386   -1.034044   -0.694422
     14          8           0        0.050265   -1.189428   -1.912607
     15          8           0        1.672828   -0.860519   -0.212415
     16          7           0       -6.953199    2.802551    0.524918
     17          6           0       -5.820931    3.333865    0.996731
     18          6           0       -5.991451    4.804136    0.870466
     19          6           0       -7.302409    4.918779    0.467084
     20          6           0       -7.907948    3.595782    0.264200
     21          6           0       -5.124398    5.853710    1.431605
     22          6           0       -8.009277    6.251556    0.436860
     23          6           0       -8.946741    6.602518   -0.506890
     24          7           0       -9.302497    0.954157   -0.390584
     25          6           0       -9.850415    2.197912   -0.450709
     26          6           0      -11.228218    1.992738   -0.827524
     27          6           0      -11.443464    0.693692   -1.087557
     28          6           0      -10.251907   -0.053158   -0.759531
     29          6           0      -12.189066    3.234300   -1.147535
     30          6           0      -12.703691   -0.049790   -1.521257
     31          6           0      -12.719919   -0.543104   -3.050923
     32          7           0       -7.462972   -1.229863   -0.157294
     33          6           0       -8.636708   -1.926721   -0.520528
     34          6           0       -8.255465   -3.375190   -0.640496
     35          6           0       -6.955697   -3.321612   -0.179308
     36          6           0       -6.434004   -2.045987    0.081690
     37          6           0       -9.058728   -4.513937   -0.985778
     38          6           0       -5.791825   -4.284454   -0.073318
     39          8           0       -5.846469   -5.523614   -0.356223
     40          6           0       -4.558515   -3.418617    0.326273
     41          6           0       -3.998752   -3.997024    1.690235
     42          8           0       -4.206538   -3.506244    2.770812
     43          8           0       -3.290237   -5.051878    1.426401
     44          6           0       -2.711222   -5.644689    2.572960
     45          6           0        2.603119   -0.882048   -1.271596
     46          6           0        3.931067   -0.775400   -0.655906
     47          6           0        4.915014    0.039591   -1.092088
     48          6           0        4.854083    1.056593   -2.313806
     49          6           0        6.119826    0.149606   -0.378374
     50          6           0        7.477657   -0.282750   -0.974372
     51          6           0        8.728093   -0.303270    0.017866
     52          6           0        9.967639   -0.814084   -0.718445
     53          6           0       10.012645   -2.229452   -0.792330
     54          6           0       11.359344   -0.331107   -0.029768
     55          6           0       12.650858   -0.632869   -0.713261
     56          6           0       13.856104   -0.143681    0.121513
     57          6           0       15.237214   -0.275828   -0.472121
     58          6           0       15.703270   -1.646005   -0.590344
     59          6           0       16.213092    0.598779    0.344145
     60          6           0       17.679238    0.833584   -0.193535
     61          6           0       18.572929    1.590658    0.693119
     62          6           0       20.041643    1.710410    0.283357
     63          6           0       20.262739    2.184387   -1.213259
     64          6           0       20.869331    2.464120    1.242333
     65          1           0       -3.726071    3.368083    1.726429
     66          1           0       -9.812320    4.336011   -0.181618
     67          1           0      -10.744771   -2.032630   -1.018794
     68          1           0       -2.781769   -1.446939    2.015897
     69          1           0       -2.206372    1.364052    1.297253
     70          1           0       -1.797178    0.641457    3.556841
     71          1           0       -2.897642    1.939922    3.954655
     72          1           0       -3.637495    0.099831    3.717781
     73          1           0       -2.422633   -1.742889   -0.512677
     74          1           0       -1.963835    0.006736   -0.826709
     75          1           0       -0.394343   -0.069325    0.860717
     76          1           0       -0.300779   -1.657432    1.198407
     77          1           0       -3.978354    5.473871    1.302656
     78          1           0       -5.430202    6.957622    0.629802
     79          1           0       -5.100387    6.134860    2.782138
     80          1           0       -7.656560    6.955705    1.237006
     81          1           0       -9.333366    6.160391   -1.424301
     82          1           0       -9.368439    7.533627   -0.325173
     83          1           0      -12.346878    3.804474   -0.207217
     84          1           0      -11.773130    3.972003   -1.808254
     85          1           0      -13.264517    2.996212   -1.246601
     86          1           0      -12.720208   -0.916544   -0.944546
     87          1           0      -13.545246    0.441862   -1.199520
     88          1           0      -12.779826    0.354623   -3.740272
     89          1           0      -11.668948   -0.763440   -3.241570
     90          1           0      -13.456557   -1.191676   -3.343944
     91          1           0       -9.898725   -4.722246   -0.188122
     92          1           0       -9.448789   -4.415692   -2.005658
     93          1           0       -8.509784   -5.406289   -0.953924
     94          1           0       -3.788154   -3.465951   -0.484185
     95          1           0       -1.948164   -6.314845    2.185642
     96          1           0       -2.263996   -4.958594    3.205892
     97          1           0       -3.416082   -6.305215    3.171041
     98          1           0        2.453356   -1.954732   -1.924779
     99          1           0        2.450856    0.050247   -2.167142
    100          1           0        4.187157   -1.497051    0.367912
    101          1           0        5.176792    2.111120   -1.969727
    102          1           0        5.341594    0.601679   -3.150794
    103          1           0        3.716299    1.293988   -2.671860
    104          1           0        6.300648    1.162695   -0.045030
    105          1           0        5.990017   -0.513355    0.592411
    106          1           0        7.318918   -1.373734   -1.103051
    107          1           0        7.655187    0.174982   -1.858348
    108          1           0        8.875355    0.621979    0.148821
    109          1           0        8.616165   -1.011151    0.827215
    110          1           0        9.850545   -0.407520   -1.703908
    111          1           0        9.209518   -2.594386   -1.545584
    112          1           0       10.999374   -2.795881   -1.051181
    113          1           0        9.655572   -2.902287    0.241067
    114          1           0       11.279093    0.746568    0.099308
    115          1           0       11.700430   -0.678632    1.090923
    116          1           0       12.682184   -1.820430   -0.913443
    117          1           0       12.707929   -0.219003   -1.779953
    118          1           0       13.884044    0.949375    0.177774
    119          1           0       13.686797   -0.598800    0.984540
    120          1           0       14.977750    0.246801   -1.497862
    121          1           0       15.276027   -2.343754   -1.410685
    122          1           0       16.781494   -1.673994   -0.797429
    123          1           0       15.617073   -2.199599    0.532535
    124          1           0       15.879674    1.555027    0.556788
    125          1           0       16.537952    0.085804    1.272618
    126          1           0       18.081711   -0.252734   -0.507186
    127          1           0       17.513839    1.243987   -1.166928
    128          1           0       18.104922    2.617324    0.784824
    129          1           0       18.600669    1.198324    1.622493
    130          1           0       20.491806    0.722398    0.662975
    131          1           0       19.836923    3.285683   -1.267192
    132          1           0       21.311021    2.150015   -1.362341
    133          1           0       19.503434    1.538039   -1.897160
    134          1           0       20.534836    2.235423    2.196378
    135          1           0       21.938500    2.404559    1.281805
    136          1           0       20.597135    3.539629    1.104774
    137          1           0       -6.942426    1.912078    0.128593
    138          1           0       -7.765677   -0.246389   -0.088240
 ---------------------------------------------------------------------

 SCF Done:  E(RB3LYP) =  -2732.97836368     A.U. after   17 cycles

 Excitation energies and oscillator strengths:

 Excited State   1:      Singlet-A      2.0524 eV  604.09 nm  f=0.1820  <S**2>=0.000
     235 -> 237        0.20520
     235 -> 238        0.27533
     236 -> 237        0.59726
     236 -> 238       -0.14863
 This state for optimization and/or second-order correction.
 Total Energy, E(TD-HF/TD-KS) =  -2732.90293924
 Copying the excited state density for this state as the 1-particle RhoCI density.

 The electronic state is 1-A.
 Alpha  occ. eigenvalues --  -19.19708 -19.19320 -19.13984 -19.13173 -19.11928
 Alpha  occ. eigenvalues --  -14.37527 -14.36452 -14.32561 -14.28976 -10.33011
 Alpha  occ. eigenvalues --  -10.32491 -10.27949 -10.27020 -10.25063 -10.24788
 Alpha  occ. eigenvalues --  -10.24399 -10.23799 -10.23558 -10.23354 -10.22925
 Alpha  occ. eigenvalues --  -10.22874 -10.22493 -10.21529 -10.21232 -10.21224
 Alpha  occ. eigenvalues --  -10.20933 -10.20888 -10.20848 -10.20837 -10.20828
 Alpha  occ. eigenvalues --  -10.20633 -10.20611 -10.20524 -10.20496 -10.20259
 Alpha  occ. eigenvalues --  -10.20193 -10.20172 -10.20152 -10.19997 -10.19734
 Alpha  occ. eigenvalues --  -10.19669 -10.19565 -10.19426 -10.19299 -10.19106
 Alpha  occ. eigenvalues --  -10.19067 -10.19019 -10.18984 -10.18927 -10.18925
 Alpha  occ. eigenvalues --  -10.18875 -10.18727 -10.18343 -10.18321 -10.18239
 Alpha  occ. eigenvalues --  -10.18219 -10.17936 -10.17840 -10.17771 -10.17743
 Alpha  occ. eigenvalues --  -10.17474 -10.17285 -10.16767 -10.16621  -1.12706
 Alpha  occ. eigenvalues --   -1.08602  -1.02312  -1.02302  -0.99819  -0.99274
 Alpha  occ. eigenvalues --   -0.97826  -0.95758  -0.92076  -0.84597  -0.83476
 Alpha  occ. eigenvalues --   -0.83223  -0.82770  -0.81842  -0.81772  -0.80960
 Alpha  occ. eigenvalues --   -0.80793  -0.80038  -0.78896  -0.78754  -0.77853
 Alpha  occ. eigenvalues --   -0.77040  -0.76597  -0.75726  -0.75345  -0.74544
 Alpha  occ. eigenvalues --   -0.73896  -0.73632  -0.72730  -0.71931  -0.70694
 Alpha  occ. eigenvalues --   -0.70003  -0.69534  -0.68446  -0.68128  -0.67606
 Alpha  occ. eigenvalues --   -0.67375  -0.67184  -0.66749  -0.66153  -0.65624
 Alpha  occ. eigenvalues --   -0.64013  -0.63242  -0.62940  -0.62520  -0.62269
 Alpha  occ. eigenvalues --   -0.60732  -0.59724  -0.59204  -0.58664  -0.57979
 Alpha  occ. eigenvalues --   -0.57265  -0.57091  -0.55918  -0.55592  -0.55279
 Alpha  occ. eigenvalues --   -0.54807  -0.54627  -0.54479  -0.54193  -0.52865
 Alpha  occ. eigenvalues --   -0.52599  -0.51796  -0.51562  -0.51101  -0.50703
 Alpha  occ. eigenvalues --   -0.50158  -0.49940  -0.49641  -0.49049  -0.48835
 Alpha  occ. eigenvalues --   -0.48813  -0.48519  -0.48253  -0.47754  -0.47610
 Alpha  occ. eigenvalues --   -0.47410  -0.46994  -0.46603  -0.46370  -0.46188
 Alpha  occ. eigenvalues --   -0.45517  -0.45329  -0.45189  -0.45068  -0.44808
 Alpha  occ. eigenvalues --   -0.44496  -0.44288  -0.44127  -0.43904  -0.43798
 Alpha  occ. eigenvalues --   -0.43374  -0.43323  -0.43134  -0.42953  -0.42890
 Alpha  occ. eigenvalues --   -0.42585  -0.42317  -0.42116  -0.41900  -0.41846
 Alpha  occ. eigenvalues --   -0.41563  -0.41447  -0.41092  -0.40863  -0.40534
 Alpha  occ. eigenvalues --   -0.40373  -0.40086  -0.39639  -0.39567  -0.39470
 Alpha  occ. eigenvalues --   -0.39282  -0.39085  -0.38822  -0.38347  -0.38261
 Alpha  occ. eigenvalues --   -0.38117  -0.37933  -0.37775  -0.37670  -0.37382
 Alpha  occ. eigenvalues --   -0.37146  -0.36899  -0.36803  -0.36659  -0.36565
 Alpha  occ. eigenvalues --   -0.36206  -0.36121  -0.36042  -0.36037  -0.35964
 Alpha  occ. eigenvalues --   -0.35940  -0.35618  -0.35573  -0.35301  -0.35155
 Alpha  occ. eigenvalues --   -0.34855  -0.34332  -0.34155  -0.33883  -0.33820
 Alpha  occ. eigenvalues --   -0.33595  -0.33421  -0.33101  -0.33090  -0.32702
 Alpha  occ. eigenvalues --   -0.32572  -0.32395  -0.31981  -0.31756  -0.31512
 Alpha  occ. eigenvalues --   -0.30990  -0.30712  -0.30412  -0.30137  -0.29645
 Alpha  occ. eigenvalues --   -0.29335  -0.28976  -0.28863  -0.28531  -0.28334
 Alpha  occ. eigenvalues --   -0.27846  -0.27417  -0.26919  -0.25664  -0.24893
 Alpha  occ. eigenvalues --   -0.24631  -0.24450  -0.24269  -0.22535  -0.19733
 Alpha  occ. eigenvalues --   -0.18537
 Alpha virt. eigenvalues --   -0.10010  -0.07560  -0.05069  -0.02747  -0.02023
 Alpha virt. eigenvalues --   -0.00367  -0.00219   0.00765   0.01349   0.01930
 Alpha virt. eigenvalues --    0.03389   0.04057   0.04268   0.04438   0.04713

 Mulliken charges:
               1
     1  C   -0.034291
     2  C   -0.047872
     3  C   -0.107082
     4  C   -0.036086
     5  N   -0.130420
     6  C   -0.072938
     7  C    0.034866
     8  C   -0.025207
     9  C   -0.081053
    10  C    0.035153
    11  C    0.026323
    12  C    0.133814
    13  C    0.187456
    14  O   -0.266428
    15  O   -0.312069
    16  N    0.129048
    17  C    0.066386
    18  C   -0.066639
    19  C   -0.017853
    20  C   -0.019775
    21  C   -0.122432
    22  C   -0.074169
    23  C    0.002416
    24  N   -0.317277
    25  C    0.126749
    26  C   -0.140579
    27  C   -0.088479
    28  C    0.037698
    29  C    0.118587
    30  C    0.138721
    31  C    0.031592
    32  N   -0.028537
    33  C    0.021552
    34  C   -0.143994
    35  C   -0.014323
    36  C    0.149125
    37  C    0.115394
    38  C    0.095056
    39  O   -0.229478
    40  C   -0.057337
    41  C    0.188392
    42  O   -0.224859
    43  O   -0.237225
    44  C    0.196899
    45  C    0.126879
    46  C   -0.095630
    47  C   -0.113400
    48  C    0.012627
    49  C    0.071477
    50  C   -0.011948
    51  C    0.188973
    52  C   -0.015288
    53  C   -0.068817
    54  C    0.003263
    55  C   -0.018345
    56  C    0.088163
    57  C   -0.041472
    58  C    0.006655
    59  C    0.032905
    60  C   -0.020816
    61  C    0.106139
    62  C   -0.118633
    63  C    0.008214
    64  C    0.079138
    65  H   -0.017647
    66  H   -0.006752
    67  H    0.002146
    68  H   -0.007412
    69  H    0.000365
    70  H    0.012682
    71  H    0.024301
    72  H    0.055975
    73  H    0.005220
    74  H    0.044604
    75  H   -0.029623
    76  H    0.022254
    77  H    0.051282
    78  H    0.063142
    79  H    0.067344
    80  H    0.035438
    81  H    0.038790
    82  H    0.003399
    83  H   -0.005472
    84  H    0.019488
    85  H    0.005430
    86  H   -0.027054
    87  H   -0.035921
    88  H    0.002261
    89  H    0.007577
    90  H    0.008402
    91  H    0.043682
    92  H    0.027710
    93  H    0.007957
    94  H    0.070521
    95  H    0.023476
    96  H    0.014307
    97  H    0.044526
    98  H    0.055532
    99  H    0.054444
   100  H    0.037226
   101  H    0.039986
   102  H    0.042300
   103  H    0.022075
   104  H   -0.008272
   105  H   -0.006664
   106  H   -0.005458
   107  H   -0.027632
   108  H   -0.077986
   109  H   -0.001439
   110  H   -0.018188
   111  H    0.012332
   112  H    0.030693
   113  H    0.008954
   114  H   -0.020171
   115  H    0.005715
   116  H    0.010299
   117  H   -0.013702
   118  H   -0.011558
   119  H   -0.053017
   120  H   -0.006588
   121  H    0.028186
   122  H   -0.003026
   123  H    0.014526
   124  H   -0.027117
   125  H   -0.011706
   126  H    0.000561
   127  H   -0.018739
   128  H   -0.014720
   129  H   -0.046676
   130  H   -0.010306
   131  H    0.020798
   132  H    0.016805
   133  H    0.041758
   134  H   -0.029446
   135  H    0.006726
   136  H   -0.023196
   137  H    0.128656
   138  H    0.126727
 Sum of Mulliken charges =   0.00000

 Dipole moment (field-independent basis, Debye):
    X=              3.5945    Y=              3.8141    Z=              1.5085  Tot=              5.4538
 Quadrupole moment (field-independent basis, Debye-Ang):
   XX=           -369.0069   YY=           -384.8269   ZZ=           -398.2109
   XY=            -17.8471   XZ=              8.5213   YZ=             -7.4603

 Normal termination of Gaussian 09 at Thu Aug  1 07:24:08 2019.
