 Gaussian 09, Revision D.01,
 Gaussian 09:  ES64L-G09RevD.01 24-Apr-2013

 --------------------------
 # td=(NStates=1) B3LYP/SVP
 --------------------------

 --
 TD
 --
 Symbolic Z-matrix:
 Charge =  0 Multiplicity = 1

                         Standard orientation:
 ---------------------------------------------------------------------
 Center     Atomic      Atomic             Coordinates (Angstroms)
 Number     Number       Type             X           Y           Z
 ---------------------------------------------------------------------
      1          6           0       -5.133957   -2.054395    0.497307
      2          6           0       -4.772158    2.771945    1.558150
      3          6           0       -9.237724    3.329070   -0.229484
      4          6           0       -9.819140   -1.436448   -0.952622
      5          7           0       -5.229104    0.391968    0.839761
      6          6           0       -4.560524   -0.792936    0.842533
      7          6           0       -3.056420   -0.656221    1.299908
      8          6           0       -3.049010    0.766812    1.980830
      9          6           0       -4.399289    1.337497    1.370680
     10          6           0       -3.011709    0.853588    3.539035
     11          6           0       -2.098682   -0.688430    0.113737
     12          6           0       -0.691496   -0.701898    0.602530
     13          6           0        0.354727   -0.891227   -0.535932
     14          8           0        0.072155   -1.100189   -1.679039
     15          8           0        1.643350   -0.804986   -0.151002
     16          7           0       -7.039711    2.704026    0.651442
     17          6           0       -5.966098    3.249382    1.218169
     18          6           0       -6.177318    4.742837    1.220751
     19          6           0       -7.433141    4.948031    0.513045
     20          6           0       -7.995137    3.629697    0.259696
     21          6           0       -5.197622    5.756402    1.793307
     22          6           0       -8.088224    6.333678    0.275402
     23          6           0       -9.011942    6.550038   -0.548914
     24          7           0       -9.227221    0.906403   -0.446134
     25          6           0       -9.841583    2.136785   -0.558988
     26          6           0      -11.198523    1.967342   -1.199583
     27          6           0      -11.314106    0.635926   -1.361050
     28          6           0      -10.109696    0.010376   -1.010664
     29          6           0      -12.317102    3.082404   -1.226152
     30          6           0      -12.653615   -0.046332   -1.882001
     31          6           0      -12.724506   -0.371242   -3.327024
     32          7           0       -7.501715   -1.245762   -0.279849
     33          6           0       -8.591252   -1.997540   -0.633798
     34          6           0       -8.182680   -3.399107   -0.721927
     35          6           0       -6.871112   -3.405205   -0.294741
     36          6           0       -6.442325   -2.058409    0.024283
     37          6           0       -9.037831   -4.533069   -1.169539
     38          6           0       -5.849092   -4.315090   -0.034812
     39          8           0       -5.758720   -5.506230   -0.210431
     40          6           0       -4.594104   -3.467307    0.520595
     41          6           0       -4.002585   -3.863883    1.826289
     42          8           0       -4.237625   -3.295697    2.893298
     43          8           0       -3.279122   -5.022452    1.622713
     44          6           0       -2.655341   -5.525052    2.844702
     45          6           0        2.639628   -1.063515   -1.168638
     46          6           0        3.980408   -0.723063   -0.553181
     47          6           0        5.009645   -0.017239   -1.068959
     48          6           0        4.907692    0.815626   -2.339452
     49          6           0        6.232210    0.134572   -0.360591
     50          6           0        7.580941   -0.590259   -0.938206
     51          6           0        8.763449   -0.211489   -0.111407
     52          6           0       10.098760   -0.694883   -0.822910
     53          6           0       10.160770   -2.316170   -1.009909
     54          6           0       11.417720   -0.206561   -0.086720
     55          6           0       12.699474   -0.412131   -0.867372
     56          6           0       13.798785    0.012563    0.116008
     57          6           0       15.302531   -0.120600   -0.397553
     58          6           0       15.790388   -1.604881   -0.610587
     59          6           0       16.242870    0.578013    0.456583
     60          6           0       17.644902    0.648199   -0.084127
     61          6           0       18.527917    1.631438    0.584149
     62          6           0       20.003382    1.608050    0.150589
     63          6           0       20.325845    2.217820   -1.249859
     64          6           0       20.995512    2.361112    1.124957
     65          1           0       -4.103404    3.377821    1.911295
     66          1           0       -9.721416    4.356665   -0.381719
     67          1           0      -10.740797   -2.017490   -1.489016
     68          1           0       -2.785497   -1.391136    1.973776
     69          1           0       -1.952221    1.258972    1.548210
     70          1           0       -1.991919    0.324273    3.690423
     71          1           0       -3.206580    1.692911    4.168250
     72          1           0       -3.895280    0.174223    4.047013
     73          1           0       -2.290588   -1.545101   -0.533370
     74          1           0       -2.356889    0.230673   -0.568051
     75          1           0       -0.380360    0.149637    1.225540
     76          1           0       -0.589388   -1.639102    1.324465
     77          1           0       -4.435939    5.979822    1.106335
     78          1           0       -5.591851    6.749061    1.793737
     79          1           0       -4.581741    5.292003    2.672824
     80          1           0       -7.573798    7.040183    0.846541
     81          1           0       -9.682746    5.916993   -1.139212
     82          1           0       -9.143416    7.714480   -0.718784
     83          1           0      -12.671413    3.224540   -0.093588
     84          1           0      -11.921704    4.022185   -1.771085
     85          1           0      -13.113853    2.629089   -1.976268
     86          1           0      -12.572424   -1.159968   -1.439005
     87          1           0      -13.506569    0.326485   -1.219126
     88          1           0      -12.379373    0.487161   -3.886733
     89          1           0      -11.877299   -1.136649   -3.545347
     90          1           0      -13.824171   -0.663847   -3.649493
     91          1           0      -10.073794   -4.720643   -0.609173
     92          1           0       -9.224957   -4.463965   -2.224635
     93          1           0       -8.381037   -5.462868   -1.002459
     94          1           0       -3.750290   -3.466602   -0.316885
     95          1           0       -2.044583   -6.531110    2.751318
     96          1           0       -2.010488   -4.821255    3.406353
     97          1           0       -3.362603   -5.643384    3.618732
     98          1           0        2.465435   -2.150994   -1.361641
     99          1           0        2.387236   -0.416339   -1.975097
    100          1           0        4.198962   -1.131688    0.467543
    101          1           0        5.246365    1.814734   -2.348397
    102          1           0        5.644716    0.320135   -3.122424
    103          1           0        3.957306    0.627716   -2.770039
    104          1           0        6.573686    1.231355   -0.277117
    105          1           0        6.086377   -0.166489    0.745818
    106          1           0        7.274184   -1.592163   -0.896966
    107          1           0        7.564923   -0.273984   -2.055453
    108          1           0        8.951990    0.805308   -0.043290
    109          1           0        8.839925   -0.646946    0.706478
    110          1           0       10.390482   -0.474213   -2.031339
    111          1           0        9.375442   -2.582822   -1.522910
    112          1           0       11.177245   -2.860126   -1.360310
    113          1           0       10.103404   -2.793180    0.095729
    114          1           0       11.227133    0.858956    0.035259
    115          1           0       11.300864   -0.632857    0.866950
    116          1           0       12.622606   -1.530437   -0.783233
    117          1           0       12.674665   -0.314196   -1.904312
    118          1           0       13.612804    1.186055    0.359096
    119          1           0       13.524561   -0.474520    1.074504
    120          1           0       15.413011    0.397168   -1.414747
    121          1           0       14.957711   -2.257499   -0.993411
    122          1           0       16.624187   -1.565396   -1.387198
    123          1           0       16.032139   -2.151568    0.292401
    124          1           0       15.730645    1.702233    0.386917
    125          1           0       15.972034    0.098358    1.458087
    126          1           0       18.077457   -0.445922    0.304253
    127          1           0       17.714384    0.716333   -1.176246
    128          1           0       17.924538    2.654181    0.557030
    129          1           0       18.377895    1.455455    1.703385
    130          1           0       20.323618    0.523480    0.009193
    131          1           0       19.965175    3.286093   -1.427173
    132          1           0       21.345579    2.171462   -1.520195
    133          1           0       19.733016    1.821368   -2.032222
    134          1           0       20.960735    2.184488    2.254453
    135          1           0       22.115217    2.300737    0.858971
    136          1           0       20.881546    3.488009    0.964882
    137          1           0       -7.096209    1.662203    0.471727
    138          1           0       -7.405727   -0.256274   -0.149874
 ---------------------------------------------------------------------

 SCF Done:  E(RB3LYP) =  -2733.08250835     A.U. after   17 cycles

 Excitation energies and oscillator strengths:

 Excited State   1:      Singlet-A      2.0620 eV  601.27 nm  f=0.1336  <S**2>=0.000
     235 -> 237       -0.14726
     235 -> 238        0.31218
     236 -> 237        0.59270
     236 -> 238        0.16354
 This state for optimization and/or second-order correction.
 Total Energy, E(TD-HF/TD-KS) =  -2733.00673026
 Copying the excited state density for this state as the 1-particle RhoCI density.

 The electronic state is 1-A.
 Alpha  occ. eigenvalues --  -19.18886 -19.16938 -19.13447 -19.12111 -19.12105
 Alpha  occ. eigenvalues --  -14.37493 -14.36802 -14.33647 -14.29447 -10.32465
 Alpha  occ. eigenvalues --  -10.31323 -10.27583 -10.25017 -10.24982 -10.24380
 Alpha  occ. eigenvalues --  -10.23803 -10.23739 -10.23512 -10.23275 -10.23234
 Alpha  occ. eigenvalues --  -10.22763 -10.22035 -10.21809 -10.21665 -10.21554
 Alpha  occ. eigenvalues --  -10.21477 -10.21416 -10.21055 -10.21026 -10.20930
 Alpha  occ. eigenvalues --  -10.20848 -10.20607 -10.20594 -10.20532 -10.20466
 Alpha  occ. eigenvalues --  -10.20354 -10.20213 -10.20160 -10.20062 -10.20019
 Alpha  occ. eigenvalues --  -10.19829 -10.19697 -10.19672 -10.19617 -10.19479
 Alpha  occ. eigenvalues --  -10.19445 -10.19407 -10.19239 -10.19196 -10.19170
 Alpha  occ. eigenvalues --  -10.19062 -10.19001 -10.18992 -10.18805 -10.18690
 Alpha  occ. eigenvalues --  -10.18630 -10.18524 -10.18486 -10.18049 -10.17874
 Alpha  occ. eigenvalues --  -10.17840 -10.17749 -10.17658 -10.17432  -1.09634
 Alpha  occ. eigenvalues --   -1.08342  -1.03030  -1.00578  -1.00553  -0.98763
 Alpha  occ. eigenvalues --   -0.97949  -0.93992  -0.92429  -0.85319  -0.83067
 Alpha  occ. eigenvalues --   -0.82354  -0.81906  -0.81583  -0.81069  -0.81066
 Alpha  occ. eigenvalues --   -0.80509  -0.79258  -0.78512  -0.77870  -0.77662
 Alpha  occ. eigenvalues --   -0.76825  -0.76530  -0.75753  -0.74569  -0.73953
 Alpha  occ. eigenvalues --   -0.73462  -0.73132  -0.72779  -0.71498  -0.71161
 Alpha  occ. eigenvalues --   -0.70081  -0.69030  -0.68853  -0.68516  -0.66984
 Alpha  occ. eigenvalues --   -0.66902  -0.66680  -0.66395  -0.65631  -0.65567
 Alpha  occ. eigenvalues --   -0.63970  -0.62626  -0.62449  -0.61441  -0.61001
 Alpha  occ. eigenvalues --   -0.59983  -0.59779  -0.58848  -0.58243  -0.58121
 Alpha  occ. eigenvalues --   -0.57126  -0.56667  -0.56136  -0.55520  -0.55378
 Alpha  occ. eigenvalues --   -0.55179  -0.55001  -0.54248  -0.53641  -0.53196
 Alpha  occ. eigenvalues --   -0.52365  -0.51931  -0.50997  -0.50637  -0.50478
 Alpha  occ. eigenvalues --   -0.50140  -0.49284  -0.49182  -0.48830  -0.48578
 Alpha  occ. eigenvalues --   -0.47923  -0.47634  -0.47370  -0.47200  -0.46814
 Alpha  occ. eigenvalues --   -0.46646  -0.46457  -0.45984  -0.45943  -0.45701
 Alpha  occ. eigenvalues --   -0.45548  -0.45403  -0.45209  -0.44877  -0.44773
 Alpha  occ. eigenvalues --   -0.44299  -0.43931  -0.43874  -0.43749  -0.43701
 Alpha  occ. eigenvalues --   -0.43498  -0.43300  -0.42871  -0.42708  -0.42590
 Alpha  occ. eigenvalues --   -0.42423  -0.42190  -0.42112  -0.41536  -0.41317
 Alpha  occ. eigenvalues --   -0.40902  -0.40867  -0.40678  -0.40520  -0.40239
 Alpha  occ. eigenvalues --   -0.40099  -0.39915  -0.39717  -0.39542  -0.39426
 Alpha  occ. eigenvalues --   -0.39210  -0.39079  -0.38940  -0.38666  -0.38541
 Alpha  occ. eigenvalues --   -0.38440  -0.38322  -0.38138  -0.38042  -0.37648
 Alpha  occ. eigenvalues --   -0.37530  -0.37341  -0.37205  -0.37013  -0.36763
 Alpha  occ. eigenvalues --   -0.36735  -0.36570  -0.36174  -0.36088  -0.35873
 Alpha  occ. eigenvalues --   -0.35814  -0.35491  -0.35455  -0.35350  -0.35258
 Alpha  occ. eigenvalues --   -0.34454  -0.34372  -0.34018  -0.33871  -0.33674
 Alpha  occ. eigenvalues --   -0.32975  -0.32658  -0.32635  -0.32586  -0.32326
 Alpha  occ. eigenvalues --   -0.32045  -0.31807  -0.31321  -0.31268  -0.31069
 Alpha  occ. eigenvalues --   -0.30726  -0.30428  -0.30423  -0.30307  -0.29952
 Alpha  occ. eigenvalues --   -0.29074  -0.28999  -0.28930  -0.28392  -0.28353
 Alpha  occ. eigenvalues --   -0.28188  -0.27543  -0.26842  -0.26373  -0.26121
 Alpha  occ. eigenvalues --   -0.25038  -0.24456  -0.23957  -0.22888  -0.19966
 Alpha  occ. eigenvalues --   -0.18444
 Alpha virt. eigenvalues --   -0.09708  -0.08080  -0.04700  -0.01879  -0.01089
 Alpha virt. eigenvalues --   -0.00821   0.00435   0.00693   0.02370   0.03237
 Alpha virt. eigenvalues --    0.03677   0.03960   0.04537   0.04602   0.04764

 Mulliken charges:
               1
     1  C   -0.071317
     2  C   -0.022885
     3  C   -0.054380
     4  C   -0.116981
     5  N   -0.183317
     6  C   -0.037157
     7  C    0.018505
     8  C   -0.127983
     9  C    0.017089
    10  C    0.019786
    11  C    0.055006
    12  C    0.000981
    13  C    0.169757
    14  O   -0.227340
    15  O   -0.331551
    16  N   -0.057524
    17  C    0.175613
    18  C   -0.192483
    19  C   -0.032611
    20  C    0.035403
    21  C    0.147860
    22  C    0.066909
    23  C   -0.040442
    24  N   -0.263138
    25  C    0.067894
    26  C   -0.143214
    27  C   -0.084567
    28  C    0.010948
    29  C    0.009066
    30  C   -0.013778
    31  C    0.033681
    32  N   -0.007499
    33  C    0.128570
    34  C   -0.127779
    35  C    0.031201
    36  C    0.094631
    37  C    0.052271
    38  C    0.026058
    39  O   -0.153510
    40  C   -0.032921
    41  C    0.230094
    42  O   -0.235396
    43  O   -0.308966
    44  C    0.191044
    45  C    0.322727
    46  C   -0.112583
    47  C   -0.118683
    48  C    0.115035
    49  C   -0.007848
    50  C    0.012768
    51  C    0.258317
    52  C   -0.207752
    53  C   -0.010620
    54  C    0.035899
    55  C    0.083456
    56  C   -0.001523
    57  C   -0.065458
    58  C    0.012205
    59  C   -0.009056
    60  C   -0.001716
    61  C    0.036129
    62  C   -0.048418
    63  C    0.036580
    64  C   -0.015718
    65  H   -0.119992
    66  H   -0.025003
    67  H    0.030305
    68  H   -0.034554
    69  H    0.031559
    70  H    0.029729
    71  H    0.022700
    72  H    0.036550
    73  H    0.010726
    74  H    0.024873
    75  H    0.031315
    76  H    0.041710
    77  H    0.000943
    78  H   -0.003700
    79  H    0.049207
    80  H   -0.034028
    81  H    0.041690
    82  H    0.029778
    83  H    0.069745
    84  H    0.035708
    85  H    0.039067
    86  H   -0.005190
    87  H    0.028731
    88  H    0.001428
    89  H    0.018888
    90  H    0.040406
    91  H    0.052467
    92  H    0.027896
    93  H    0.047836
    94  H    0.081971
    95  H    0.058619
    96  H    0.013704
    97  H    0.008869
    98  H    0.028179
    99  H    0.010269
   100  H   -0.005955
   101  H    0.018061
   102  H    0.014367
   103  H   -0.015110
   104  H    0.001884
   105  H   -0.001134
   106  H   -0.003340
   107  H    0.015662
   108  H   -0.017635
   109  H   -0.075714
   110  H    0.006420
   111  H   -0.017865
   112  H    0.039169
   113  H   -0.005238
   114  H   -0.022305
   115  H   -0.018219
   116  H   -0.009903
   117  H   -0.015699
   118  H    0.002305
   119  H   -0.002089
   120  H   -0.011862
   121  H   -0.000261
   122  H    0.028695
   123  H   -0.000090
   124  H   -0.001041
   125  H    0.009940
   126  H    0.014594
   127  H    0.005646
   128  H   -0.004264
   129  H   -0.005517
   130  H    0.007751
   131  H   -0.000998
   132  H    0.006237
   133  H   -0.020861
   134  H    0.019636
   135  H    0.008559
   136  H    0.007756
   137  H    0.166782
   138  H    0.129869
 Sum of Mulliken charges =   0.00000

 Dipole moment (field-independent basis, Debye):
    X=              2.8931    Y=              3.7754    Z=              0.8792  Tot=              4.8371
 Quadrupole moment (field-independent basis, Debye-Ang):
   XX=           -376.4834   YY=           -383.4517   ZZ=           -393.8379
   XY=            -26.3267   XZ=              4.9420   YZ=             -4.4609

 Normal termination of Gaussian 09 at Sun Aug  4 06:23:53 2019.
