 Gaussian 09, Revision D.01,
 Gaussian 09:  ES64L-G09RevD.01 24-Apr-2013

 --------------------------
 # td=(NStates=1) B3LYP/SVP
 --------------------------

 --
 TD
 --
 Symbolic Z-matrix:
 Charge =  0 Multiplicity = 1

                         Standard orientation:
 ---------------------------------------------------------------------
 Center     Atomic      Atomic             Coordinates (Angstroms)
 Number     Number       Type             X           Y           Z
 ---------------------------------------------------------------------
      1          6           0       -5.210360   -1.926728    0.439811
      2          6           0       -4.700117    2.711458    1.429920
      3          6           0       -9.164606    3.353197   -0.255760
      4          6           0       -9.865281   -1.414535   -0.788963
      5          7           0       -5.200721    0.339689    0.847583
      6          6           0       -4.508149   -0.798322    0.810034
      7          6           0       -3.022440   -0.605869    1.352144
      8          6           0       -3.051521    0.790745    1.964931
      9          6           0       -4.346746    1.373403    1.386016
     10          6           0       -3.109526    0.824482    3.451217
     11          6           0       -2.042444   -0.773387    0.096506
     12          6           0       -0.580076   -0.757175    0.496863
     13          6           0        0.360524   -0.989528   -0.636740
     14          8           0       -0.010399   -1.271508   -1.797685
     15          8           0        1.592974   -0.829247   -0.315649
     16          7           0       -6.946529    2.728581    0.548046
     17          6           0       -5.802594    3.275091    0.993135
     18          6           0       -6.100158    4.688812    1.115078
     19          6           0       -7.328482    4.879368    0.545909
     20          6           0       -7.963853    3.589460    0.169564
     21          6           0       -5.277947    5.715475    1.708541
     22          6           0       -8.008758    6.238327    0.369017
     23          6           0       -8.839982    6.540700   -0.646732
     24          7           0       -9.136567    0.863660   -0.354347
     25          6           0       -9.740484    2.068545   -0.426713
     26          6           0      -11.212924    2.039734   -0.919123
     27          6           0      -11.438395    0.679412   -1.078986
     28          6           0      -10.094798   -0.052458   -0.728274
     29          6           0      -12.137915    3.170979   -1.129554
     30          6           0      -12.696768   -0.028150   -1.627659
     31          6           0      -12.685097   -0.225362   -3.200944
     32          7           0       -7.596610   -1.261890   -0.185757
     33          6           0       -8.646044   -2.049906   -0.533315
     34          6           0       -8.323407   -3.462658   -0.628982
     35          6           0       -6.968195   -3.417083   -0.167283
     36          6           0       -6.499932   -2.053272    0.001718
     37          6           0       -9.051268   -4.575338   -1.217780
     38          6           0       -5.817231   -4.302538    0.076704
     39          8           0       -5.789481   -5.469750   -0.105213
     40          6           0       -4.614704   -3.414741    0.455779
     41          6           0       -4.061672   -3.941122    1.715777
     42          8           0       -4.296067   -3.636994    2.839767
     43          8           0       -3.034138   -4.836949    1.372777
     44          6           0       -2.367595   -5.455714    2.533690
     45          6           0        2.661404   -0.945492   -1.268321
     46          6           0        4.002730   -0.547627   -0.694990
     47          6           0        5.015468    0.216990   -1.151141
     48          6           0        4.975364    0.895439   -2.446612
     49          6           0        6.250557    0.244932   -0.341137
     50          6           0        7.458411   -0.422405   -1.113562
     51          6           0        8.726304   -0.177145   -0.289364
     52          6           0       10.122645   -0.782542   -0.942451
     53          6           0       10.062925   -2.308077   -0.961368
     54          6           0       11.247234   -0.245306   -0.103677
     55          6           0       12.693841   -0.499194   -0.638812
     56          6           0       13.852067   -0.148444    0.227501
     57          6           0       15.221522   -0.339413   -0.343866
     58          6           0       15.669942   -1.916696   -0.234992
     59          6           0       16.222040    0.514025    0.458059
     60          6           0       17.734308    0.682643   -0.176981
     61          6           0       18.500928    1.522058    0.686898
     62          6           0       19.973731    1.769195    0.206648
     63          6           0       19.949882    2.571060   -1.207203
     64          6           0       20.901158    2.473311    1.199740
     65          1           0       -3.866004    3.479361    1.632700
     66          1           0       -9.835548    4.268530   -0.330595
     67          1           0      -10.655541   -1.847400   -1.134654
     68          1           0       -2.684048   -1.377947    2.144621
     69          1           0       -2.319401    1.483793    1.472495
     70          1           0       -2.174909    0.457342    3.994183
     71          1           0       -3.265812    2.025688    3.765289
     72          1           0       -3.857548    0.059606    4.076503
     73          1           0       -2.456869   -1.629327   -0.540509
     74          1           0       -2.375123    0.202297   -0.612296
     75          1           0       -0.265641    0.166465    0.890825
     76          1           0       -0.388868   -1.536286    1.339392
     77          1           0       -4.420033    5.839635    0.949181
     78          1           0       -5.701990    6.741143    1.770643
     79          1           0       -4.807533    5.420780    2.624127
     80          1           0       -7.704514    6.963672    1.197223
     81          1           0       -9.191685    5.610777   -1.391318
     82          1           0       -9.214541    7.611710   -0.715337
     83          1           0      -12.226027    3.850631   -0.275596
     84          1           0      -11.889929    3.675261   -1.991591
     85          1           0      -13.026513    2.713564   -1.460527
     86          1           0      -12.799084   -1.035851   -1.125336
     87          1           0      -13.706199    0.567101   -1.340361
     88          1           0      -12.451484    0.841882   -3.486860
     89          1           0      -11.913655   -1.027244   -3.255601
     90          1           0      -13.600211   -0.611179   -3.315780
     91          1           0       -9.818957   -4.814623   -0.678893
     92          1           0       -9.438242   -4.336927   -2.430000
     93          1           0       -8.506258   -5.587254   -1.402878
     94          1           0       -3.816524   -3.557804   -0.269475
     95          1           0       -1.313241   -5.929520    2.211383
     96          1           0       -2.057851   -4.898548    3.323201
     97          1           0       -3.016511   -6.263767    2.771607
     98          1           0        2.647166   -2.056865   -1.565607
     99          1           0        2.388410   -0.429782   -1.994075
    100          1           0        4.381864   -0.808276    0.320161
    101          1           0        5.259946    1.968366   -2.328994
    102          1           0        5.635213    0.207896   -3.006375
    103          1           0        3.901519    1.018381   -3.048244
    104          1           0        6.656177    1.334413   -0.262241
    105          1           0        6.179282   -0.179983    0.695591
    106          1           0        7.256014   -1.392447   -1.266926
    107          1           0        7.704957   -0.122818   -2.090249
    108          1           0        8.925903    0.975724   -0.206868
    109          1           0        8.801191   -0.513069    0.889533
    110          1           0       10.179689   -0.481686   -1.939866
    111          1           0        9.188587   -2.654108   -1.554933
    112          1           0       10.795407   -2.935104   -1.564670
    113          1           0       10.166549   -2.725499    0.076517
    114          1           0       11.004019    0.738351   -0.172414
    115          1           0       11.149901   -0.602573    0.834894
    116          1           0       12.659259   -1.622933   -0.851556
    117          1           0       12.726687    0.062075   -1.629265
    118          1           0       13.632145    0.904612    0.615404
    119          1           0       13.918883   -0.784875    1.070857
    120          1           0       15.344446    0.027455   -1.400950
    121          1           0       14.825945   -2.695244   -0.734251
    122          1           0       16.717814   -2.153632   -0.771661
    123          1           0       15.720562   -2.323170    0.845566
    124          1           0       15.871986    1.372580    0.576628
    125          1           0       16.397938   -0.142117    1.464469
    126          1           0       18.055668   -0.413604   -0.279629
    127          1           0       17.473973    0.935939   -1.319018
    128          1           0       18.174836    2.542094    0.833097
    129          1           0       18.610996    1.290392    1.797010
    130          1           0       20.390647    0.777597    0.103814
    131          1           0       19.496013    3.514527   -1.026172
    132          1           0       20.939524    2.565164   -1.729204
    133          1           0       19.338391    2.058529   -1.955995
    134          1           0       20.847890    1.835923    2.006323
    135          1           0       22.048911    2.510066    0.678459
    136          1           0       20.572623    3.432347    1.579238
    137          1           0       -6.999463    1.756422    0.382603
    138          1           0       -7.702384   -0.167017   -0.356906
 ---------------------------------------------------------------------

 SCF Done:  E(RB3LYP) =  -2733.04771319     A.U. after   17 cycles

 Excitation energies and oscillator strengths:

 Excited State   1:      Singlet-A      2.1256 eV  583.29 nm  f=0.2003  <S**2>=0.000
     235 -> 238       -0.28683
     236 -> 237        0.63411
 This state for optimization and/or second-order correction.
 Total Energy, E(TD-HF/TD-KS) =  -2732.96959875
 Copying the excited state density for this state as the 1-particle RhoCI density.

 The electronic state is 1-A.
 Alpha  occ. eigenvalues --  -19.18006 -19.16383 -19.12401 -19.11340 -19.10510
 Alpha  occ. eigenvalues --  -14.36234 -14.35961 -14.32402 -14.31186 -10.30872
 Alpha  occ. eigenvalues --  -10.30871 -10.26613 -10.24925 -10.23631 -10.23146
 Alpha  occ. eigenvalues --  -10.23067 -10.22911 -10.22869 -10.22636 -10.22591
 Alpha  occ. eigenvalues --  -10.22291 -10.21784 -10.21520 -10.21322 -10.21260
 Alpha  occ. eigenvalues --  -10.21229 -10.21159 -10.21114 -10.21007 -10.20878
 Alpha  occ. eigenvalues --  -10.20787 -10.20732 -10.20702 -10.20690 -10.20624
 Alpha  occ. eigenvalues --  -10.20460 -10.20235 -10.20185 -10.20157 -10.20123
 Alpha  occ. eigenvalues --  -10.20027 -10.19786 -10.19753 -10.19611 -10.19608
 Alpha  occ. eigenvalues --  -10.19381 -10.19221 -10.19123 -10.18898 -10.18775
 Alpha  occ. eigenvalues --  -10.18720 -10.18524 -10.18475 -10.18438 -10.18400
 Alpha  occ. eigenvalues --  -10.18377 -10.18346 -10.18232 -10.18213 -10.18195
 Alpha  occ. eigenvalues --  -10.17850 -10.17665 -10.17310 -10.16201  -1.10941
 Alpha  occ. eigenvalues --   -1.07765  -1.03824  -0.99634  -0.98788  -0.98008
 Alpha  occ. eigenvalues --   -0.97647  -0.93114  -0.92723  -0.84291  -0.83841
 Alpha  occ. eigenvalues --   -0.82395  -0.82172  -0.81734  -0.81088  -0.80798
 Alpha  occ. eigenvalues --   -0.79834  -0.79614  -0.79529  -0.79303  -0.78502
 Alpha  occ. eigenvalues --   -0.77184  -0.76331  -0.75745  -0.75241  -0.74979
 Alpha  occ. eigenvalues --   -0.74158  -0.73724  -0.72184  -0.71578  -0.71022
 Alpha  occ. eigenvalues --   -0.70081  -0.69395  -0.68874  -0.68373  -0.67916
 Alpha  occ. eigenvalues --   -0.67707  -0.67212  -0.65767  -0.65708  -0.65238
 Alpha  occ. eigenvalues --   -0.64480  -0.62408  -0.62053  -0.61547  -0.60750
 Alpha  occ. eigenvalues --   -0.60529  -0.59722  -0.58502  -0.58397  -0.57614
 Alpha  occ. eigenvalues --   -0.57312  -0.56405  -0.56301  -0.55738  -0.55625
 Alpha  occ. eigenvalues --   -0.55069  -0.54713  -0.54436  -0.53299  -0.52973
 Alpha  occ. eigenvalues --   -0.52477  -0.51359  -0.51064  -0.50798  -0.50715
 Alpha  occ. eigenvalues --   -0.50102  -0.49102  -0.48879  -0.48517  -0.48263
 Alpha  occ. eigenvalues --   -0.48102  -0.47582  -0.47305  -0.46945  -0.46514
 Alpha  occ. eigenvalues --   -0.46393  -0.46271  -0.46089  -0.45910  -0.45801
 Alpha  occ. eigenvalues --   -0.45712  -0.45480  -0.45092  -0.45017  -0.44659
 Alpha  occ. eigenvalues --   -0.44284  -0.44197  -0.44184  -0.44012  -0.43831
 Alpha  occ. eigenvalues --   -0.43640  -0.43574  -0.43548  -0.43362  -0.42948
 Alpha  occ. eigenvalues --   -0.42920  -0.42708  -0.42214  -0.41699  -0.41588
 Alpha  occ. eigenvalues --   -0.41484  -0.41441  -0.40820  -0.40816  -0.40599
 Alpha  occ. eigenvalues --   -0.40452  -0.40197  -0.39998  -0.39727  -0.39595
 Alpha  occ. eigenvalues --   -0.39247  -0.39213  -0.39079  -0.38950  -0.38727
 Alpha  occ. eigenvalues --   -0.38438  -0.38250  -0.38009  -0.37886  -0.37764
 Alpha  occ. eigenvalues --   -0.37653  -0.37153  -0.36699  -0.36569  -0.36425
 Alpha  occ. eigenvalues --   -0.36336  -0.36011  -0.35880  -0.35377  -0.35306
 Alpha  occ. eigenvalues --   -0.34937  -0.34807  -0.34737  -0.34671  -0.34316
 Alpha  occ. eigenvalues --   -0.34104  -0.33975  -0.33834  -0.33764  -0.33718
 Alpha  occ. eigenvalues --   -0.33502  -0.33373  -0.32859  -0.32855  -0.32698
 Alpha  occ. eigenvalues --   -0.32687  -0.32399  -0.32107  -0.32037  -0.31978
 Alpha  occ. eigenvalues --   -0.31253  -0.30527  -0.30181  -0.30156  -0.29870
 Alpha  occ. eigenvalues --   -0.29749  -0.29437  -0.28296  -0.28125  -0.27707
 Alpha  occ. eigenvalues --   -0.27465  -0.27229  -0.26671  -0.26329  -0.25255
 Alpha  occ. eigenvalues --   -0.24700  -0.24165  -0.23882  -0.23268  -0.20349
 Alpha  occ. eigenvalues --   -0.18215
 Alpha virt. eigenvalues --   -0.09455  -0.07451  -0.03529  -0.01213  -0.00150
 Alpha virt. eigenvalues --    0.00405   0.00761   0.01083   0.02304   0.03595
 Alpha virt. eigenvalues --    0.03758   0.03860   0.04298   0.04682   0.04707

 Mulliken charges:
               1
     1  C    0.048913
     2  C   -0.116313
     3  C   -0.169801
     4  C    0.016943
     5  N   -0.214026
     6  C   -0.090760
     7  C   -0.060041
     8  C    0.062493
     9  C   -0.028581
    10  C   -0.025312
    11  C   -0.037225
    12  C    0.104063
    13  C    0.147708
    14  O   -0.291931
    15  O   -0.274205
    16  N   -0.031778
    17  C    0.130228
    18  C   -0.136521
    19  C   -0.021955
    20  C    0.165735
    21  C    0.103642
    22  C   -0.044943
    23  C   -0.082328
    24  N   -0.247830
    25  C    0.072235
    26  C   -0.217133
    27  C   -0.047801
    28  C    0.022751
    29  C    0.229195
    30  C   -0.094178
    31  C    0.089608
    32  N   -0.072474
    33  C    0.098081
    34  C   -0.090129
    35  C   -0.041953
    36  C    0.108665
    37  C    0.079993
    38  C    0.025839
    39  O   -0.134733
    40  C   -0.019848
    41  C    0.199066
    42  O   -0.192089
    43  O   -0.364532
    44  C    0.206085
    45  C    0.455776
    46  C   -0.100401
    47  C   -0.169762
    48  C    0.012440
    49  C    0.057868
    50  C    0.108587
    51  C   -0.091689
    52  C   -0.057119
    53  C    0.004810
    54  C    0.139767
    55  C    0.019200
    56  C    0.087086
    57  C   -0.050359
    58  C   -0.098932
    59  C    0.049442
    60  C    0.008369
    61  C    0.059514
    62  C   -0.111219
    63  C    0.033886
    64  C    0.044566
    65  H   -0.000292
    66  H    0.005542
    67  H   -0.136324
    68  H    0.022558
    69  H    0.002097
    70  H    0.020271
    71  H    0.032340
    72  H    0.059864
    73  H    0.045841
    74  H    0.023076
    75  H    0.005962
    76  H    0.042809
    77  H    0.029683
    78  H    0.016741
    79  H    0.020569
    80  H    0.021482
    81  H    0.069193
    82  H    0.040018
    83  H    0.037805
    84  H   -0.013985
    85  H   -0.026615
    86  H    0.015013
    87  H    0.022665
    88  H    0.036936
    89  H    0.020163
    90  H   -0.006158
    91  H   -0.017316
    92  H    0.042619
    93  H    0.051738
    94  H    0.053448
    95  H    0.029387
    96  H    0.011496
    97  H    0.029447
    98  H    0.034308
    99  H   -0.089751
   100  H   -0.023856
   101  H    0.030799
   102  H    0.043765
   103  H    0.040183
   104  H    0.005541
   105  H    0.022464
   106  H   -0.032845
   107  H   -0.011469
   108  H    0.009044
   109  H    0.014620
   110  H   -0.035362
   111  H   -0.001603
   112  H    0.010626
   113  H    0.009556
   114  H   -0.046978
   115  H   -0.044301
   116  H   -0.006167
   117  H   -0.008516
   118  H   -0.003260
   119  H   -0.029067
   120  H   -0.009810
   121  H    0.029481
   122  H    0.042192
   123  H    0.030173
   124  H   -0.070096
   125  H    0.006507
   126  H    0.000776
   127  H    0.023259
   128  H   -0.025829
   129  H   -0.009662
   130  H   -0.016437
   131  H    0.000501
   132  H    0.009253
   133  H   -0.005539
   134  H   -0.016022
   135  H    0.033139
   136  H    0.001994
   137  H    0.109491
   138  H    0.206170
 Sum of Mulliken charges =   0.00000

 Dipole moment (field-independent basis, Debye):
    X=              3.0375    Y=              5.3355    Z=              0.4538  Tot=              6.1563
 Quadrupole moment (field-independent basis, Debye-Ang):
   XX=           -360.2313   YY=           -384.6027   ZZ=           -396.4942
   XY=            -30.5649   XZ=             14.8241   YZ=              0.6686

 Normal termination of Gaussian 09 at Sat Aug  3 20:35:00 2019.
