 Gaussian 09, Revision D.01,
 Gaussian 09:  ES64L-G09RevD.01 24-Apr-2013

 --------------------------
 # td=(NStates=1) B3LYP/SVP
 --------------------------

 --
 TD
 --
 Symbolic Z-matrix:
 Charge =  0 Multiplicity = 1

                         Standard orientation:
 ---------------------------------------------------------------------
 Center     Atomic      Atomic             Coordinates (Angstroms)
 Number     Number       Type             X           Y           Z
 ---------------------------------------------------------------------
      1          6           0       -5.169890   -1.916014    0.354022
      2          6           0       -4.654484    2.845015    1.472483
      3          6           0       -9.240130    3.467022   -0.190138
      4          6           0       -9.779699   -1.200658   -1.175211
      5          7           0       -5.020329    0.382770    0.681534
      6          6           0       -4.417131   -0.804469    0.766043
      7          6           0       -3.029980   -0.670979    1.239770
      8          6           0       -3.028418    0.805044    1.837422
      9          6           0       -4.342791    1.446317    1.292447
     10          6           0       -2.984699    0.760248    3.388489
     11          6           0       -2.016721   -0.832604    0.163987
     12          6           0       -0.561720   -0.914274    0.568922
     13          6           0        0.382128   -1.182900   -0.561916
     14          8           0        0.018616   -1.622306   -1.628049
     15          8           0        1.739055   -0.922259   -0.249591
     16          7           0       -6.962249    2.737116    0.540247
     17          6           0       -5.855022    3.406693    1.061231
     18          6           0       -6.098681    4.704169    1.157825
     19          6           0       -7.442682    4.947963    0.657044
     20          6           0       -7.877187    3.675805    0.314935
     21          6           0       -5.077873    5.794046    1.525143
     22          6           0       -8.189589    6.157406    0.520426
     23          6           0       -8.869684    6.631324   -0.621168
     24          7           0       -9.121695    1.032927   -0.636340
     25          6           0       -9.833381    2.199151   -0.538070
     26          6           0      -11.223557    2.045182   -0.906429
     27          6           0      -11.369949    0.685516   -1.183095
     28          6           0      -10.109228    0.153278   -0.990338
     29          6           0      -12.330371    3.110139   -0.875700
     30          6           0      -12.641451   -0.053668   -1.666498
     31          6           0      -12.745767   -0.358694   -3.125397
     32          7           0       -7.504379   -1.200802   -0.141844
     33          6           0       -8.625532   -1.865101   -0.819385
     34          6           0       -8.238553   -3.281698   -0.752823
     35          6           0       -6.969973   -3.314730   -0.366965
     36          6           0       -6.550694   -2.011902    0.025782
     37          6           0       -9.102759   -4.461064   -1.330351
     38          6           0       -5.890733   -4.266340    0.093572
     39          8           0       -6.001518   -5.484140    0.008326
     40          6           0       -4.682958   -3.401182    0.430104
     41          6           0       -4.118967   -3.879970    1.872475
     42          8           0       -4.565407   -3.522816    2.950629
     43          8           0       -3.260812   -4.899713    1.685765
     44          6           0       -2.954206   -5.568060    2.933853
     45          6           0        2.753929   -1.230555   -1.216210
     46          6           0        4.026075   -0.699593   -0.632006
     47          6           0        5.050528   -0.058270   -1.135439
     48          6           0        4.917576    0.444779   -2.579259
     49          6           0        6.275390    0.194565   -0.429293
     50          6           0        7.494030   -0.518564   -1.058942
     51          6           0        8.835614   -0.117810   -0.223778
     52          6           0       10.111574   -0.823272   -0.819068
     53          6           0       10.020498   -2.339453   -0.832185
     54          6           0       11.371098   -0.282062   -0.046057
     55          6           0       12.701331   -0.750223   -0.620767
     56          6           0       13.857620    0.027480    0.076562
     57          6           0       15.248398   -0.143682   -0.471372
     58          6           0       15.713033   -1.705257   -0.161525
     59          6           0       16.298603    0.732075    0.288566
     60          6           0       17.744830    0.698197   -0.219658
     61          6           0       18.588022    1.518723    0.676773
     62          6           0       20.143880    1.731545    0.121537
     63          6           0       20.241375    2.539767   -1.145948
     64          6           0       20.911711    2.509067    1.214655
     65          1           0       -4.036073    3.418074    1.983178
     66          1           0       -9.782126    4.249111   -0.192343
     67          1           0      -10.613066   -1.924870   -1.337343
     68          1           0       -2.898979   -1.501207    2.077154
     69          1           0       -2.067833    1.244192    1.467282
     70          1           0       -2.043980    0.438724    3.690466
     71          1           0       -2.789556    1.791262    3.707584
     72          1           0       -3.760429    0.385048    3.871460
     73          1           0       -2.080296   -1.634043   -0.610266
     74          1           0       -2.132196   -0.183608   -0.557467
     75          1           0       -0.180941    0.010957    0.895536
     76          1           0       -0.365567   -1.713704    1.421333
     77          1           0       -4.188174    5.918819    0.900761
     78          1           0       -5.638112    6.730729    1.360133
     79          1           0       -4.906538    5.668131    2.546587
     80          1           0       -8.152223    6.840083    1.419410
     81          1           0       -9.193959    6.211478   -1.578200
     82          1           0       -9.471112    7.489271   -0.586420
     83          1           0      -12.378352    3.779740    0.032123
     84          1           0      -12.314295    3.611263   -1.808506
     85          1           0      -13.397935    2.723297   -0.830286
     86          1           0      -12.844946   -1.005813   -1.252801
     87          1           0      -13.498197    0.717480   -1.208963
     88          1           0      -12.676962    0.507960   -3.739123
     89          1           0      -11.852880   -0.941337   -3.473454
     90          1           0      -13.564450   -0.955619   -3.449167
     91          1           0      -10.344108   -4.636945   -1.013963
     92          1           0       -9.022087   -4.324061   -2.613866
     93          1           0       -8.318783   -5.236074   -1.326400
     94          1           0       -4.014603   -3.572513   -0.280368
     95          1           0       -2.264877   -6.290521    2.663294
     96          1           0       -2.413298   -5.015906    3.552745
     97          1           0       -3.892899   -5.920558    3.485402
     98          1           0        2.652263   -2.390010   -1.530967
     99          1           0        2.247745   -0.617038   -2.099648
    100          1           0        4.254294   -1.076703    0.443662
    101          1           0        5.115851    1.622809   -2.728158
    102          1           0        5.720392   -0.049061   -3.193537
    103          1           0        3.968193    0.008002   -2.888356
    104          1           0        6.411071    1.205078   -0.525456
    105          1           0        6.004769   -0.107496    0.483108
    106          1           0        7.452702   -1.506216   -1.190913
    107          1           0        7.814072    0.109975   -2.005388
    108          1           0        9.073018    1.067816   -0.124245
    109          1           0        8.535183   -0.412670    0.984915
    110          1           0        9.968527   -0.540975   -1.912978
    111          1           0        9.350155   -2.493203   -1.483531
    112          1           0       10.858138   -2.812413   -1.298339
    113          1           0        9.997934   -2.852596    0.290997
    114          1           0       11.387372    0.732428   -0.116568
    115          1           0       11.654791   -0.743930    0.976736
    116          1           0       12.726989   -1.835002   -0.657205
    117          1           0       12.650802   -0.473187   -1.783336
    118          1           0       13.769413    1.180085   -0.047986
    119          1           0       13.924339   -0.342020    1.246359
    120          1           0       15.215474   -0.061247   -1.609050
    121          1           0       14.945890   -2.417534   -0.490025
    122          1           0       16.710712   -2.093652   -0.763486
    123          1           0       15.641112   -1.890251    0.980159
    124          1           0       15.939671    1.823098    0.308964
    125          1           0       16.345209    0.378565    1.352692
    126          1           0       18.123455   -0.386984   -0.164211
    127          1           0       17.754093    0.911121   -1.245418
    128          1           0       18.272127    2.604614    0.821786
    129          1           0       18.834065    1.028060    1.678622
    130          1           0       20.435470    0.643521   -0.110153
    131          1           0       19.735722    3.564741   -1.037537
    132          1           0       21.435720    2.667374   -1.638514
    133          1           0       19.790598    2.060909   -2.313630
    134          1           0       20.584843    2.184725    2.383215
    135          1           0       22.061382    2.473042    1.033122
    136          1           0       20.824550    3.689400    1.251696
    137          1           0       -6.894296    1.840206    0.251027
    138          1           0       -7.349572   -0.091225   -0.140216
 ---------------------------------------------------------------------

 SCF Done:  E(RB3LYP) =  -2732.96121743     A.U. after   17 cycles

 Excitation energies and oscillator strengths:

 Excited State   1:      Singlet-A      2.0711 eV  598.64 nm  f=0.1040  <S**2>=0.000
     235 -> 237       -0.35847
     235 -> 238        0.26299
     236 -> 237        0.48651
     236 -> 238        0.24368
 This state for optimization and/or second-order correction.
 Total Energy, E(TD-HF/TD-KS) =  -2732.88510549
 Copying the excited state density for this state as the 1-particle RhoCI density.

 The electronic state is 1-A.
 Alpha  occ. eigenvalues --  -19.18838 -19.16850 -19.13382 -19.13132 -19.12590
 Alpha  occ. eigenvalues --  -14.36828 -14.36117 -14.31870 -14.29297 -10.32361
 Alpha  occ. eigenvalues --  -10.31964 -10.28187 -10.26529 -10.23574 -10.23570
 Alpha  occ. eigenvalues --  -10.23468 -10.23113 -10.22981 -10.22874 -10.22781
 Alpha  occ. eigenvalues --  -10.22016 -10.21905 -10.21865 -10.21747 -10.21312
 Alpha  occ. eigenvalues --  -10.21093 -10.20919 -10.20884 -10.20778 -10.20640
 Alpha  occ. eigenvalues --  -10.20560 -10.20540 -10.20279 -10.20239 -10.20225
 Alpha  occ. eigenvalues --  -10.20225 -10.20219 -10.20020 -10.19965 -10.19895
 Alpha  occ. eigenvalues --  -10.19793 -10.19745 -10.19438 -10.19432 -10.19420
 Alpha  occ. eigenvalues --  -10.19378 -10.19234 -10.19196 -10.19172 -10.19138
 Alpha  occ. eigenvalues --  -10.18999 -10.18955 -10.18915 -10.18795 -10.18758
 Alpha  occ. eigenvalues --  -10.18354 -10.18189 -10.18028 -10.17983 -10.17826
 Alpha  occ. eigenvalues --  -10.17667 -10.17410 -10.17305 -10.17043  -1.09762
 Alpha  occ. eigenvalues --   -1.07935  -1.02369  -1.00793  -1.00688  -0.99463
 Alpha  occ. eigenvalues --   -0.98933  -0.93621  -0.93405  -0.83890  -0.83872
 Alpha  occ. eigenvalues --   -0.82237  -0.81901  -0.81676  -0.81360  -0.80605
 Alpha  occ. eigenvalues --   -0.80471  -0.79026  -0.78837  -0.78610  -0.77455
 Alpha  occ. eigenvalues --   -0.76694  -0.75938  -0.75214  -0.75096  -0.74303
 Alpha  occ. eigenvalues --   -0.73762  -0.73397  -0.72700  -0.71768  -0.71101
 Alpha  occ. eigenvalues --   -0.69932  -0.69918  -0.68813  -0.68507  -0.67701
 Alpha  occ. eigenvalues --   -0.66584  -0.65871  -0.65399  -0.65212  -0.64624
 Alpha  occ. eigenvalues --   -0.64341  -0.63885  -0.63227  -0.61742  -0.61509
 Alpha  occ. eigenvalues --   -0.61294  -0.58831  -0.58585  -0.57866  -0.57592
 Alpha  occ. eigenvalues --   -0.56895  -0.56597  -0.56079  -0.55181  -0.54923
 Alpha  occ. eigenvalues --   -0.54792  -0.54377  -0.54314  -0.53485  -0.53110
 Alpha  occ. eigenvalues --   -0.52922  -0.51632  -0.51514  -0.51295  -0.50533
 Alpha  occ. eigenvalues --   -0.49873  -0.49724  -0.49493  -0.49312  -0.48663
 Alpha  occ. eigenvalues --   -0.48416  -0.47642  -0.47589  -0.47553  -0.47198
 Alpha  occ. eigenvalues --   -0.47091  -0.46408  -0.46189  -0.46128  -0.45968
 Alpha  occ. eigenvalues --   -0.45704  -0.45375  -0.45034  -0.44860  -0.44588
 Alpha  occ. eigenvalues --   -0.44289  -0.44123  -0.43936  -0.43874  -0.43719
 Alpha  occ. eigenvalues --   -0.43446  -0.43326  -0.42846  -0.42800  -0.42495
 Alpha  occ. eigenvalues --   -0.42395  -0.42242  -0.42038  -0.41904  -0.41759
 Alpha  occ. eigenvalues --   -0.41600  -0.41000  -0.40891  -0.40307  -0.40264
 Alpha  occ. eigenvalues --   -0.40060  -0.39840  -0.39591  -0.39417  -0.39377
 Alpha  occ. eigenvalues --   -0.39042  -0.38689  -0.38475  -0.38445  -0.38361
 Alpha  occ. eigenvalues --   -0.38104  -0.37898  -0.37679  -0.37451  -0.37269
 Alpha  occ. eigenvalues --   -0.37208  -0.37134  -0.37080  -0.36796  -0.36644
 Alpha  occ. eigenvalues --   -0.36508  -0.36263  -0.36185  -0.35912  -0.35745
 Alpha  occ. eigenvalues --   -0.35618  -0.35599  -0.35351  -0.35153  -0.35031
 Alpha  occ. eigenvalues --   -0.34916  -0.34452  -0.34446  -0.34091  -0.33848
 Alpha  occ. eigenvalues --   -0.33461  -0.33146  -0.32840  -0.32687  -0.32389
 Alpha  occ. eigenvalues --   -0.32186  -0.31821  -0.31559  -0.31402  -0.31156
 Alpha  occ. eigenvalues --   -0.30785  -0.30643  -0.30253  -0.29856  -0.29409
 Alpha  occ. eigenvalues --   -0.29264  -0.28883  -0.28528  -0.28388  -0.28257
 Alpha  occ. eigenvalues --   -0.27599  -0.27217  -0.27001  -0.26040  -0.25591
 Alpha  occ. eigenvalues --   -0.25242  -0.25009  -0.24065  -0.22491  -0.19591
 Alpha  occ. eigenvalues --   -0.18946
 Alpha virt. eigenvalues --   -0.10171  -0.07976  -0.04213  -0.02766  -0.00818
 Alpha virt. eigenvalues --   -0.00571   0.00390   0.00656   0.02357   0.03387
 Alpha virt. eigenvalues --    0.03700   0.03962   0.04194   0.04757   0.04781

 Mulliken charges:
               1
     1  C   -0.003087
     2  C   -0.032991
     3  C    0.034726
     4  C   -0.083388
     5  N   -0.225372
     6  C   -0.101084
     7  C    0.007665
     8  C   -0.087010
     9  C    0.053142
    10  C    0.176362
    11  C    0.100104
    12  C    0.072933
    13  C    0.166513
    14  O   -0.226982
    15  O   -0.362581
    16  N    0.041399
    17  C    0.135945
    18  C   -0.183078
    19  C    0.038415
    20  C    0.061512
    21  C    0.149387
    22  C   -0.086200
    23  C   -0.025164
    24  N   -0.242191
    25  C    0.066571
    26  C   -0.132133
    27  C   -0.080117
    28  C    0.072093
    29  C    0.082165
    30  C    0.057482
    31  C    0.047910
    32  N   -0.047495
    33  C    0.072316
    34  C   -0.130750
    35  C   -0.029288
    36  C    0.041322
    37  C   -0.011967
    38  C    0.096641
    39  O   -0.178952
    40  C    0.093366
    41  C    0.197928
    42  O   -0.235959
    43  O   -0.297647
    44  C    0.256826
    45  C    0.188370
    46  C   -0.077218
    47  C   -0.230583
    48  C    0.056458
    49  C    0.307877
    50  C   -0.000791
    51  C   -0.089719
    52  C   -0.077861
    53  C    0.119083
    54  C    0.101617
    55  C   -0.013899
    56  C   -0.015336
    57  C   -0.066413
    58  C   -0.054835
    59  C    0.012254
    60  C    0.097722
    61  C   -0.032670
    62  C   -0.056661
    63  C   -0.109064
    64  C   -0.052259
    65  H   -0.090792
    66  H   -0.140234
    67  H   -0.010969
    68  H    0.028217
    69  H   -0.003214
    70  H   -0.023939
    71  H   -0.019769
    72  H   -0.000638
    73  H    0.012660
    74  H   -0.065786
    75  H    0.004248
    76  H    0.054624
    77  H    0.034186
    78  H    0.000594
    79  H    0.012262
    80  H    0.034234
    81  H    0.029481
    82  H    0.003684
    83  H    0.034880
    84  H    0.013425
    85  H    0.006532
    86  H   -0.013418
    87  H    0.017151
    88  H   -0.006826
    89  H    0.000922
    90  H    0.003843
    91  H    0.088428
    92  H    0.042266
    93  H    0.040469
    94  H   -0.010821
    95  H    0.002933
    96  H   -0.018875
    97  H    0.055410
    98  H    0.056019
    99  H    0.048208
   100  H   -0.001569
   101  H    0.037088
   102  H    0.016488
   103  H   -0.003941
   104  H   -0.034255
   105  H   -0.056278
   106  H   -0.013516
   107  H    0.021815
   108  H    0.021887
   109  H    0.005108
   110  H   -0.006883
   111  H   -0.064128
   112  H   -0.012600
   113  H    0.033275
   114  H   -0.034112
   115  H    0.011572
   116  H    0.005684
   117  H   -0.016606
   118  H    0.015955
   119  H    0.014322
   120  H    0.005564
   121  H   -0.004880
   122  H    0.040124
   123  H    0.013336
   124  H   -0.002204
   125  H   -0.005276
   126  H   -0.001880
   127  H   -0.020857
   128  H    0.006971
   129  H    0.017883
   130  H    0.014707
   131  H    0.032599
   132  H    0.032113
   133  H    0.021084
   134  H    0.030936
   135  H    0.023651
   136  H    0.026431
   137  H    0.080865
   138  H    0.204773
 Sum of Mulliken charges =   0.00000

 Dipole moment (field-independent basis, Debye):
    X=              2.7247    Y=              3.5280    Z=              0.3777  Tot=              4.4736
 Quadrupole moment (field-independent basis, Debye-Ang):
   XX=           -365.4391   YY=           -382.7694   ZZ=           -393.0806
   XY=            -28.3413   XZ=              5.5096   YZ=             -0.3469

 Normal termination of Gaussian 09 at Fri Aug  2 14:04:24 2019.
