 Gaussian 09, Revision D.01,
 Gaussian 09:  ES64L-G09RevD.01 24-Apr-2013

 --------------------------
 # td=(NStates=1) B3LYP/SVP
 --------------------------

 --
 TD
 --
 Symbolic Z-matrix:
 Charge =  0 Multiplicity = 1

                         Standard orientation:
 ---------------------------------------------------------------------
 Center     Atomic      Atomic             Coordinates (Angstroms)
 Number     Number       Type             X           Y           Z
 ---------------------------------------------------------------------
      1          6           0       -5.209273   -1.933141    0.275928
      2          6           0       -4.648296    2.711218    1.529616
      3          6           0       -9.166180    3.428328   -0.237341
      4          6           0       -9.874619   -1.251243   -1.022502
      5          7           0       -5.190005    0.417828    0.868599
      6          6           0       -4.555348   -0.764899    0.768833
      7          6           0       -3.176717   -0.761675    1.236403
      8          6           0       -3.074866    0.685334    1.834014
      9          6           0       -4.312286    1.328783    1.413079
     10          6           0       -2.922052    0.570131    3.380651
     11          6           0       -2.057582   -1.077673    0.114169
     12          6           0       -0.530053   -1.235765    0.675988
     13          6           0        0.419326   -1.307530   -0.468619
     14          8           0        0.156249   -1.692320   -1.553750
     15          8           0        1.669599   -0.982172   -0.163559
     16          7           0       -6.942313    2.815348    0.563116
     17          6           0       -5.857206    3.274203    1.094367
     18          6           0       -5.969078    4.745644    1.084755
     19          6           0       -7.249525    5.071697    0.630412
     20          6           0       -7.937506    3.747744    0.326429
     21          6           0       -5.037644    5.762931    1.688028
     22          6           0       -7.913784    6.320313    0.408216
     23          6           0       -8.683162    6.800389   -0.573826
     24          7           0       -9.200017    1.015657   -0.594246
     25          6           0       -9.854392    2.271167   -0.644649
     26          6           0      -11.195295    2.139989   -0.938176
     27          6           0      -11.428301    0.823399   -1.241699
     28          6           0      -10.171599    0.174790   -0.960392
     29          6           0      -12.194547    3.219069   -1.041094
     30          6           0      -12.604075    0.105142   -1.672311
     31          6           0      -12.830456    0.093432   -3.166538
     32          7           0       -7.572157   -1.156563   -0.270300
     33          6           0       -8.681999   -1.872117   -0.734681
     34          6           0       -8.333441   -3.208428   -0.933009
     35          6           0       -7.034419   -3.302081   -0.413503
     36          6           0       -6.532150   -2.031722   -0.061551
     37          6           0       -9.120133   -4.488674   -1.284927
     38          6           0       -5.951481   -4.227518   -0.068437
     39          8           0       -5.995631   -5.471789   -0.115745
     40          6           0       -4.683656   -3.314205    0.303482
     41          6           0       -4.103178   -3.975463    1.579076
     42          8           0       -4.243526   -3.483014    2.711458
     43          8           0       -3.233488   -4.913567    1.300586
     44          6           0       -2.655103   -5.628045    2.500283
     45          6           0        2.751490   -1.333788   -0.970872
     46          6           0        4.059034   -0.830449   -0.303786
     47          6           0        5.004170   -0.128264   -0.872130
     48          6           0        4.928239    0.390871   -2.294294
     49          6           0        6.302651    0.196752   -0.166979
     50          6           0        7.521112   -0.613478   -0.718010
     51          6           0        8.754944   -0.471985    0.097638
     52          6           0       10.131356   -0.938718   -0.603472
     53          6           0       10.111042   -2.422002   -0.640496
     54          6           0       11.332321   -0.386851    0.116461
     55          6           0       12.652603   -0.594270   -0.477039
     56          6           0       13.796802    0.100286    0.245994
     57          6           0       15.154230   -0.205796   -0.376141
     58          6           0       15.718196   -1.687727   -0.322519
     59          6           0       16.246003    0.753167    0.319841
     60          6           0       17.677148    0.693676   -0.221918
     61          6           0       18.557663    1.835358    0.440266
     62          6           0       20.003669    2.047885   -0.155827
     63          6           0       19.974812    2.476327   -1.576913
     64          6           0       20.915639    2.838150    0.735720
     65          1           0       -3.922845    3.405515    1.728575
     66          1           0       -9.804397    4.315032   -0.179409
     67          1           0      -10.819793   -2.077666   -1.201186
     68          1           0       -2.874462   -1.684563    1.927853
     69          1           0       -2.270646    1.237342    1.478397
     70          1           0       -1.920212    0.383055    3.764984
     71          1           0       -3.334641    1.812850    3.787855
     72          1           0       -3.739546   -0.237811    3.657363
     73          1           0       -2.410147   -2.040427   -0.295477
     74          1           0       -2.140794   -0.419787   -0.960618
     75          1           0       -0.284187   -0.378500    1.380137
     76          1           0       -0.669171   -2.197141    1.359813
     77          1           0       -4.390013    5.849362    0.783963
     78          1           0       -5.771356    6.562262    2.158328
     79          1           0       -4.390625    5.312855    2.580556
     80          1           0       -7.618132    7.187629    1.202738
     81          1           0       -8.866328    6.239200   -1.553826
     82          1           0       -9.115331    7.870164   -0.455217
     83          1           0      -12.380346    3.660071   -0.083877
     84          1           0      -11.929653    3.920629   -1.582088
     85          1           0      -13.136840    2.878428   -1.459033
     86          1           0      -12.618828   -0.922228   -1.293069
     87          1           0      -13.457413    0.650155   -0.960259
     88          1           0      -12.598992    1.107022   -3.370572
     89          1           0      -12.172368   -0.537926   -3.547985
     90          1           0      -13.709141   -0.414246   -3.511421
     91          1           0       -9.977048   -4.392385   -0.617251
     92          1           0       -9.428855   -4.451220   -2.281219
     93          1           0       -8.483885   -5.457784   -0.887858
     94          1           0       -3.778587   -3.546537   -0.440180
     95          1           0       -1.962194   -6.229923    2.088214
     96          1           0       -2.060926   -5.065979    3.167600
     97          1           0       -3.470878   -6.034345    3.004680
     98          1           0        2.688665   -2.494671   -1.059586
     99          1           0        2.590566   -0.969129   -1.995027
    100          1           0        4.116179   -1.156474    0.715272
    101          1           0        5.298993    1.404900   -2.110617
    102          1           0        5.772982    0.141232   -2.870993
    103          1           0        4.009879    0.256647   -2.816221
    104          1           0        6.505839    1.373775   -0.035369
    105          1           0        6.133491   -0.038447    0.991201
    106          1           0        7.118391   -1.479253   -0.819180
    107          1           0        7.697495   -0.271531   -1.723794
    108          1           0        9.067142    0.561775    0.452660
    109          1           0        8.610970   -0.772168    1.109521
    110          1           0       10.012716   -0.575683   -1.532299
    111          1           0        9.172461   -2.837034   -1.188383
    112          1           0       11.061426   -3.005147   -1.091874
    113          1           0        9.958173   -2.924866    0.457343
    114          1           0       11.180920    0.614793    0.152475
    115          1           0       11.427323   -0.573872    1.305738
    116          1           0       12.971035   -1.666868   -0.303616
    117          1           0       12.708809   -0.290484   -1.513568
    118          1           0       13.689525    1.168964    0.401541
    119          1           0       14.091748   -0.179818    1.370528
    120          1           0       15.182955    0.103411   -1.480995
    121          1           0       15.020402   -2.418825   -0.998207
    122          1           0       16.670561   -1.698525   -0.998637
    123          1           0       15.695182   -2.300543    0.677365
    124          1           0       15.986701    1.706150    0.497636
    125          1           0       16.357402    0.237736    1.232426
    126          1           0       18.178685   -0.324989   -0.261684
    127          1           0       17.564798    0.943146   -1.239373
    128          1           0       18.014094    2.778847    0.287578
    129          1           0       18.824826    1.579799    1.470797
    130          1           0       20.444127    0.986129   -0.211845
    131          1           0       19.660385    3.764822   -1.887885
    132          1           0       20.881578    2.356047   -2.212374
    133          1           0       19.224341    1.974352   -2.227506
    134          1           0       20.908354    2.367842    1.713808
    135          1           0       21.958511    2.850144    0.301052
    136          1           0       20.473966    3.873730    0.721508
    137          1           0       -7.157041    1.858338    0.364139
    138          1           0       -7.538447   -0.206365   -0.252174
 ---------------------------------------------------------------------

 SCF Done:  E(RB3LYP) =  -2733.05601575     A.U. after   17 cycles

 Excitation energies and oscillator strengths:

 Excited State   1:      Singlet-A      2.0699 eV  599.00 nm  f=0.1032  <S**2>=0.000
     235 -> 238        0.34660
     236 -> 237        0.59800
 This state for optimization and/or second-order correction.
 Total Energy, E(TD-HF/TD-KS) =  -2732.97994980
 Copying the excited state density for this state as the 1-particle RhoCI density.

 The electronic state is 1-A.
 Alpha  occ. eigenvalues --  -19.18898 -19.17059 -19.12015 -19.11999 -19.11596
 Alpha  occ. eigenvalues --  -14.37331 -14.35660 -14.32291 -14.29132 -10.31628
 Alpha  occ. eigenvalues --  -10.31416 -10.27861 -10.25448 -10.24222 -10.23959
 Alpha  occ. eigenvalues --  -10.23798 -10.23192 -10.23132 -10.23057 -10.22774
 Alpha  occ. eigenvalues --  -10.22623 -10.22208 -10.21786 -10.21741 -10.21661
 Alpha  occ. eigenvalues --  -10.21644 -10.21432 -10.21429 -10.21045 -10.20923
 Alpha  occ. eigenvalues --  -10.20915 -10.20834 -10.20603 -10.20557 -10.20527
 Alpha  occ. eigenvalues --  -10.20411 -10.20117 -10.20098 -10.20050 -10.20004
 Alpha  occ. eigenvalues --  -10.19690 -10.19681 -10.19659 -10.19507 -10.19176
 Alpha  occ. eigenvalues --  -10.19175 -10.19075 -10.18704 -10.18596 -10.18505
 Alpha  occ. eigenvalues --  -10.18494 -10.18482 -10.18470 -10.18361 -10.18156
 Alpha  occ. eigenvalues --  -10.18140 -10.17987 -10.17926 -10.17730 -10.17543
 Alpha  occ. eigenvalues --  -10.17283 -10.16606 -10.16459 -10.16422  -1.11194
 Alpha  occ. eigenvalues --   -1.09603  -1.01728  -1.00730  -0.99766  -0.98732
 Alpha  occ. eigenvalues --   -0.98013  -0.94921  -0.93257  -0.85248  -0.83369
 Alpha  occ. eigenvalues --   -0.82362  -0.81953  -0.81245  -0.81052  -0.80543
 Alpha  occ. eigenvalues --   -0.80329  -0.79937  -0.79723  -0.79043  -0.78001
 Alpha  occ. eigenvalues --   -0.77224  -0.76469  -0.76260  -0.75501  -0.75019
 Alpha  occ. eigenvalues --   -0.74264  -0.73688  -0.72505  -0.71875  -0.70516
 Alpha  occ. eigenvalues --   -0.70391  -0.69857  -0.69287  -0.68948  -0.67927
 Alpha  occ. eigenvalues --   -0.67262  -0.66750  -0.66290  -0.66036  -0.65809
 Alpha  occ. eigenvalues --   -0.64885  -0.62867  -0.62557  -0.62375  -0.61704
 Alpha  occ. eigenvalues --   -0.61140  -0.60054  -0.58635  -0.58312  -0.58066
 Alpha  occ. eigenvalues --   -0.57458  -0.56558  -0.56356  -0.56027  -0.55582
 Alpha  occ. eigenvalues --   -0.54873  -0.54833  -0.53853  -0.53415  -0.53084
 Alpha  occ. eigenvalues --   -0.52863  -0.52236  -0.51616  -0.50831  -0.50364
 Alpha  occ. eigenvalues --   -0.49921  -0.49880  -0.49336  -0.49117  -0.48675
 Alpha  occ. eigenvalues --   -0.48113  -0.47905  -0.47641  -0.47276  -0.47179
 Alpha  occ. eigenvalues --   -0.47034  -0.46910  -0.46684  -0.46610  -0.45954
 Alpha  occ. eigenvalues --   -0.45535  -0.45456  -0.45353  -0.45090  -0.44933
 Alpha  occ. eigenvalues --   -0.44535  -0.44333  -0.44039  -0.43666  -0.43503
 Alpha  occ. eigenvalues --   -0.43488  -0.43448  -0.43347  -0.43026  -0.42969
 Alpha  occ. eigenvalues --   -0.42843  -0.42567  -0.42491  -0.42086  -0.41566
 Alpha  occ. eigenvalues --   -0.41417  -0.41051  -0.40714  -0.40612  -0.40441
 Alpha  occ. eigenvalues --   -0.40376  -0.40120  -0.39795  -0.39609  -0.39235
 Alpha  occ. eigenvalues --   -0.39087  -0.38985  -0.38916  -0.38539  -0.38466
 Alpha  occ. eigenvalues --   -0.38404  -0.38045  -0.37778  -0.37618  -0.37454
 Alpha  occ. eigenvalues --   -0.37339  -0.37261  -0.36878  -0.36813  -0.36608
 Alpha  occ. eigenvalues --   -0.36554  -0.36268  -0.36153  -0.36028  -0.35849
 Alpha  occ. eigenvalues --   -0.35320  -0.35200  -0.35143  -0.34770  -0.34718
 Alpha  occ. eigenvalues --   -0.34573  -0.34465  -0.34269  -0.33917  -0.33708
 Alpha  occ. eigenvalues --   -0.33244  -0.33206  -0.32869  -0.32680  -0.32554
 Alpha  occ. eigenvalues --   -0.32069  -0.32062  -0.32006  -0.32003  -0.31143
 Alpha  occ. eigenvalues --   -0.30613  -0.30561  -0.30362  -0.30270  -0.30130
 Alpha  occ. eigenvalues --   -0.29543  -0.29185  -0.28557  -0.28360  -0.28136
 Alpha  occ. eigenvalues --   -0.27661  -0.27091  -0.26753  -0.26186  -0.25895
 Alpha  occ. eigenvalues --   -0.25626  -0.24631  -0.23972  -0.22236  -0.19591
 Alpha  occ. eigenvalues --   -0.18939
 Alpha virt. eigenvalues --   -0.09889  -0.08122  -0.04374  -0.01916  -0.00865
 Alpha virt. eigenvalues --   -0.00280   0.00225   0.00795   0.01792   0.03327
 Alpha virt. eigenvalues --    0.03984   0.04167   0.04260   0.04905   0.05036

 Mulliken charges:
               1
     1  C    0.065897
     2  C   -0.061815
     3  C   -0.048679
     4  C   -0.125554
     5  N   -0.175936
     6  C   -0.007152
     7  C   -0.112957
     8  C    0.109617
     9  C    0.003565
    10  C   -0.040038
    11  C   -0.061427
    12  C   -0.012126
    13  C    0.168906
    14  O   -0.204122
    15  O   -0.285007
    16  N    0.038383
    17  C    0.108438
    18  C   -0.190809
    19  C    0.084615
    20  C    0.002796
    21  C    0.026258
    22  C   -0.106684
    23  C   -0.075645
    24  N   -0.260231
    25  C    0.071014
    26  C   -0.165602
    27  C   -0.091007
    28  C    0.038689
    29  C    0.278113
    30  C   -0.020273
    31  C    0.168729
    32  N   -0.010579
    33  C    0.089013
    34  C   -0.157945
    35  C    0.021020
    36  C    0.047588
    37  C    0.094295
    38  C    0.074457
    39  O   -0.210212
    40  C   -0.117157
    41  C    0.199305
    42  O   -0.276607
    43  O   -0.297542
    44  C    0.275997
    45  C    0.235461
    46  C   -0.073253
    47  C   -0.122139
    48  C    0.168032
    49  C   -0.061880
    50  C    0.181770
    51  C    0.015880
    52  C    0.041622
    53  C   -0.049915
    54  C    0.072783
    55  C    0.102438
    56  C   -0.011774
    57  C   -0.095380
    58  C   -0.060976
    59  C    0.090610
    60  C    0.023517
    61  C    0.025792
    62  C   -0.094333
    63  C   -0.046446
    64  C    0.061227
    65  H   -0.063049
    66  H   -0.020913
    67  H    0.028704
    68  H    0.049582
    69  H   -0.029073
    70  H    0.033802
    71  H    0.018136
    72  H    0.067190
    73  H    0.009273
    74  H    0.037712
    75  H    0.040863
    76  H    0.063194
    77  H    0.056274
    78  H    0.063515
    79  H    0.047583
    80  H    0.022074
    81  H    0.044516
    82  H    0.044107
    83  H   -0.003343
    84  H   -0.068815
    85  H   -0.005562
    86  H   -0.014244
    87  H    0.015987
    88  H    0.004960
    89  H   -0.044674
    90  H   -0.001293
    91  H    0.026202
    92  H    0.017635
    93  H    0.083284
    94  H    0.093682
    95  H    0.003081
    96  H    0.018171
    97  H    0.035698
    98  H    0.019623
    99  H    0.008006
   100  H   -0.024299
   101  H   -0.007620
   102  H   -0.011243
   103  H    0.015558
   104  H    0.022462
   105  H    0.005375
   106  H   -0.050169
   107  H   -0.014387
   108  H   -0.025343
   109  H   -0.030744
   110  H   -0.049267
   111  H    0.011876
   112  H    0.028627
   113  H    0.012035
   114  H   -0.055932
   115  H   -0.002106
   116  H    0.007868
   117  H   -0.010742
   118  H   -0.020640
   119  H   -0.006216
   120  H   -0.008139
   121  H    0.014066
   122  H    0.036879
   123  H    0.038980
   124  H   -0.040317
   125  H   -0.026722
   126  H    0.009119
   127  H   -0.028999
   128  H    0.000674
   129  H   -0.005290
   130  H   -0.005677
   131  H   -0.006137
   132  H    0.010762
   133  H    0.008184
   134  H    0.007887
   135  H    0.017719
   136  H    0.012767
   137  H    0.129959
   138  H    0.082680
 Sum of Mulliken charges =   0.00000

 Dipole moment (field-independent basis, Debye):
    X=              3.5475    Y=              3.0490    Z=              0.6766  Tot=              4.7264
 Quadrupole moment (field-independent basis, Debye-Ang):
   XX=           -369.2637   YY=           -383.0494   ZZ=           -395.3527
   XY=            -28.3058   XZ=              8.7441   YZ=             -4.3345

 Normal termination of Gaussian 09 at Sat Aug  3 21:41:39 2019.
