 Gaussian 09, Revision D.01,
 Gaussian 09:  ES64L-G09RevD.01 24-Apr-2013

 --------------------------
 # td=(NStates=1) B3LYP/SVP
 --------------------------

 --
 TD
 --
 Symbolic Z-matrix:
 Charge =  0 Multiplicity = 1

                         Standard orientation:
 ---------------------------------------------------------------------
 Center     Atomic      Atomic             Coordinates (Angstroms)
 Number     Number       Type             X           Y           Z
 ---------------------------------------------------------------------
      1          6           0       -5.112006   -1.951727    0.454359
      2          6           0       -4.726819    2.722979    1.506524
      3          6           0       -9.306730    3.328440   -0.279535
      4          6           0       -9.863751   -1.544808   -0.819882
      5          7           0       -5.225205    0.476217    0.947683
      6          6           0       -4.498803   -0.750185    0.822067
      7          6           0       -3.106156   -0.572120    1.313685
      8          6           0       -3.031680    0.881586    1.975665
      9          6           0       -4.420441    1.417334    1.380681
     10          6           0       -2.955363    0.978105    3.444990
     11          6           0       -2.098613   -0.684147    0.075306
     12          6           0       -0.731958   -0.677285    0.578935
     13          6           0        0.378110   -0.955952   -0.576024
     14          8           0        0.045164   -1.413814   -1.630666
     15          8           0        1.644060   -0.864246   -0.138967
     16          7           0       -7.091334    2.705864    0.679414
     17          6           0       -5.906539    3.418919    1.132593
     18          6           0       -6.170335    4.809386    1.100754
     19          6           0       -7.529107    4.929689    0.465554
     20          6           0       -8.061231    3.665661    0.229635
     21          6           0       -5.283237    5.910043    1.584223
     22          6           0       -8.131524    6.201595    0.213003
     23          6           0       -8.984506    6.610930   -0.745299
     24          7           0       -9.214618    0.871405   -0.563551
     25          6           0       -9.764404    1.961654   -0.596232
     26          6           0      -11.227823    1.863446   -1.012379
     27          6           0      -11.366984    0.522638   -1.226603
     28          6           0      -10.093689   -0.119805   -0.747560
     29          6           0      -12.267782    2.938555   -1.431167
     30          6           0      -12.526359   -0.304666   -1.802809
     31          6           0      -12.469833   -0.632237   -3.273559
     32          7           0       -7.526153   -1.297009   -0.106972
     33          6           0       -8.608249   -2.056962   -0.551251
     34          6           0       -8.234703   -3.401861   -0.585136
     35          6           0       -6.806521   -3.412788   -0.129085
     36          6           0       -6.446302   -2.131379    0.012627
     37          6           0       -9.089626   -4.640084   -0.695100
     38          6           0       -5.673962   -4.277893    0.134697
     39          8           0       -5.578173   -5.488776    0.034769
     40          6           0       -4.499639   -3.301219    0.498240
     41          6           0       -3.882866   -3.796708    1.767819
     42          8           0       -4.045149   -3.290479    2.917496
     43          8           0       -2.972902   -4.753671    1.485070
     44          6           0       -2.445213   -5.295092    2.656143
     45          6           0        2.638271   -0.944472   -1.286614
     46          6           0        3.974606   -0.801788   -0.658915
     47          6           0        4.931034    0.107143   -1.047881
     48          6           0        4.865088    0.949544   -2.418341
     49          6           0        6.322602    0.318885   -0.331354
     50          6           0        7.541693   -0.368768   -1.110974
     51          6           0        8.746699   -0.174512   -0.226981
     52          6           0       10.025984   -0.609762   -0.928878
     53          6           0        9.985698   -2.138068   -1.344952
     54          6           0       11.251781   -0.332298   -0.169822
     55          6           0       12.602270   -0.574573   -0.770940
     56          6           0       13.783107   -0.087822    0.203175
     57          6           0       15.249186   -0.125759   -0.507216
     58          6           0       15.592151   -1.614892   -1.016059
     59          6           0       16.213086    0.532408    0.561306
     60          6           0       17.585003    0.665997    0.011190
     61          6           0       18.539284    1.477050    0.903656
     62          6           0       19.985649    1.549935    0.288841
     63          6           0       20.024086    2.229896   -1.070568
     64          6           0       20.936712    2.320603    1.343638
     65          1           0       -3.891625    3.461097    1.900732
     66          1           0       -9.989273    3.949382   -0.577678
     67          1           0      -10.603857   -2.223489   -1.270171
     68          1           0       -2.868835   -1.452915    1.836127
     69          1           0       -2.077935    1.650522    1.524766
     70          1           0       -2.085648    0.642857    4.013674
     71          1           0       -2.988485    1.940432    3.710895
     72          1           0       -3.739360    0.382852    3.684632
     73          1           0       -2.323976   -1.712438   -0.571335
     74          1           0       -2.226812    0.000721   -0.473606
     75          1           0       -0.595314    0.329465    1.041770
     76          1           0       -0.453027   -1.491383    1.387414
     77          1           0       -4.385465    6.261072    0.909070
     78          1           0       -5.846575    6.915473    1.795764
     79          1           0       -4.608078    5.370163    2.436785
     80          1           0       -7.834733    7.083014    0.889323
     81          1           0       -9.246036    5.892454   -1.616380
     82          1           0       -9.199962    7.683179   -0.794862
     83          1           0      -12.589763    3.470598   -0.503359
     84          1           0      -11.887327    3.629044   -2.094236
     85          1           0      -13.059657    2.214371   -1.691980
     86          1           0      -12.657277   -1.305596   -1.151843
     87          1           0      -13.545917    0.380742   -1.814796
     88          1           0      -12.431156    0.335437   -3.853036
     89          1           0      -11.725946   -1.157317   -3.470937
     90          1           0      -13.560153   -1.050076   -3.571910
     91          1           0       -9.738879   -4.662278    0.074624
     92          1           0       -9.451112   -4.906405   -1.881407
     93          1           0       -8.318288   -5.441063   -0.413342
     94          1           0       -3.711371   -3.555098   -0.221508
     95          1           0       -1.832800   -6.319142    2.533759
     96          1           0       -1.728936   -4.668210    3.292806
     97          1           0       -3.267485   -5.652994    3.301087
     98          1           0        2.462241   -1.944252   -1.804490
     99          1           0        2.408485   -0.234355   -2.177511
    100          1           0        4.125101   -1.469715    0.230014
    101          1           0        5.329748    1.952129   -2.268656
    102          1           0        5.447413    0.335772   -3.107667
    103          1           0        3.967043    0.860119   -2.897901
    104          1           0        6.469096    1.351582   -0.206665
    105          1           0        6.140844   -0.088206    0.813239
    106          1           0        7.408191   -1.557459   -1.230615
    107          1           0        7.555765    0.053240   -2.019068
    108          1           0        8.767627    0.849812    0.037360
    109          1           0        8.566365   -0.767449    0.760069
    110          1           0       10.038366   -0.091336   -1.900482
    111          1           0        9.313960   -2.451205   -2.093163
    112          1           0       11.132943   -2.254721   -1.552128
    113          1           0        9.604728   -2.914597   -0.574877
    114          1           0       11.185283    0.737861    0.051811
    115          1           0       11.033531   -0.916140    0.961274
    116          1           0       12.883324   -1.601072   -1.065714
    117          1           0       12.656839   -0.093423   -1.774459
    118          1           0       13.587738    0.861950    0.561467
    119          1           0       13.964994   -0.656152    1.010966
    120          1           0       15.338783    0.533819   -1.426890
    121          1           0       14.822476   -1.968779   -1.882643
    122          1           0       16.730717   -1.782905   -1.570969
    123          1           0       15.356092   -2.378013   -0.038571
    124          1           0       15.879713    1.609789    0.951578
    125          1           0       16.207413   -0.232210    1.466928
    126          1           0       17.973078   -0.393442   -0.214599
    127          1           0       17.563605    1.392792   -1.021451
    128          1           0       18.142780    2.536818    0.887971
    129          1           0       18.515007    1.162450    1.850292
    130          1           0       20.380079    0.543604   -0.030619
    131          1           0       19.976703    3.289603   -1.166128
    132          1           0       21.097861    1.899114   -1.545416
    133          1           0       19.394218    1.716735   -1.948428
    134          1           0       21.004664    1.959272    2.363059
    135          1           0       21.994393    2.303781    1.208364
    136          1           0       20.303789    3.385522    1.592588
    137          1           0       -7.133522    1.676416    0.633853
    138          1           0       -7.565285   -0.215426   -0.049337
 ---------------------------------------------------------------------

 SCF Done:  E(RB3LYP) =  -2732.97410345     A.U. after   17 cycles

 Excitation energies and oscillator strengths:

 Excited State   1:      Singlet-A      2.0221 eV  613.13 nm  f=0.1751  <S**2>=0.000
     235 -> 237       -0.37194
     235 -> 238       -0.24868
     236 -> 237        0.51344
     236 -> 238       -0.18127
 This state for optimization and/or second-order correction.
 Total Energy, E(TD-HF/TD-KS) =  -2732.89979085
 Copying the excited state density for this state as the 1-particle RhoCI density.

 The electronic state is 1-A.
 Alpha  occ. eigenvalues --  -19.19450 -19.17681 -19.12563 -19.12135 -19.12054
 Alpha  occ. eigenvalues --  -14.36787 -14.36335 -14.32572 -14.30295 -10.32321
 Alpha  occ. eigenvalues --  -10.31021 -10.27826 -10.25732 -10.25153 -10.24674
 Alpha  occ. eigenvalues --  -10.24242 -10.23385 -10.22997 -10.22939 -10.22868
 Alpha  occ. eigenvalues --  -10.22777 -10.22578 -10.22500 -10.22314 -10.21984
 Alpha  occ. eigenvalues --  -10.21868 -10.21572 -10.21401 -10.21337 -10.21308
 Alpha  occ. eigenvalues --  -10.21255 -10.21185 -10.20973 -10.20552 -10.20454
 Alpha  occ. eigenvalues --  -10.20447 -10.20437 -10.20305 -10.20275 -10.20212
 Alpha  occ. eigenvalues --  -10.20027 -10.19783 -10.19749 -10.19615 -10.19382
 Alpha  occ. eigenvalues --  -10.19351 -10.19261 -10.19199 -10.19198 -10.19187
 Alpha  occ. eigenvalues --  -10.19110 -10.19086 -10.18947 -10.18758 -10.18546
 Alpha  occ. eigenvalues --  -10.18527 -10.18467 -10.18217 -10.18143 -10.18053
 Alpha  occ. eigenvalues --  -10.18045 -10.17550 -10.17490 -10.16738  -1.10607
 Alpha  occ. eigenvalues --   -1.08590  -1.02444  -1.00188  -0.98949  -0.98189
 Alpha  occ. eigenvalues --   -0.97243  -0.95088  -0.93632  -0.86201  -0.82533
 Alpha  occ. eigenvalues --   -0.81793  -0.81216  -0.80790  -0.80765  -0.80268
 Alpha  occ. eigenvalues --   -0.79855  -0.79481  -0.79134  -0.78577  -0.77816
 Alpha  occ. eigenvalues --   -0.76816  -0.76347  -0.76043  -0.74853  -0.74413
 Alpha  occ. eigenvalues --   -0.74191  -0.73195  -0.72631  -0.70784  -0.70689
 Alpha  occ. eigenvalues --   -0.70056  -0.69386  -0.68427  -0.67795  -0.67597
 Alpha  occ. eigenvalues --   -0.66992  -0.66492  -0.66270  -0.65553  -0.65010
 Alpha  occ. eigenvalues --   -0.64125  -0.62707  -0.62361  -0.61673  -0.61319
 Alpha  occ. eigenvalues --   -0.61005  -0.58938  -0.58690  -0.58007  -0.57620
 Alpha  occ. eigenvalues --   -0.57190  -0.56228  -0.55650  -0.55273  -0.55104
 Alpha  occ. eigenvalues --   -0.54857  -0.54400  -0.53654  -0.53230  -0.52530
 Alpha  occ. eigenvalues --   -0.52446  -0.52340  -0.51169  -0.50688  -0.50008
 Alpha  occ. eigenvalues --   -0.49480  -0.49340  -0.48494  -0.48434  -0.48410
 Alpha  occ. eigenvalues --   -0.47985  -0.47574  -0.47473  -0.47280  -0.47130
 Alpha  occ. eigenvalues --   -0.46911  -0.46677  -0.46289  -0.45994  -0.45923
 Alpha  occ. eigenvalues --   -0.45791  -0.45643  -0.45439  -0.44911  -0.44688
 Alpha  occ. eigenvalues --   -0.44555  -0.44320  -0.44200  -0.44060  -0.43886
 Alpha  occ. eigenvalues --   -0.43447  -0.43195  -0.42984  -0.42907  -0.42702
 Alpha  occ. eigenvalues --   -0.42485  -0.42172  -0.41742  -0.41474  -0.41362
 Alpha  occ. eigenvalues --   -0.41216  -0.40810  -0.40752  -0.40612  -0.40411
 Alpha  occ. eigenvalues --   -0.40263  -0.40026  -0.39929  -0.39272  -0.39220
 Alpha  occ. eigenvalues --   -0.39057  -0.38935  -0.38586  -0.38470  -0.38296
 Alpha  occ. eigenvalues --   -0.38056  -0.37945  -0.37818  -0.37503  -0.37352
 Alpha  occ. eigenvalues --   -0.37260  -0.37161  -0.36961  -0.36821  -0.36680
 Alpha  occ. eigenvalues --   -0.36504  -0.36378  -0.36265  -0.36103  -0.35542
 Alpha  occ. eigenvalues --   -0.35536  -0.35255  -0.35090  -0.34945  -0.34671
 Alpha  occ. eigenvalues --   -0.34496  -0.34482  -0.34355  -0.33983  -0.33793
 Alpha  occ. eigenvalues --   -0.33318  -0.32836  -0.32662  -0.32420  -0.32211
 Alpha  occ. eigenvalues --   -0.32123  -0.32040  -0.31907  -0.31432  -0.31359
 Alpha  occ. eigenvalues --   -0.31303  -0.31031  -0.30932  -0.30745  -0.30599
 Alpha  occ. eigenvalues --   -0.30396  -0.29847  -0.28607  -0.27866  -0.27759
 Alpha  occ. eigenvalues --   -0.27585  -0.26807  -0.26256  -0.26124  -0.25408
 Alpha  occ. eigenvalues --   -0.25051  -0.24313  -0.23474  -0.23273  -0.20006
 Alpha  occ. eigenvalues --   -0.19826
 Alpha virt. eigenvalues --   -0.11377  -0.08024  -0.04725  -0.01840  -0.01239
 Alpha virt. eigenvalues --   -0.00512   0.00108   0.00891   0.01808   0.02726
 Alpha virt. eigenvalues --    0.03036   0.03584   0.04252   0.04330   0.04508

 Mulliken charges:
               1
     1  C    0.069461
     2  C   -0.078119
     3  C    0.005004
     4  C   -0.099288
     5  N   -0.187414
     6  C   -0.047002
     7  C    0.023893
     8  C   -0.134439
     9  C    0.009602
    10  C    0.195846
    11  C    0.145761
    12  C    0.002154
    13  C    0.174573
    14  O   -0.227858
    15  O   -0.318773
    16  N   -0.182150
    17  C    0.119596
    18  C   -0.075766
    19  C    0.068800
    20  C    0.224078
    21  C   -0.015406
    22  C   -0.108526
    23  C   -0.052281
    24  N   -0.067267
    25  C   -0.074260
    26  C   -0.227695
    27  C   -0.063726
    28  C    0.039907
    29  C    0.160652
    30  C   -0.059720
    31  C    0.090934
    32  N   -0.099470
    33  C    0.128083
    34  C   -0.155064
    35  C   -0.017123
    36  C    0.087336
    37  C    0.074171
    38  C    0.018954
    39  O   -0.172267
    40  C   -0.027321
    41  C    0.213595
    42  O   -0.276426
    43  O   -0.258939
    44  C    0.135057
    45  C    0.205004
    46  C   -0.054961
    47  C   -0.157330
    48  C    0.109157
    49  C    0.017806
    50  C    0.042539
    51  C    0.054413
    52  C   -0.043762
    53  C   -0.014358
    54  C    0.015502
    55  C    0.042496
    56  C    0.127613
    57  C   -0.099426
    58  C   -0.116359
    59  C   -0.001336
    60  C   -0.063529
    61  C    0.104179
    62  C   -0.066650
    63  C   -0.044364
    64  C    0.016374
    65  H   -0.000781
    66  H   -0.134289
    67  H    0.004772
    68  H   -0.025022
    69  H    0.019723
    70  H    0.007859
    71  H   -0.034366
    72  H    0.004111
    73  H    0.041196
    74  H   -0.117745
    75  H    0.018309
    76  H    0.043362
    77  H    0.046452
    78  H    0.050000
    79  H    0.045633
    80  H    0.013441
    81  H    0.042727
    82  H    0.027690
    83  H    0.018169
    84  H    0.017629
    85  H    0.007362
    86  H    0.033131
    87  H    0.019229
    88  H    0.009843
    89  H   -0.046858
    90  H    0.028612
    91  H    0.009649
    92  H    0.060273
    93  H    0.044147
    94  H    0.059239
    95  H    0.036581
    96  H    0.039760
    97  H    0.029597
    98  H    0.039207
    99  H    0.037678
   100  H    0.008305
   101  H    0.033368
   102  H    0.020525
   103  H   -0.030805
   104  H   -0.004105
   105  H    0.017465
   106  H    0.023393
   107  H   -0.034076
   108  H   -0.030514
   109  H    0.007150
   110  H   -0.020730
   111  H   -0.000352
   112  H    0.017667
   113  H    0.004545
   114  H   -0.012502
   115  H    0.005285
   116  H    0.011967
   117  H   -0.008559
   118  H   -0.031230
   119  H   -0.038951
   120  H    0.000509
   121  H    0.046743
   122  H    0.052343
   123  H    0.034995
   124  H    0.014633
   125  H    0.005773
   126  H    0.013933
   127  H    0.018710
   128  H   -0.006975
   129  H   -0.039903
   130  H    0.001589
   131  H    0.011090
   132  H    0.004748
   133  H    0.031916
   134  H   -0.007443
   135  H    0.004896
   136  H    0.020437
   137  H    0.143485
   138  H    0.180192
 Sum of Mulliken charges =   0.00000

 Dipole moment (field-independent basis, Debye):
    X=              2.9082    Y=              5.1674    Z=             -0.4156  Tot=              5.9441
 Quadrupole moment (field-independent basis, Debye-Ang):
   XX=           -351.6283   YY=           -384.0962   ZZ=           -395.0050
   XY=            -22.1146   XZ=             11.9478   YZ=             -1.6953

 Normal termination of Gaussian 09 at Sat Aug  3 23:32:40 2019.
