 Gaussian 09, Revision D.01,
 Gaussian 09:  ES64L-G09RevD.01 24-Apr-2013

 --------------------------
 # td=(NStates=1) B3LYP/SVP
 --------------------------

 --
 TD
 --
 Symbolic Z-matrix:
 Charge =  0 Multiplicity = 1

                         Standard orientation:
 ---------------------------------------------------------------------
 Center     Atomic      Atomic             Coordinates (Angstroms)
 Number     Number       Type             X           Y           Z
 ---------------------------------------------------------------------
      1          6           0       -5.154056   -1.929204    0.393459
      2          6           0       -4.884966    2.704487    1.415392
      3          6           0       -9.358821    3.345783   -0.314262
      4          6           0       -9.824785   -1.506773   -0.925658
      5          7           0       -5.177531    0.380523    0.841628
      6          6           0       -4.500348   -0.816138    0.830325
      7          6           0       -3.063509   -0.567142    1.307954
      8          6           0       -2.984524    0.913368    1.860664
      9          6           0       -4.360637    1.420777    1.334960
     10          6           0       -2.804216    1.148377    3.340910
     11          6           0       -2.055777   -0.690712    0.185013
     12          6           0       -0.635748   -0.872862    0.756495
     13          6           0        0.382754   -1.017965   -0.453227
     14          8           0       -0.083613   -1.514177   -1.489501
     15          8           0        1.599102   -0.677180   -0.086015
     16          7           0       -7.179834    2.759160    0.488904
     17          6           0       -6.100149    3.370047    1.062400
     18          6           0       -6.326233    4.801656    1.038512
     19          6           0       -7.613581    4.996055    0.478758
     20          6           0       -8.172653    3.724085    0.220581
     21          6           0       -5.380635    5.831136    1.580029
     22          6           0       -8.298097    6.166821    0.351263
     23          6           0       -9.180348    6.536837   -0.671797
     24          7           0       -9.227976    0.919208   -0.503432
     25          6           0       -9.890464    2.024991   -0.541686
     26          6           0      -11.215382    1.768718   -1.041962
     27          6           0      -11.293210    0.453333   -1.176850
     28          6           0      -10.060816   -0.125735   -0.826638
     29          6           0      -12.330310    2.868597   -1.121517
     30          6           0      -12.584545   -0.304471   -1.664405
     31          6           0      -12.596739   -0.628499   -3.180078
     32          7           0       -7.389226   -1.281306   -0.254515
     33          6           0       -8.528908   -2.053990   -0.660560
     34          6           0       -8.107584   -3.478822   -0.660484
     35          6           0       -6.816111   -3.460784   -0.260254
     36          6           0       -6.394330   -2.127876    0.071237
     37          6           0       -9.026901   -4.551590   -0.921666
     38          6           0       -5.721721   -4.315847    0.010986
     39          8           0       -5.589718   -5.536028    0.008128
     40          6           0       -4.465828   -3.410037    0.498986
     41          6           0       -3.845414   -3.855760    1.753900
     42          8           0       -3.970026   -3.268304    2.810282
     43          8           0       -2.942236   -4.814865    1.616808
     44          6           0       -2.412576   -5.413651    2.756901
     45          6           0        2.639077   -0.994180   -1.046474
     46          6           0        3.990024   -0.575639   -0.604716
     47          6           0        4.948057    0.241811   -1.133468
     48          6           0        4.801205    0.792947   -2.476542
     49          6           0        6.239795    0.448890   -0.425388
     50          6           0        7.437649   -0.421570   -1.144559
     51          6           0        8.696448   -0.087799   -0.322801
     52          6           0        9.999667   -0.694574   -0.969795
     53          6           0        9.991226   -2.219307   -0.974172
     54          6           0       11.292518   -0.104697   -0.251983
     55          6           0       12.642142   -0.592394   -0.828934
     56          6           0       13.833655   -0.020996    0.065826
     57          6           0       15.256527   -0.292691   -0.448744
     58          6           0       15.629216   -1.719995   -0.662171
     59          6           0       16.300211    0.479535    0.398223
     60          6           0       17.727468    0.649989   -0.070209
     61          6           0       18.580784    1.571990    0.665617
     62          6           0       20.171927    1.566826    0.228455
     63          6           0       20.260342    2.307906   -1.059993
     64          6           0       20.946999    2.290450    1.406862
     65          1           0       -4.187462    3.419173    1.769185
     66          1           0      -10.049317    4.072295   -0.492041
     67          1           0      -10.647473   -2.248213   -0.853553
     68          1           0       -2.749460   -1.321727    2.027246
     69          1           0       -2.252330    1.372144    1.359945
     70          1           0       -1.870854    0.789347    3.855240
     71          1           0       -2.706332    2.191138    3.723801
     72          1           0       -3.542347    0.569751    4.058841
     73          1           0       -2.450467   -1.539661   -0.566571
     74          1           0       -2.041198    0.382373   -0.438769
     75          1           0       -0.093186    0.135162    1.045226
     76          1           0       -0.484819   -1.711953    1.398632
     77          1           0       -4.497475    5.967868    0.816072
     78          1           0       -5.687973    6.777739    1.203361
     79          1           0       -5.010539    5.720961    2.646310
     80          1           0       -7.980851    6.940531    1.027184
     81          1           0       -9.328109    5.949758   -1.368259
     82          1           0       -9.643135    7.530974   -0.699869
     83          1           0      -12.650800    3.384589   -0.174223
     84          1           0      -11.869983    3.714614   -1.732064
     85          1           0      -13.326864    2.460401   -1.567707
     86          1           0      -12.792481   -1.307785   -1.012824
     87          1           0      -13.571153    0.308008   -1.457382
     88          1           0      -12.131024    0.336750   -3.810895
     89          1           0      -11.814616   -1.279973   -3.476623
     90          1           0      -13.590456   -1.035075   -3.450314
     91          1           0       -9.418638   -4.790704    0.267763
     92          1           0      -10.060137   -4.238462   -1.631684
     93          1           0       -8.371951   -5.414763   -1.475666
     94          1           0       -3.643934   -3.635421   -0.161434
     95          1           0       -1.962044   -6.445880    2.511921
     96          1           0       -1.750989   -4.609341    3.329247
     97          1           0       -3.012391   -5.618205    3.678118
     98          1           0        2.567279   -2.040347   -0.969976
     99          1           0        2.320450   -0.591729   -2.063974
    100          1           0        4.117018   -1.052327    0.510066
    101          1           0        5.084544    1.907611   -2.565045
    102          1           0        5.334992    0.193240   -3.340736
    103          1           0        3.795547    0.813870   -3.163127
    104          1           0        6.672826    1.580715   -0.524021
    105          1           0        6.142764    0.062212    0.650142
    106          1           0        7.163282   -1.540655   -1.180090
    107          1           0        7.548479   -0.083097   -2.146152
    108          1           0        8.821750    1.054124   -0.229966
    109          1           0        9.002512   -0.248864    0.730282
    110          1           0       10.084152   -0.374759   -2.039858
    111          1           0        9.067780   -2.603850   -1.523931
    112          1           0       10.839882   -2.684158   -1.780225
    113          1           0       10.073162   -2.639374    0.059954
    114          1           0       11.197058    1.003095   -0.514114
    115          1           0       11.063631   -0.124835    0.908030
    116          1           0       12.678319   -1.724760   -0.915565
    117          1           0       12.581124   -0.206694   -1.699047
    118          1           0       13.731277    1.011018    0.143327
    119          1           0       13.848985   -0.290119    1.070264
    120          1           0       15.102629    0.181341   -1.596024
    121          1           0       15.010677   -2.178187   -1.435221
    122          1           0       16.651269   -1.901450   -1.136160
    123          1           0       15.628852   -2.214427    0.360954
    124          1           0       16.228366    1.501538    0.636356
    125          1           0       16.317432    0.078485    1.298903
    126          1           0       18.014759   -0.363594   -0.200379
    127          1           0       17.646457    1.082785   -1.221422
    128          1           0       18.262324    2.455740    0.499221
    129          1           0       18.582875    1.238249    1.783529
    130          1           0       20.343654    0.551747    0.177291
    131          1           0       19.806330    3.403979   -0.803973
    132          1           0       21.401473    2.662846   -1.391331
    133          1           0       19.833844    1.754703   -1.854239
    134          1           0       20.826930    1.719428    2.394616
    135          1           0       21.962557    2.517745    1.295708
    136          1           0       20.611948    3.249254    1.570626
    137          1           0       -7.123294    1.806236    0.389260
    138          1           0       -7.607808   -0.194090   -0.454180
 ---------------------------------------------------------------------

 SCF Done:  E(RB3LYP) =  -2732.99137955     A.U. after   17 cycles

 Excitation energies and oscillator strengths:

 Excited State   1:      Singlet-A      2.0569 eV  602.76 nm  f=0.1758  <S**2>=0.000
     235 -> 237       -0.17006
     235 -> 238        0.29133
     236 -> 237        0.60322
     236 -> 238        0.14069
 This state for optimization and/or second-order correction.
 Total Energy, E(TD-HF/TD-KS) =  -2732.91578806
 Copying the excited state density for this state as the 1-particle RhoCI density.

 The electronic state is 1-A.
 Alpha  occ. eigenvalues --  -19.19285 -19.18179 -19.11710 -19.11566 -19.11158
 Alpha  occ. eigenvalues --  -14.36697 -14.36048 -14.31678 -14.29484 -10.31324
 Alpha  occ. eigenvalues --  -10.30911 -10.27418 -10.25477 -10.25414 -10.23893
 Alpha  occ. eigenvalues --  -10.23594 -10.23461 -10.23266 -10.23038 -10.22965
 Alpha  occ. eigenvalues --  -10.22561 -10.21812 -10.21789 -10.21756 -10.21737
 Alpha  occ. eigenvalues --  -10.20946 -10.20874 -10.20806 -10.20779 -10.20740
 Alpha  occ. eigenvalues --  -10.20735 -10.20735 -10.20718 -10.20688 -10.20589
 Alpha  occ. eigenvalues --  -10.20266 -10.20199 -10.20050 -10.19980 -10.19959
 Alpha  occ. eigenvalues --  -10.19884 -10.19801 -10.19540 -10.19494 -10.19484
 Alpha  occ. eigenvalues --  -10.19477 -10.19456 -10.19401 -10.19377 -10.19021
 Alpha  occ. eigenvalues --  -10.19020 -10.18952 -10.18913 -10.18848 -10.18834
 Alpha  occ. eigenvalues --  -10.18429 -10.17949 -10.17756 -10.17436 -10.17323
 Alpha  occ. eigenvalues --  -10.17232 -10.17200 -10.17151 -10.16151  -1.10805
 Alpha  occ. eigenvalues --   -1.10378  -1.01498  -0.99988  -0.99795  -0.97860
 Alpha  occ. eigenvalues --   -0.97189  -0.95214  -0.92049  -0.84394  -0.83362
 Alpha  occ. eigenvalues --   -0.83070  -0.82372  -0.81500  -0.80931  -0.80633
 Alpha  occ. eigenvalues --   -0.80161  -0.79661  -0.78807  -0.77850  -0.77645
 Alpha  occ. eigenvalues --   -0.76989  -0.76314  -0.76083  -0.75052  -0.74466
 Alpha  occ. eigenvalues --   -0.73693  -0.73092  -0.72398  -0.71976  -0.71374
 Alpha  occ. eigenvalues --   -0.69938  -0.69134  -0.68335  -0.68131  -0.67665
 Alpha  occ. eigenvalues --   -0.67387  -0.66890  -0.66751  -0.65678  -0.65274
 Alpha  occ. eigenvalues --   -0.64719  -0.64213  -0.62640  -0.62469  -0.60885
 Alpha  occ. eigenvalues --   -0.60126  -0.59159  -0.58689  -0.58290  -0.57955
 Alpha  occ. eigenvalues --   -0.57562  -0.56895  -0.56618  -0.56075  -0.55847
 Alpha  occ. eigenvalues --   -0.55366  -0.55158  -0.54246  -0.53647  -0.53277
 Alpha  occ. eigenvalues --   -0.52360  -0.51983  -0.51283  -0.51053  -0.50308
 Alpha  occ. eigenvalues --   -0.50068  -0.49067  -0.48984  -0.48637  -0.48471
 Alpha  occ. eigenvalues --   -0.47827  -0.47583  -0.47562  -0.47284  -0.47018
 Alpha  occ. eigenvalues --   -0.46858  -0.46595  -0.46311  -0.46056  -0.45604
 Alpha  occ. eigenvalues --   -0.45548  -0.45411  -0.45215  -0.45073  -0.44755
 Alpha  occ. eigenvalues --   -0.44298  -0.44043  -0.43908  -0.43730  -0.43338
 Alpha  occ. eigenvalues --   -0.43162  -0.42872  -0.42564  -0.42423  -0.42195
 Alpha  occ. eigenvalues --   -0.42065  -0.41924  -0.41832  -0.41680  -0.41443
 Alpha  occ. eigenvalues --   -0.41228  -0.41020  -0.40791  -0.40471  -0.40105
 Alpha  occ. eigenvalues --   -0.39808  -0.39614  -0.39516  -0.39479  -0.39277
 Alpha  occ. eigenvalues --   -0.39206  -0.38911  -0.38762  -0.38612  -0.38487
 Alpha  occ. eigenvalues --   -0.38157  -0.37951  -0.37672  -0.37532  -0.37439
 Alpha  occ. eigenvalues --   -0.37233  -0.36743  -0.36490  -0.36375  -0.36301
 Alpha  occ. eigenvalues --   -0.36030  -0.35950  -0.35786  -0.35756  -0.35548
 Alpha  occ. eigenvalues --   -0.35491  -0.35184  -0.35046  -0.34944  -0.34909
 Alpha  occ. eigenvalues --   -0.34754  -0.34473  -0.34247  -0.34121  -0.33995
 Alpha  occ. eigenvalues --   -0.33857  -0.33434  -0.33426  -0.33317  -0.32785
 Alpha  occ. eigenvalues --   -0.32338  -0.31759  -0.31483  -0.31357  -0.31171
 Alpha  occ. eigenvalues --   -0.31021  -0.30777  -0.30561  -0.30208  -0.29605
 Alpha  occ. eigenvalues --   -0.29408  -0.29359  -0.28006  -0.27695  -0.26942
 Alpha  occ. eigenvalues --   -0.26732  -0.26538  -0.26319  -0.25924  -0.25602
 Alpha  occ. eigenvalues --   -0.24678  -0.24132  -0.23392  -0.22891  -0.20071
 Alpha  occ. eigenvalues --   -0.18759
 Alpha virt. eigenvalues --   -0.10161  -0.08157  -0.04557  -0.02343  -0.02296
 Alpha virt. eigenvalues --   -0.00223   0.00564   0.00741   0.02184   0.03189
 Alpha virt. eigenvalues --    0.03395   0.04252   0.04464   0.04818   0.04890

 Mulliken charges:
               1
     1  C    0.056160
     2  C    0.001398
     3  C   -0.044601
     4  C   -0.096939
     5  N   -0.236142
     6  C   -0.046674
     7  C    0.007296
     8  C    0.156544
     9  C   -0.042685
    10  C    0.013638
    11  C   -0.060792
    12  C    0.025020
    13  C    0.160905
    14  O   -0.266779
    15  O   -0.290808
    16  N   -0.031345
    17  C    0.051645
    18  C   -0.145388
    19  C    0.125469
    20  C    0.155742
    21  C    0.117398
    22  C   -0.146242
    23  C    0.084617
    24  N   -0.195195
    25  C   -0.000547
    26  C   -0.107559
    27  C   -0.070025
    28  C    0.077459
    29  C    0.031038
    30  C   -0.019295
    31  C    0.002511
    32  N   -0.123168
    33  C    0.032687
    34  C   -0.097681
    35  C    0.080475
    36  C    0.109111
    37  C   -0.087383
    38  C    0.029177
    39  O   -0.183150
    40  C   -0.049144
    41  C    0.179672
    42  O   -0.244416
    43  O   -0.251239
    44  C    0.136566
    45  C    0.313155
    46  C   -0.156154
    47  C   -0.021725
    48  C   -0.067436
    49  C    0.005225
    50  C    0.044073
    51  C    0.016985
    52  C   -0.092304
    53  C   -0.021904
    54  C   -0.066696
    55  C    0.151304
    56  C    0.103952
    57  C   -0.102171
    58  C    0.037721
    59  C    0.111338
    60  C   -0.004805
    61  C    0.068920
    62  C   -0.043737
    63  C   -0.014731
    64  C    0.076896
    65  H   -0.061801
    66  H   -0.085493
    67  H    0.015870
    68  H    0.002484
    69  H   -0.052027
    70  H    0.002543
    71  H    0.009772
    72  H    0.034258
    73  H    0.058456
    74  H    0.018753
    75  H    0.042005
    76  H    0.035606
    77  H    0.016637
    78  H   -0.015644
    79  H    0.066834
    80  H   -0.010139
    81  H   -0.056563
    82  H    0.030699
    83  H    0.032949
    84  H    0.026779
    85  H    0.027257
    86  H    0.013684
    87  H    0.014947
    88  H    0.023965
    89  H   -0.003677
    90  H    0.028082
    91  H    0.085246
    92  H    0.064566
    93  H    0.082793
    94  H    0.036681
    95  H    0.056132
    96  H    0.023168
    97  H    0.025933
    98  H   -0.006021
    99  H    0.034180
   100  H    0.015470
   101  H    0.034661
   102  H    0.047154
   103  H    0.030823
   104  H    0.032243
   105  H    0.029367
   106  H    0.032562
   107  H    0.001012
   108  H   -0.014030
   109  H   -0.011768
   110  H   -0.017184
   111  H    0.012501
   112  H    0.025384
   113  H    0.023054
   114  H   -0.000936
   115  H    0.005533
   116  H    0.019753
   117  H   -0.064768
   118  H   -0.035063
   119  H   -0.040259
   120  H   -0.014952
   121  H    0.009164
   122  H    0.015959
   123  H    0.009754
   124  H   -0.043070
   125  H   -0.062599
   126  H   -0.030093
   127  H   -0.007203
   128  H   -0.060960
   129  H    0.003256
   130  H   -0.025515
   131  H    0.018965
   132  H    0.018756
   133  H    0.021243
   134  H    0.010757
   135  H   -0.015784
   136  H   -0.027262
   137  H    0.093094
   138  H    0.206828
 Sum of Mulliken charges =   0.00000

 Dipole moment (field-independent basis, Debye):
    X=              4.1752    Y=              4.4690    Z=              0.2344  Tot=              6.1204
 Quadrupole moment (field-independent basis, Debye-Ang):
   XX=           -367.9943   YY=           -379.7306   ZZ=           -393.2929
   XY=            -18.9479   XZ=              5.8812   YZ=             -1.2862

 Normal termination of Gaussian 09 at Sun Aug  4 03:23:11 2019.
