 Gaussian 09, Revision D.01,
 Gaussian 09:  ES64L-G09RevD.01 24-Apr-2013

 --------------------------
 # td=(NStates=1) B3LYP/SVP
 --------------------------

 --
 TD
 --
 Symbolic Z-matrix:
 Charge =  0 Multiplicity = 1

                         Standard orientation:
 ---------------------------------------------------------------------
 Center     Atomic      Atomic             Coordinates (Angstroms)
 Number     Number       Type             X           Y           Z
 ---------------------------------------------------------------------
      1          6           0       -5.093597   -1.886899    0.264782
      2          6           0       -4.761618    2.824834    1.329082
      3          6           0       -9.332313    3.265690   -0.171785
      4          6           0       -9.853012   -1.577793   -0.803301
      5          7           0       -5.191324    0.499075    0.657557
      6          6           0       -4.533626   -0.670100    0.672701
      7          6           0       -3.127197   -0.533690    1.111815
      8          6           0       -3.031594    0.865338    1.654526
      9          6           0       -4.443460    1.411542    1.195991
     10          6           0       -2.914044    1.139198    3.092120
     11          6           0       -2.028108   -0.961774    0.076023
     12          6           0       -0.591723   -0.713096    0.671406
     13          6           0        0.440434   -1.167177   -0.446300
     14          8           0        0.088571   -1.568706   -1.537654
     15          8           0        1.667927   -0.775554   -0.170033
     16          7           0       -6.963007    2.766827    0.368800
     17          6           0       -5.869320    3.488149    0.809143
     18          6           0       -6.258845    4.939795    0.860746
     19          6           0       -7.587912    4.929191    0.471749
     20          6           0       -8.068375    3.636830    0.116375
     21          6           0       -5.299868    6.076416    1.217413
     22          6           0       -8.245544    6.231624    0.215050
     23          6           0       -9.191657    6.487700   -0.785929
     24          7           0       -9.167174    0.932279   -0.358457
     25          6           0       -9.907355    2.041751   -0.409275
     26          6           0      -11.318588    1.774135   -0.687849
     27          6           0      -11.496008    0.454734   -0.897411
     28          6           0      -10.175282   -0.117015   -0.541249
     29          6           0      -12.381206    2.885307   -0.864123
     30          6           0      -12.653763   -0.306716   -1.359435
     31          6           0      -12.842844   -0.358291   -2.859151
     32          7           0       -7.532615   -1.301948   -0.295662
     33          6           0       -8.605555   -2.138123   -0.499343
     34          6           0       -8.238512   -3.470430   -0.605000
     35          6           0       -6.888799   -3.414320   -0.203727
     36          6           0       -6.437128   -2.011765   -0.085944
     37          6           0       -8.987614   -4.712322   -0.718346
     38          6           0       -5.751844   -4.258343    0.057664
     39          8           0       -5.584248   -5.472203   -0.016626
     40          6           0       -4.501377   -3.265595    0.340498
     41          6           0       -3.916608   -3.740275    1.625852
     42          8           0       -4.205721   -3.423992    2.742283
     43          8           0       -2.835416   -4.600829    1.464777
     44          6           0       -2.460443   -5.378966    2.583977
     45          6           0        2.748101   -1.183269   -1.184637
     46          6           0        4.023335   -0.920968   -0.605362
     47          6           0        4.975860   -0.052564   -0.988625
     48          6           0        4.798009    0.698119   -2.399707
     49          6           0        6.297665    0.182731   -0.236625
     50          6           0        7.512209   -0.280718   -1.118930
     51          6           0        8.851173   -0.242346   -0.250313
     52          6           0       10.104908   -0.754451   -0.997404
     53          6           0       10.011509   -2.263643   -1.165211
     54          6           0       11.265832   -0.381053   -0.117321
     55          6           0       12.695041   -0.587837   -0.742353
     56          6           0       13.822329    0.072678    0.217804
     57          6           0       15.159019   -0.142369   -0.400596
     58          6           0       15.494928   -1.640046   -0.527424
     59          6           0       16.314899    0.640007    0.476938
     60          6           0       17.708529    0.802710   -0.184812
     61          6           0       18.683867    1.525931    0.859884
     62          6           0       20.116717    1.595890    0.263159
     63          6           0       20.276991    2.338400   -1.055300
     64          6           0       21.084873    2.381928    1.438141
     65          1           0       -4.027956    3.553656    1.763924
     66          1           0       -9.981429    4.206448   -0.229024
     67          1           0      -10.581757   -2.151992   -1.097172
     68          1           0       -3.034796   -1.251056    2.108556
     69          1           0       -2.207569    1.534441    1.121703
     70          1           0       -2.062718    0.869820    3.653688
     71          1           0       -2.869439    2.283061    3.152076
     72          1           0       -3.956558    0.844056    3.562058
     73          1           0       -1.880603   -2.066294   -0.232204
     74          1           0       -2.110013   -0.239412   -0.617836
     75          1           0       -0.313725    0.312434    1.066684
     76          1           0       -0.423903   -1.391421    1.461863
     77          1           0       -4.508605    5.997440    0.457510
     78          1           0       -5.708321    7.121620    0.845952
     79          1           0       -4.822361    6.061857    2.116490
     80          1           0       -8.102522    7.128479    0.900149
     81          1           0       -9.493662    5.677233   -1.429058
     82          1           0       -9.645700    7.606553   -0.845218
     83          1           0      -12.034485    3.706321   -0.118129
     84          1           0      -12.142162    3.432322   -1.946787
     85          1           0      -13.414293    2.565209   -0.904028
     86          1           0      -12.681092   -1.324230   -1.096008
     87          1           0      -13.501846    0.231423   -0.704404
     88          1           0      -12.716040    0.642080   -3.280361
     89          1           0      -12.026279   -1.108436   -3.239616
     90          1           0      -13.593499   -1.024556   -3.082063
     91          1           0       -9.983463   -4.598549   -0.123595
     92          1           0       -9.599228   -4.723205   -1.717252
     93          1           0       -8.368869   -5.620234   -0.528732
     94          1           0       -3.828066   -3.430313   -0.346238
     95          1           0       -1.893973   -6.262759    2.269091
     96          1           0       -2.105827   -4.568962    3.256906
     97          1           0       -3.588307   -5.485315    3.169078
     98          1           0        2.237520   -2.254783   -1.469507
     99          1           0        2.583868   -0.597163   -2.174534
    100          1           0        4.362033   -1.401802    0.404258
    101          1           0        5.418756    1.757337   -2.190372
    102          1           0        5.654569    0.254412   -3.156334
    103          1           0        3.936424    0.762753   -3.108491
    104          1           0        6.611681    1.269336   -0.077778
    105          1           0        6.313382   -0.551140    0.668275
    106          1           0        7.430986   -1.548433   -1.496144
    107          1           0        7.648072    0.293817   -1.984273
    108          1           0        9.055690    0.825505   -0.016783
    109          1           0        8.686359   -0.817146    0.618433
    110          1           0       10.313717   -0.269010   -1.900764
    111          1           0        9.384273   -2.827682   -2.006020
    112          1           0       10.844144   -2.502387   -1.795796
    113          1           0        9.611117   -2.720455   -0.259633
    114          1           0       11.106062    0.552019   -0.185116
    115          1           0       11.381289   -0.964758    0.946951
    116          1           0       12.790036   -1.720793   -0.859790
    117          1           0       12.795339    0.109839   -1.730022
    118          1           0       13.572371    1.050779    0.341866
    119          1           0       13.561650   -0.481914    1.139227
    120          1           0       14.915090    0.287564   -1.362154
    121          1           0       15.035088   -2.008046   -1.376914
    122          1           0       16.406984   -1.632600   -0.820985
    123          1           0       15.393275   -2.334416    0.434512
    124          1           0       15.982492    1.756788    0.679334
    125          1           0       16.313027    0.195855    1.485999
    126          1           0       18.096072   -0.298585   -0.365047
    127          1           0       17.619826    1.596774   -1.076672
    128          1           0       18.278313    2.597515    1.098247
    129          1           0       18.838889    0.769793    1.739397
    130          1           0       20.676818    0.602689    0.368828
    131          1           0       19.905118    3.483895   -0.993628
    132          1           0       21.292641    2.429576   -1.371633
    133          1           0       19.551508    2.021186   -1.733960
    134          1           0       21.130757    1.765458    2.495770
    135          1           0       22.031204    2.546684    0.895979
    136          1           0       20.691205    3.343183    1.628963
    137          1           0       -6.967543    1.561172    0.634954
    138          1           0       -7.900024   -0.325960   -0.164582
 ---------------------------------------------------------------------

 SCF Done:  E(RB3LYP) =  -2732.95729018     A.U. after   17 cycles

 Excitation energies and oscillator strengths:

 Excited State   1:      Singlet-A      2.0773 eV  596.84 nm  f=0.1546  <S**2>=0.000
     235 -> 238        0.31860
     236 -> 237        0.62608
 This state for optimization and/or second-order correction.
 Total Energy, E(TD-HF/TD-KS) =  -2732.88094918
 Copying the excited state density for this state as the 1-particle RhoCI density.

 The electronic state is 1-A.
 Alpha  occ. eigenvalues --  -19.17121 -19.15571 -19.12082 -19.11688 -19.11621
 Alpha  occ. eigenvalues --  -14.36635 -14.36422 -14.32875 -14.30984 -10.30797
 Alpha  occ. eigenvalues --  -10.30688 -10.27373 -10.26267 -10.24292 -10.23910
 Alpha  occ. eigenvalues --  -10.23738 -10.23726 -10.23392 -10.23027 -10.22482
 Alpha  occ. eigenvalues --  -10.22451 -10.22383 -10.22362 -10.21857 -10.21525
 Alpha  occ. eigenvalues --  -10.21410 -10.21260 -10.21018 -10.20991 -10.20872
 Alpha  occ. eigenvalues --  -10.20781 -10.20753 -10.20753 -10.20677 -10.20562
 Alpha  occ. eigenvalues --  -10.20476 -10.20383 -10.20357 -10.20108 -10.20098
 Alpha  occ. eigenvalues --  -10.19974 -10.19968 -10.19873 -10.19688 -10.19594
 Alpha  occ. eigenvalues --  -10.19593 -10.19534 -10.19483 -10.19406 -10.19281
 Alpha  occ. eigenvalues --  -10.19186 -10.18816 -10.18771 -10.18694 -10.18632
 Alpha  occ. eigenvalues --  -10.18603 -10.18590 -10.18577 -10.18311 -10.18237
 Alpha  occ. eigenvalues --  -10.18197 -10.17611 -10.17092 -10.16458  -1.08511
 Alpha  occ. eigenvalues --   -1.08472  -1.01453  -0.99675  -0.99361  -0.99301
 Alpha  occ. eigenvalues --   -0.97000  -0.95472  -0.92628  -0.84962  -0.83024
 Alpha  occ. eigenvalues --   -0.81921  -0.81731  -0.81418  -0.81073  -0.80858
 Alpha  occ. eigenvalues --   -0.80571  -0.79561  -0.78767  -0.78570  -0.77408
 Alpha  occ. eigenvalues --   -0.76748  -0.75505  -0.75134  -0.74701  -0.74069
 Alpha  occ. eigenvalues --   -0.73039  -0.72956  -0.72404  -0.71275  -0.70548
 Alpha  occ. eigenvalues --   -0.70026  -0.69225  -0.68569  -0.68323  -0.67274
 Alpha  occ. eigenvalues --   -0.66939  -0.66914  -0.65812  -0.65411  -0.65139
 Alpha  occ. eigenvalues --   -0.64408  -0.62723  -0.62535  -0.62355  -0.61093
 Alpha  occ. eigenvalues --   -0.60348  -0.58313  -0.58094  -0.57872  -0.56886
 Alpha  occ. eigenvalues --   -0.56787  -0.55487  -0.55265  -0.54898  -0.54761
 Alpha  occ. eigenvalues --   -0.54494  -0.53600  -0.53587  -0.53031  -0.52506
 Alpha  occ. eigenvalues --   -0.52137  -0.51830  -0.51439  -0.51089  -0.50595
 Alpha  occ. eigenvalues --   -0.49923  -0.49761  -0.49547  -0.48657  -0.48215
 Alpha  occ. eigenvalues --   -0.47777  -0.47615  -0.47497  -0.47169  -0.46897
 Alpha  occ. eigenvalues --   -0.46674  -0.46530  -0.46294  -0.45882  -0.45728
 Alpha  occ. eigenvalues --   -0.45495  -0.45310  -0.45154  -0.45064  -0.44781
 Alpha  occ. eigenvalues --   -0.44539  -0.43947  -0.43786  -0.43673  -0.43648
 Alpha  occ. eigenvalues --   -0.43458  -0.43347  -0.43325  -0.42726  -0.42450
 Alpha  occ. eigenvalues --   -0.42279  -0.42014  -0.41834  -0.41414  -0.41249
 Alpha  occ. eigenvalues --   -0.41092  -0.40803  -0.40698  -0.40635  -0.40062
 Alpha  occ. eigenvalues --   -0.39938  -0.39832  -0.39777  -0.39553  -0.39333
 Alpha  occ. eigenvalues --   -0.39086  -0.38648  -0.38431  -0.38378  -0.38066
 Alpha  occ. eigenvalues --   -0.37982  -0.37711  -0.37659  -0.37563  -0.37467
 Alpha  occ. eigenvalues --   -0.37176  -0.37045  -0.37007  -0.36791  -0.36668
 Alpha  occ. eigenvalues --   -0.36485  -0.36265  -0.36113  -0.36018  -0.35797
 Alpha  occ. eigenvalues --   -0.35427  -0.35249  -0.34889  -0.34732  -0.34683
 Alpha  occ. eigenvalues --   -0.34616  -0.34524  -0.34125  -0.33475  -0.33320
 Alpha  occ. eigenvalues --   -0.33181  -0.33123  -0.32954  -0.32797  -0.32638
 Alpha  occ. eigenvalues --   -0.32335  -0.31778  -0.31772  -0.31455  -0.31407
 Alpha  occ. eigenvalues --   -0.31133  -0.30596  -0.30261  -0.30005  -0.29474
 Alpha  occ. eigenvalues --   -0.28557  -0.28492  -0.28094  -0.27938  -0.27750
 Alpha  occ. eigenvalues --   -0.27311  -0.27271  -0.26883  -0.25932  -0.25838
 Alpha  occ. eigenvalues --   -0.24941  -0.24427  -0.23752  -0.22833  -0.19957
 Alpha  occ. eigenvalues --   -0.18848
 Alpha virt. eigenvalues --   -0.09995  -0.07932  -0.04617  -0.01997  -0.01914
 Alpha virt. eigenvalues --    0.00211   0.00466   0.01019   0.02215   0.03251
 Alpha virt. eigenvalues --    0.03595   0.03914   0.04169   0.04497   0.04742

 Mulliken charges:
               1
     1  C   -0.006715
     2  C   -0.071052
     3  C   -0.107669
     4  C    0.029283
     5  N   -0.113796
     6  C   -0.069000
     7  C   -0.052223
     8  C   -0.094718
     9  C   -0.023219
    10  C    0.072638
    11  C    0.129159
    12  C   -0.005760
    13  C    0.165173
    14  O   -0.258991
    15  O   -0.311925
    16  N   -0.220574
    17  C    0.071055
    18  C   -0.115091
    19  C    0.043358
    20  C    0.114272
    21  C    0.125112
    22  C   -0.095897
    23  C   -0.067060
    24  N   -0.281652
    25  C    0.090844
    26  C   -0.127170
    27  C   -0.080079
    28  C    0.043094
    29  C    0.039007
    30  C    0.027639
    31  C    0.076641
    32  N   -0.000044
    33  C    0.051292
    34  C   -0.099915
    35  C   -0.020676
    36  C    0.077371
    37  C    0.069889
    38  C    0.024294
    39  O   -0.192154
    40  C    0.114809
    41  C    0.173165
    42  O   -0.212985
    43  O   -0.339080
    44  C    0.143623
    45  C    0.190704
    46  C   -0.043944
    47  C   -0.086481
    48  C   -0.065693
    49  C    0.073667
    50  C   -0.073984
    51  C    0.042392
    52  C   -0.019572
    53  C    0.023594
    54  C    0.104901
    55  C   -0.112442
    56  C    0.091577
    57  C   -0.051101
    58  C    0.169997
    59  C   -0.002347
    60  C   -0.024329
    61  C   -0.010250
    62  C   -0.133558
    63  C    0.059430
    64  C   -0.024494
    65  H   -0.017230
    66  H   -0.013751
    67  H   -0.107626
    68  H    0.046253
    69  H    0.020877
    70  H    0.008328
    71  H    0.004483
    72  H    0.037967
    73  H    0.063796
    74  H   -0.022048
    75  H    0.040840
    76  H    0.004770
    77  H    0.018295
    78  H    0.030262
    79  H    0.017515
    80  H    0.029570
    81  H    0.030500
    82  H    0.052557
    83  H    0.043603
    84  H    0.032678
    85  H    0.022543
    86  H   -0.025374
    87  H    0.023052
    88  H    0.034233
    89  H   -0.003329
    90  H   -0.012825
    91  H    0.026406
    92  H    0.020582
    93  H    0.069104
    94  H   -0.028292
    95  H    0.059487
    96  H    0.019849
    97  H    0.042894
    98  H    0.063009
    99  H    0.035411
   100  H    0.000622
   101  H    0.023942
   102  H    0.042052
   103  H    0.057931
   104  H    0.030752
   105  H    0.027161
   106  H    0.023231
   107  H   -0.004474
   108  H   -0.011667
   109  H   -0.016967
   110  H   -0.040969
   111  H    0.000081
   112  H   -0.001444
   113  H    0.015311
   114  H   -0.078006
   115  H    0.020020
   116  H    0.034428
   117  H    0.000892
   118  H   -0.039296
   119  H   -0.020608
   120  H   -0.026117
   121  H   -0.021713
   122  H   -0.084708
   123  H    0.027558
   124  H   -0.009391
   125  H   -0.002041
   126  H    0.029007
   127  H    0.031323
   128  H    0.023078
   129  H    0.014163
   130  H    0.019007
   131  H   -0.002355
   132  H    0.013745
   133  H   -0.001721
   134  H    0.031058
   135  H    0.007823
   136  H   -0.005257
   137  H    0.251089
   138  H    0.151732
 Sum of Mulliken charges =   0.00000

 Dipole moment (field-independent basis, Debye):
    X=              3.0609    Y=              4.9833    Z=             -0.3151  Tot=              5.8568
 Quadrupole moment (field-independent basis, Debye-Ang):
   XX=           -335.7376   YY=           -385.5044   ZZ=           -398.8641
   XY=            -16.3438   XZ=              1.7672   YZ=              1.4337

 Normal termination of Gaussian 09 at Fri Aug  2 04:21:35 2019.
