 Gaussian 09, Revision D.01,
 Gaussian 09:  ES64L-G09RevD.01 24-Apr-2013

 --------------------------
 # td=(NStates=1) B3LYP/SVP
 --------------------------

 --
 TD
 --
 Symbolic Z-matrix:
 Charge =  0 Multiplicity = 1

                         Standard orientation:
 ---------------------------------------------------------------------
 Center     Atomic      Atomic             Coordinates (Angstroms)
 Number     Number       Type             X           Y           Z
 ---------------------------------------------------------------------
      1          6           0       -5.125134   -1.908339    0.362369
      2          6           0       -4.723647    2.676848    1.480364
      3          6           0       -9.252403    3.432006   -0.209979
      4          6           0       -9.808747   -1.398793   -0.961122
      5          7           0       -5.239029    0.424863    0.831020
      6          6           0       -4.493721   -0.715786    0.805773
      7          6           0       -3.104863   -0.654076    1.292621
      8          6           0       -3.114672    0.859503    1.845638
      9          6           0       -4.446192    1.379545    1.252629
     10          6           0       -3.126334    0.843783    3.349675
     11          6           0       -1.988253   -0.800689    0.122916
     12          6           0       -0.611525   -0.893954    0.521025
     13          6           0        0.369402   -1.269218   -0.562540
     14          8           0       -0.000062   -1.807820   -1.577101
     15          8           0        1.596627   -0.949942   -0.171488
     16          7           0       -6.994885    2.844908    0.521610
     17          6           0       -5.902736    3.390219    1.022495
     18          6           0       -6.160484    4.796719    1.007525
     19          6           0       -7.376107    5.111858    0.436567
     20          6           0       -7.956377    3.759625    0.060484
     21          6           0       -5.206816    5.865769    1.580161
     22          6           0       -8.050689    6.335328    0.223796
     23          6           0       -8.876411    6.743706   -0.681420
     24          7           0       -9.140920    0.903414   -0.504364
     25          6           0       -9.831963    2.191726   -0.488645
     26          6           0      -11.156266    2.039364   -0.964130
     27          6           0      -11.320509    0.648414   -1.244317
     28          6           0      -10.096037    0.005675   -0.821106
     29          6           0      -12.182082    3.150011   -1.013850
     30          6           0      -12.453263   -0.036132   -1.789405
     31          6           0      -12.331908   -0.574395   -3.256283
     32          7           0       -7.527917   -1.272559   -0.209399
     33          6           0       -8.648002   -2.074301   -0.555637
     34          6           0       -8.183935   -3.386263   -0.656530
     35          6           0       -6.818901   -3.382466   -0.187084
     36          6           0       -6.459678   -2.083865    0.093814
     37          6           0       -9.020717   -4.538271   -1.019701
     38          6           0       -5.688895   -4.296255    0.118450
     39          8           0       -5.716753   -5.483667    0.096793
     40          6           0       -4.532812   -3.386853    0.489762
     41          6           0       -3.909065   -3.771630    1.765937
     42          8           0       -4.199075   -3.420275    2.948251
     43          8           0       -3.027271   -4.743929    1.576651
     44          6           0       -2.557043   -5.438971    2.713654
     45          6           0        2.683890   -1.268721   -1.139920
     46          6           0        4.024010   -0.927967   -0.567784
     47          6           0        4.962347   -0.170887   -1.139434
     48          6           0        4.848649    0.635427   -2.402967
     49          6           0        6.177525    0.081049   -0.356892
     50          6           0        7.462125   -0.491337   -1.069544
     51          6           0        8.692814   -0.340901   -0.119013
     52          6           0       10.017946   -0.660679   -0.885292
     53          6           0       10.128690   -2.236328   -1.245344
     54          6           0       11.231042   -0.324616   -0.015354
     55          6           0       12.590214   -0.561947   -0.689973
     56          6           0       13.704074    0.018080    0.143117
     57          6           0       15.203564   -0.137878   -0.403657
     58          6           0       15.570260   -1.607726   -0.572982
     59          6           0       16.175789    0.627330    0.511133
     60          6           0       17.629914    0.680314   -0.155595
     61          6           0       18.417818    1.667804    0.649918
     62          6           0       20.059023    1.867125    0.284645
     63          6           0       20.215329    2.290939   -1.141624
     64          6           0       20.741596    2.730757    1.271870
     65          1           0       -3.983653    3.363699    1.826328
     66          1           0       -9.908914    4.150357   -0.240217
     67          1           0      -10.714370   -1.869296   -1.401928
     68          1           0       -2.947495   -1.227061    2.262273
     69          1           0       -2.186029    1.240030    1.603672
     70          1           0       -2.156524    0.348327    3.640312
     71          1           0       -3.118892    1.936530    3.802623
     72          1           0       -3.975798    0.173213    3.899397
     73          1           0       -2.445576   -1.780615   -0.315810
     74          1           0       -2.213239   -0.132754   -0.613320
     75          1           0       -0.446901    0.281203    0.972595
     76          1           0       -0.521591   -1.275779    1.628393
     77          1           0       -4.335941    5.847651    1.032229
     78          1           0       -5.720161    6.815395    1.657786
     79          1           0       -4.980873    5.426289    2.573870
     80          1           0       -7.803028    7.023952    1.088126
     81          1           0       -9.321440    6.040996   -1.572175
     82          1           0       -9.280271    7.804378   -0.542434
     83          1           0      -12.359901    3.893509   -0.128289
     84          1           0      -11.820609    3.806049   -1.911010
     85          1           0      -13.150251    2.564654   -1.173295
     86          1           0      -12.915801   -0.923989   -1.046469
     87          1           0      -13.337591    0.679055   -2.012929
     88          1           0      -12.084100    0.444654   -3.735582
     89          1           0      -11.628165   -1.445897   -3.660853
     90          1           0      -13.185720   -1.052818   -3.513040
     91          1           0      -10.155393   -4.702916   -0.347272
     92          1           0       -9.174616   -4.353299   -2.208628
     93          1           0       -8.341130   -5.483718   -1.043868
     94          1           0       -3.794472   -3.406135   -0.208006
     95          1           0       -1.752199   -6.136392    2.499724
     96          1           0       -2.373815   -4.711211    3.450087
     97          1           0       -3.520924   -6.102560    3.040237
     98          1           0        2.656246   -2.366639   -1.243142
     99          1           0        2.179922   -0.598582   -1.965397
    100          1           0        4.227979   -1.417845    0.448622
    101          1           0        5.443207    1.679460   -2.102588
    102          1           0        5.499741    0.097711   -3.038102
    103          1           0        3.886821    0.750494   -2.761471
    104          1           0        6.401663    1.175500   -0.163434
    105          1           0        6.225686   -0.258586    0.708705
    106          1           0        7.318467   -1.612092   -1.278345
    107          1           0        7.644749   -0.150140   -1.908464
    108          1           0        8.734459    0.612023    0.320121
    109          1           0        8.559702   -1.340256    0.589400
    110          1           0       10.128446   -0.253615   -1.938568
    111          1           0        9.229253   -2.693306   -1.974684
    112          1           0       11.099312   -2.512637   -1.949941
    113          1           0       10.354011   -2.671828   -0.327377
    114          1           0       11.019937    0.733871    0.144349
    115          1           0       11.265866   -0.900309    0.957018
    116          1           0       12.688928   -1.575984   -1.138770
    117          1           0       12.573075   -0.320233   -1.942108
    118          1           0       13.441106    1.181460    0.320600
    119          1           0       13.739306   -0.431037    1.209903
    120          1           0       15.263311    0.158285   -1.504672
    121          1           0       15.052775   -2.075883   -1.248489
    122          1           0       16.579804   -1.825556   -0.941013
    123          1           0       15.586824   -2.150756    0.436043
    124          1           0       15.803710    1.657072    0.798841
    125          1           0       16.415444    0.069366    1.498995
    126          1           0       18.017557   -0.293629   -0.285150
    127          1           0       17.490280    1.053879   -1.125965
    128          1           0       18.069591    2.711104    0.569096
    129          1           0       18.245366    1.236699    1.638741
    130          1           0       20.526885    0.752484    0.326902
    131          1           0       20.058944    3.463884   -1.422143
    132          1           0       21.299745    2.259154   -1.806415
    133          1           0       19.633040    1.746757   -1.913257
    134          1           0       20.750600    2.361969    2.438472
    135          1           0       21.648314    3.112953    0.900963
    136          1           0       20.214871    3.777555    1.389576
    137          1           0       -7.179989    1.929246    0.213505
    138          1           0       -7.387026   -0.304937   -0.225064
 ---------------------------------------------------------------------

 SCF Done:  E(RB3LYP) =  -2733.00514891     A.U. after   17 cycles

 Excitation energies and oscillator strengths:

 Excited State   1:      Singlet-A      2.0269 eV  611.69 nm  f=0.1152  <S**2>=0.000
     235 -> 237       -0.15646
     235 -> 238        0.29531
     236 -> 237        0.60611
     236 -> 238        0.11601
 This state for optimization and/or second-order correction.
 Total Energy, E(TD-HF/TD-KS) =  -2732.93066078
 Copying the excited state density for this state as the 1-particle RhoCI density.

 The electronic state is 1-A.
 Alpha  occ. eigenvalues --  -19.17881 -19.17793 -19.12650 -19.12377 -19.11415
 Alpha  occ. eigenvalues --  -14.36761 -14.35310 -14.32123 -14.29310 -10.31804
 Alpha  occ. eigenvalues --  -10.31558 -10.27801 -10.26129 -10.24492 -10.24046
 Alpha  occ. eigenvalues --  -10.23390 -10.23170 -10.23129 -10.22300 -10.22165
 Alpha  occ. eigenvalues --  -10.22083 -10.21659 -10.21505 -10.20803 -10.20787
 Alpha  occ. eigenvalues --  -10.20739 -10.20726 -10.20714 -10.20696 -10.20690
 Alpha  occ. eigenvalues --  -10.20509 -10.20435 -10.20357 -10.20254 -10.20213
 Alpha  occ. eigenvalues --  -10.20208 -10.20196 -10.20188 -10.20175 -10.20137
 Alpha  occ. eigenvalues --  -10.20067 -10.20037 -10.19960 -10.19956 -10.19753
 Alpha  occ. eigenvalues --  -10.19742 -10.19677 -10.19591 -10.19358 -10.19301
 Alpha  occ. eigenvalues --  -10.19245 -10.19005 -10.18988 -10.18939 -10.18873
 Alpha  occ. eigenvalues --  -10.18832 -10.18817 -10.18752 -10.18512 -10.18459
 Alpha  occ. eigenvalues --  -10.18161 -10.17912 -10.17153 -10.16984  -1.09945
 Alpha  occ. eigenvalues --   -1.09520  -1.04355  -1.01266  -0.98899  -0.97602
 Alpha  occ. eigenvalues --   -0.97250  -0.95363  -0.91417  -0.85194  -0.83621
 Alpha  occ. eigenvalues --   -0.82486  -0.81636  -0.81350  -0.81237  -0.80669
 Alpha  occ. eigenvalues --   -0.80178  -0.79028  -0.79000  -0.78874  -0.77935
 Alpha  occ. eigenvalues --   -0.77427  -0.76860  -0.76624  -0.75242  -0.74773
 Alpha  occ. eigenvalues --   -0.74014  -0.73552  -0.72402  -0.71946  -0.70801
 Alpha  occ. eigenvalues --   -0.69671  -0.69509  -0.68904  -0.68207  -0.67401
 Alpha  occ. eigenvalues --   -0.67176  -0.66562  -0.66341  -0.65836  -0.65239
 Alpha  occ. eigenvalues --   -0.64125  -0.62404  -0.62340  -0.61665  -0.60877
 Alpha  occ. eigenvalues --   -0.60769  -0.59738  -0.58464  -0.57736  -0.57581
 Alpha  occ. eigenvalues --   -0.57490  -0.56235  -0.55963  -0.55662  -0.55207
 Alpha  occ. eigenvalues --   -0.55091  -0.54440  -0.54342  -0.53434  -0.53393
 Alpha  occ. eigenvalues --   -0.52909  -0.52303  -0.51989  -0.51302  -0.50901
 Alpha  occ. eigenvalues --   -0.50705  -0.49774  -0.49326  -0.48582  -0.48307
 Alpha  occ. eigenvalues --   -0.47831  -0.47799  -0.47499  -0.47244  -0.47118
 Alpha  occ. eigenvalues --   -0.46783  -0.46509  -0.46281  -0.45863  -0.45791
 Alpha  occ. eigenvalues --   -0.45377  -0.45179  -0.45102  -0.44880  -0.44668
 Alpha  occ. eigenvalues --   -0.44520  -0.44338  -0.44173  -0.44073  -0.43649
 Alpha  occ. eigenvalues --   -0.43633  -0.43400  -0.43272  -0.43118  -0.42958
 Alpha  occ. eigenvalues --   -0.42505  -0.42341  -0.42245  -0.41967  -0.41682
 Alpha  occ. eigenvalues --   -0.41591  -0.41408  -0.41086  -0.40898  -0.40445
 Alpha  occ. eigenvalues --   -0.40256  -0.40027  -0.39829  -0.39614  -0.39289
 Alpha  occ. eigenvalues --   -0.39006  -0.38816  -0.38598  -0.38507  -0.38244
 Alpha  occ. eigenvalues --   -0.37966  -0.37688  -0.37365  -0.37272  -0.37158
 Alpha  occ. eigenvalues --   -0.36976  -0.36855  -0.36485  -0.36398  -0.36336
 Alpha  occ. eigenvalues --   -0.36245  -0.35990  -0.35805  -0.35751  -0.35314
 Alpha  occ. eigenvalues --   -0.35284  -0.34989  -0.34880  -0.34736  -0.34616
 Alpha  occ. eigenvalues --   -0.34467  -0.34365  -0.34276  -0.33926  -0.33776
 Alpha  occ. eigenvalues --   -0.33500  -0.33390  -0.33190  -0.32923  -0.32543
 Alpha  occ. eigenvalues --   -0.32287  -0.32267  -0.31961  -0.31653  -0.31451
 Alpha  occ. eigenvalues --   -0.31040  -0.30977  -0.30434  -0.29518  -0.29478
 Alpha  occ. eigenvalues --   -0.28959  -0.28306  -0.28260  -0.28222  -0.27626
 Alpha  occ. eigenvalues --   -0.27207  -0.27016  -0.26456  -0.25893  -0.25388
 Alpha  occ. eigenvalues --   -0.25358  -0.24926  -0.24444  -0.21553  -0.19499
 Alpha  occ. eigenvalues --   -0.19174
 Alpha virt. eigenvalues --   -0.10371  -0.08052  -0.04020  -0.01276  -0.00800
 Alpha virt. eigenvalues --   -0.00700  -0.00509   0.00757   0.02019   0.03588
 Alpha virt. eigenvalues --    0.03611   0.03808   0.04090   0.04268   0.04299

 Mulliken charges:
               1
     1  C   -0.070553
     2  C   -0.062649
     3  C    0.012969
     4  C   -0.072914
     5  N   -0.137839
     6  C   -0.053151
     7  C   -0.103357
     8  C   -0.015325
     9  C    0.076964
    10  C   -0.022480
    11  C    0.102667
    12  C   -0.034897
    13  C    0.224605
    14  O   -0.226949
    15  O   -0.321100
    16  N   -0.007510
    17  C    0.066623
    18  C   -0.196099
    19  C    0.054280
    20  C    0.067870
    21  C    0.166415
    22  C   -0.059721
    23  C   -0.075045
    24  N   -0.291462
    25  C    0.070463
    26  C   -0.112761
    27  C   -0.032571
    28  C    0.026246
    29  C    0.017011
    30  C   -0.063043
    31  C   -0.010823
    32  N   -0.059649
    33  C    0.178976
    34  C   -0.115487
    35  C   -0.042295
    36  C    0.110272
    37  C   -0.031756
    38  C    0.064849
    39  O   -0.130645
    40  C    0.086846
    41  C    0.195089
    42  O   -0.291955
    43  O   -0.275295
    44  C    0.175458
    45  C    0.244808
    46  C   -0.116965
    47  C   -0.122195
    48  C    0.138362
    49  C    0.040546
    50  C    0.073295
    51  C    0.045925
    52  C   -0.135801
    53  C   -0.066140
    54  C    0.077764
    55  C   -0.041903
    56  C    0.031147
    57  C   -0.068447
    58  C    0.078441
    59  C   -0.019840
    60  C    0.074460
    61  C    0.015838
    62  C   -0.062063
    63  C   -0.079662
    64  C    0.032583
    65  H   -0.041603
    66  H   -0.118572
    67  H   -0.008222
    68  H    0.040299
    69  H   -0.042758
    70  H    0.011528
    71  H    0.027120
    72  H    0.055754
    73  H    0.011027
    74  H   -0.022551
    75  H    0.028359
    76  H    0.047017
    77  H    0.009261
    78  H    0.010943
    79  H    0.023029
    80  H    0.013053
    81  H    0.056546
    82  H    0.036750
    83  H    0.051235
    84  H    0.038632
    85  H    0.031164
    86  H    0.031952
    87  H    0.009897
    88  H    0.034705
    89  H    0.022428
    90  H   -0.012036
    91  H    0.079777
    92  H    0.046832
    93  H    0.054865
    94  H    0.009793
    95  H    0.037469
    96  H    0.027670
    97  H    0.044871
    98  H    0.034322
    99  H    0.053139
   100  H    0.014764
   101  H    0.036654
   102  H    0.019345
   103  H    0.001558
   104  H    0.004135
   105  H   -0.004539
   106  H    0.003936
   107  H   -0.084151
   108  H   -0.007259
   109  H    0.024344
   110  H    0.008777
   111  H    0.039565
   112  H    0.024214
   113  H    0.002728
   114  H   -0.004334
   115  H    0.012342
   116  H   -0.005226
   117  H   -0.020127
   118  H    0.014291
   119  H    0.009235
   120  H   -0.000908
   121  H   -0.041325
   122  H   -0.009906
   123  H    0.001263
   124  H    0.009889
   125  H    0.007667
   126  H   -0.008877
   127  H   -0.026376
   128  H    0.005728
   129  H   -0.007355
   130  H    0.013441
   131  H    0.012633
   132  H    0.012885
   133  H    0.018662
   134  H    0.033946
   135  H   -0.003244
   136  H   -0.004311
   137  H    0.127227
   138  H    0.114586
 Sum of Mulliken charges =   0.00000

 Dipole moment (field-independent basis, Debye):
    X=              4.0657    Y=              4.2518    Z=             -0.6297  Tot=              5.9165
 Quadrupole moment (field-independent basis, Debye-Ang):
   XX=           -369.1571   YY=           -383.8546   ZZ=           -396.9645
   XY=            -30.9153   XZ=              7.4714   YZ=              2.7835

 Normal termination of Gaussian 09 at Fri Jul 26 21:20:08 2019.
