 Gaussian 09, Revision D.01,
 Gaussian 09:  ES64L-G09RevD.01 24-Apr-2013

 --------------------------
 # td=(NStates=1) B3LYP/SVP
 --------------------------

 --
 TD
 --
 Symbolic Z-matrix:
 Charge =  0 Multiplicity = 1

                         Standard orientation:
 ---------------------------------------------------------------------
 Center     Atomic      Atomic             Coordinates (Angstroms)
 Number     Number       Type             X           Y           Z
 ---------------------------------------------------------------------
      1          6           0       -5.009299   -1.980572    0.499073
      2          6           0       -4.919054    2.779416    1.287120
      3          6           0       -9.519132    3.175125   -0.149358
      4          6           0       -9.850550   -1.590602   -0.833550
      5          7           0       -5.177721    0.391676    0.798891
      6          6           0       -4.422353   -0.689642    0.906294
      7          6           0       -3.006229   -0.493058    1.255984
      8          6           0       -2.996164    0.952366    1.777131
      9          6           0       -4.390328    1.442866    1.265873
     10          6           0       -2.931393    1.171747    3.290003
     11          6           0       -1.974973   -0.623233    0.171675
     12          6           0       -0.590443   -0.599010    0.607811
     13          6           0        0.463289   -0.758212   -0.638592
     14          8           0       -0.029805   -1.143611   -1.712852
     15          8           0        1.629733   -0.480990   -0.274749
     16          7           0       -7.166170    2.651026    0.468419
     17          6           0       -6.048488    3.302918    0.939840
     18          6           0       -6.410907    4.807940    0.856403
     19          6           0       -7.699506    4.932770    0.424592
     20          6           0       -8.203227    3.531993    0.208656
     21          6           0       -5.439536    5.827021    1.388691
     22          6           0       -8.360439    6.258144    0.333314
     23          6           0       -9.392489    6.503305   -0.548622
     24          7           0       -9.300251    0.797665   -0.502547
     25          6           0      -10.006797    1.919291   -0.489008
     26          6           0      -11.393584    1.706918   -0.785023
     27          6           0      -11.425691    0.346160   -1.123417
     28          6           0      -10.137677   -0.248107   -0.851349
     29          6           0      -12.480963    2.681452   -0.877909
     30          6           0      -12.710158   -0.469892   -1.592101
     31          6           0      -12.799450   -0.522131   -3.064970
     32          7           0       -7.436016   -1.311691   -0.081907
     33          6           0       -8.595434   -2.183596   -0.564428
     34          6           0       -8.013378   -3.504638   -0.658022
     35          6           0       -6.685075   -3.466773   -0.315783
     36          6           0       -6.356060   -2.039777    0.033497
     37          6           0       -8.749859   -4.757454   -1.054930
     38          6           0       -5.540358   -4.348389   -0.002409
     39          8           0       -5.449841   -5.535184    0.059705
     40          6           0       -4.365123   -3.379248    0.435337
     41          6           0       -3.814203   -3.820465    1.800749
     42          8           0       -4.217767   -3.358291    2.820269
     43          8           0       -2.821799   -4.659604    1.581880
     44          6           0       -2.271127   -5.274581    2.805201
     45          6           0        2.709661   -0.802258   -1.307411
     46          6           0        4.014663   -0.591860   -0.707930
     47          6           0        5.064275    0.163573   -1.203196
     48          6           0        5.016732    0.828310   -2.579886
     49          6           0        6.356775    0.392176   -0.472519
     50          6           0        7.659204   -0.245545   -1.168571
     51          6           0        8.807911   -0.130122   -0.298743
     52          6           0       10.092022   -0.788801   -0.826009
     53          6           0       10.122294   -2.325624   -0.905328
     54          6           0       11.285520   -0.177447    0.042863
     55          6           0       12.593746   -0.487119   -0.588569
     56          6           0       13.747984    0.037173    0.152794
     57          6           0       15.197098   -0.163808   -0.414850
     58          6           0       15.577046   -1.636967   -0.615036
     59          6           0       16.264911    0.443650    0.533977
     60          6           0       17.651502    0.587439   -0.081941
     61          6           0       18.652515    1.365443    0.863509
     62          6           0       20.146551    1.554237    0.191488
     63          6           0       20.137757    2.434846   -1.079397
     64          6           0       21.126215    2.086448    1.187183
     65          1           0       -4.096483    3.540019    1.670751
     66          1           0      -10.203437    4.028942   -0.353750
     67          1           0      -10.636492   -2.199942   -1.018058
     68          1           0       -2.673897   -1.141764    2.150028
     69          1           0       -2.198479    1.532365    1.308274
     70          1           0       -1.950765    0.733063    3.738458
     71          1           0       -3.340192    2.245067    3.697053
     72          1           0       -3.702239    0.436222    3.782637
     73          1           0       -2.295001   -1.405747   -0.376067
     74          1           0       -2.024433    0.148161   -0.587334
     75          1           0       -0.316812    0.391577    1.092741
     76          1           0       -0.166645   -1.317625    1.463609
     77          1           0       -4.633901    5.702408    0.830998
     78          1           0       -5.763190    6.961387    1.452243
     79          1           0       -5.039646    5.503692    2.401255
     80          1           0       -7.893316    6.814941    1.108647
     81          1           0       -9.761948    5.903957   -1.463219
     82          1           0      -10.015230    7.526804   -0.710439
     83          1           0      -12.683322    3.620940   -0.127986
     84          1           0      -12.432704    3.009869   -2.068908
     85          1           0      -13.613492    2.216112   -0.843038
     86          1           0      -12.524347   -1.508325   -1.152908
     87          1           0      -13.551671   -0.013539   -1.171758
     88          1           0      -13.201261    0.544052   -3.572798
     89          1           0      -11.832049   -0.822209   -3.719561
     90          1           0      -13.555747   -1.221121   -3.206065
     91          1           0       -9.689954   -4.694505   -0.433539
     92          1           0       -9.231865   -4.608807   -2.027161
     93          1           0       -8.369379   -5.783202   -1.201155
     94          1           0       -3.682282   -3.520823   -0.337531
     95          1           0       -1.864127   -6.233515    2.515838
     96          1           0       -1.540283   -4.401168    3.254425
     97          1           0       -3.321174   -5.421330    3.445924
     98          1           0        2.689634   -1.915260   -1.687972
     99          1           0        2.480226   -0.179623   -2.149678
    100          1           0        4.087997   -1.000853    0.288057
    101          1           0        5.549944    1.637762   -2.667230
    102          1           0        5.331084    0.199594   -3.478684
    103          1           0        3.962260    0.901132   -2.964393
    104          1           0        6.350108    1.476740   -0.521575
    105          1           0        6.357505   -0.154210    0.414190
    106          1           0        7.423869   -1.399800   -1.418498
    107          1           0        7.873735    0.373110   -2.105593
    108          1           0        8.920495    0.967165   -0.151812
    109          1           0        8.521656   -0.492183    0.867894
    110          1           0       10.156300   -0.358401   -1.974043
    111          1           0        9.474348   -2.506792   -1.798828
    112          1           0       11.001152   -2.428222   -1.380032
    113          1           0       10.153659   -2.841586    0.159737
    114          1           0       10.916156    0.902899   -0.106285
    115          1           0       11.105622   -0.540094    1.037297
    116          1           0       12.466707   -1.638790   -0.648846
    117          1           0       12.668658   -0.162090   -1.714978
    118          1           0       13.383531    0.895738    0.561838
    119          1           0       13.896985   -0.430505    1.045027
    120          1           0       15.246919    0.469305   -1.370969
    121          1           0       14.910190   -2.101641   -1.203230
    122          1           0       16.534075   -1.678740   -1.127584
    123          1           0       15.709867   -2.122186    0.298689
    124          1           0       15.811642    1.525641    0.786170
    125          1           0       16.208095   -0.175259    1.428004
    126          1           0       18.002224   -0.449011   -0.367666
    127          1           0       17.317357    1.151484   -1.211565
    128          1           0       18.069502    2.495761    0.944491
    129          1           0       18.684960    1.068706    1.833703
    130          1           0       20.468544    0.568002   -0.014327
    131          1           0       19.727411    3.543922   -0.670646
    132          1           0       21.328658    2.472019   -1.301561
    133          1           0       19.462818    2.202396   -1.908273
    134          1           0       21.201651    1.366803    2.078237
    135          1           0       22.149109    2.261548    0.771075
    136          1           0       20.577388    3.187103    1.693087
    137          1           0       -7.234544    1.705254    0.553879
    138          1           0       -7.534120   -0.444866    0.306071
 ---------------------------------------------------------------------

 SCF Done:  E(RB3LYP) =  -2733.01751826     A.U. after   19 cycles

 Excitation energies and oscillator strengths:

 Excited State   1:      Singlet-A      2.1102 eV  587.55 nm  f=0.0925  <S**2>=0.000
     235 -> 237       -0.10647
     235 -> 238       -0.36250
     236 -> 237        0.58625
 This state for optimization and/or second-order correction.
 Total Energy, E(TD-HF/TD-KS) =  -2732.93997071
 Copying the excited state density for this state as the 1-particle RhoCI density.

 The electronic state is 1-A.
 Alpha  occ. eigenvalues --  -19.20194 -19.17819 -19.11948 -19.11614 -19.11334
 Alpha  occ. eigenvalues --  -14.36461 -14.36288 -14.32527 -14.27701 -10.31499
 Alpha  occ. eigenvalues --  -10.30713 -10.27108 -10.26737 -10.26721 -10.23858
 Alpha  occ. eigenvalues --  -10.23830 -10.23605 -10.23470 -10.23002 -10.22715
 Alpha  occ. eigenvalues --  -10.21820 -10.21683 -10.21601 -10.21517 -10.21492
 Alpha  occ. eigenvalues --  -10.20934 -10.20894 -10.20766 -10.20612 -10.20527
 Alpha  occ. eigenvalues --  -10.20513 -10.20447 -10.20414 -10.20237 -10.20130
 Alpha  occ. eigenvalues --  -10.20129 -10.20046 -10.19981 -10.19815 -10.19795
 Alpha  occ. eigenvalues --  -10.19568 -10.19563 -10.19518 -10.19460 -10.19457
 Alpha  occ. eigenvalues --  -10.19452 -10.19437 -10.19400 -10.19400 -10.19352
 Alpha  occ. eigenvalues --  -10.19343 -10.18909 -10.18842 -10.18747 -10.18664
 Alpha  occ. eigenvalues --  -10.18630 -10.18588 -10.18537 -10.18246 -10.17383
 Alpha  occ. eigenvalues --  -10.17379 -10.17322 -10.16467 -10.16081  -1.11851
 Alpha  occ. eigenvalues --   -1.09764  -1.03260  -1.01389  -0.99274  -0.97519
 Alpha  occ. eigenvalues --   -0.96423  -0.94542  -0.92407  -0.83540  -0.82607
 Alpha  occ. eigenvalues --   -0.82526  -0.82029  -0.81870  -0.81167  -0.81070
 Alpha  occ. eigenvalues --   -0.80031  -0.79477  -0.78626  -0.78449  -0.77888
 Alpha  occ. eigenvalues --   -0.76802  -0.76240  -0.75106  -0.74741  -0.74255
 Alpha  occ. eigenvalues --   -0.73758  -0.72966  -0.72611  -0.71874  -0.70959
 Alpha  occ. eigenvalues --   -0.69904  -0.69697  -0.68688  -0.68242  -0.67947
 Alpha  occ. eigenvalues --   -0.66617  -0.65934  -0.65726  -0.65463  -0.64796
 Alpha  occ. eigenvalues --   -0.63802  -0.62562  -0.62370  -0.61166  -0.60853
 Alpha  occ. eigenvalues --   -0.59688  -0.58557  -0.58313  -0.57931  -0.57259
 Alpha  occ. eigenvalues --   -0.56659  -0.56439  -0.55813  -0.55168  -0.55078
 Alpha  occ. eigenvalues --   -0.54834  -0.54667  -0.54361  -0.53810  -0.53670
 Alpha  occ. eigenvalues --   -0.52429  -0.51858  -0.51083  -0.50805  -0.50635
 Alpha  occ. eigenvalues --   -0.50230  -0.49637  -0.48575  -0.48535  -0.48141
 Alpha  occ. eigenvalues --   -0.47998  -0.47943  -0.47546  -0.47159  -0.47060
 Alpha  occ. eigenvalues --   -0.46701  -0.46503  -0.45887  -0.45752  -0.45654
 Alpha  occ. eigenvalues --   -0.45337  -0.44958  -0.44741  -0.44683  -0.44592
 Alpha  occ. eigenvalues --   -0.44325  -0.44279  -0.43968  -0.43938  -0.43886
 Alpha  occ. eigenvalues --   -0.43482  -0.43460  -0.43301  -0.42842  -0.42511
 Alpha  occ. eigenvalues --   -0.42306  -0.42217  -0.41843  -0.41272  -0.41093
 Alpha  occ. eigenvalues --   -0.41056  -0.40870  -0.40746  -0.40576  -0.40450
 Alpha  occ. eigenvalues --   -0.40335  -0.40013  -0.39972  -0.39573  -0.39245
 Alpha  occ. eigenvalues --   -0.39001  -0.38875  -0.38843  -0.38623  -0.38230
 Alpha  occ. eigenvalues --   -0.38108  -0.38084  -0.37866  -0.37673  -0.37653
 Alpha  occ. eigenvalues --   -0.37377  -0.37064  -0.36989  -0.36820  -0.36741
 Alpha  occ. eigenvalues --   -0.36250  -0.35990  -0.35768  -0.35680  -0.35652
 Alpha  occ. eigenvalues --   -0.34966  -0.34927  -0.34637  -0.34618  -0.34503
 Alpha  occ. eigenvalues --   -0.34240  -0.34147  -0.34071  -0.33812  -0.33570
 Alpha  occ. eigenvalues --   -0.33546  -0.32781  -0.32658  -0.32512  -0.32131
 Alpha  occ. eigenvalues --   -0.31862  -0.31767  -0.31393  -0.31327  -0.31128
 Alpha  occ. eigenvalues --   -0.30981  -0.30926  -0.30653  -0.30588  -0.30278
 Alpha  occ. eigenvalues --   -0.30149  -0.29413  -0.28775  -0.28346  -0.27906
 Alpha  occ. eigenvalues --   -0.27590  -0.26399  -0.26075  -0.25391  -0.24623
 Alpha  occ. eigenvalues --   -0.24296  -0.24116  -0.23940  -0.20802  -0.19180
 Alpha  occ. eigenvalues --   -0.18021
 Alpha virt. eigenvalues --   -0.08805  -0.07573  -0.03775  -0.01730  -0.01574
 Alpha virt. eigenvalues --    0.00553   0.01260   0.01543   0.02074   0.03273
 Alpha virt. eigenvalues --    0.03366   0.03464   0.04071   0.04212   0.04402

 Mulliken charges:
               1
     1  C   -0.050066
     2  C   -0.095278
     3  C   -0.093468
     4  C   -0.032698
     5  N   -0.167376
     6  C   -0.020181
     7  C   -0.061478
     8  C    0.005001
     9  C   -0.058944
    10  C   -0.013004
    11  C    0.219189
    12  C   -0.058998
    13  C    0.167917
    14  O   -0.284239
    15  O   -0.240771
    16  N   -0.001593
    17  C    0.115189
    18  C   -0.136606
    19  C   -0.027484
    20  C    0.090148
    21  C    0.127778
    22  C    0.040107
    23  C   -0.102552
    24  N   -0.212994
    25  C    0.046162
    26  C   -0.077229
    27  C   -0.116642
    28  C    0.081488
    29  C   -0.067635
    30  C    0.104798
    31  C   -0.025841
    32  N   -0.016709
    33  C    0.101322
    34  C   -0.115292
    35  C   -0.057632
    36  C    0.071299
    37  C    0.111497
    38  C    0.056491
    39  O   -0.149608
    40  C    0.014848
    41  C    0.186118
    42  O   -0.206929
    43  O   -0.292677
    44  C    0.099425
    45  C    0.258379
    46  C   -0.101381
    47  C   -0.147238
    48  C    0.112359
    49  C    0.136297
    50  C   -0.039346
    51  C    0.014705
    52  C   -0.217416
    53  C    0.155764
    54  C    0.020276
    55  C    0.006062
    56  C    0.173868
    57  C   -0.099367
    58  C    0.139451
    59  C   -0.019913
    60  C   -0.030765
    61  C    0.028930
    62  C   -0.042008
    63  C   -0.031941
    64  C   -0.042053
    65  H   -0.007547
    66  H   -0.020402
    67  H   -0.086742
    68  H    0.018876
    69  H   -0.000071
    70  H    0.029477
    71  H    0.045304
    72  H    0.026776
    73  H   -0.042298
    74  H   -0.011124
    75  H    0.015150
    76  H    0.027878
    77  H   -0.013853
    78  H    0.042135
    79  H    0.029582
    80  H   -0.000881
    81  H    0.064453
    82  H    0.042878
    83  H    0.056945
    84  H    0.047183
    85  H    0.025087
    86  H    0.005679
    87  H   -0.016907
    88  H    0.021915
    89  H    0.039199
    90  H   -0.003382
    91  H    0.015908
    92  H    0.003144
    93  H    0.046864
    94  H    0.026128
    95  H    0.053836
    96  H    0.068357
    97  H    0.075398
    98  H    0.066393
    99  H    0.019041
   100  H   -0.012569
   101  H   -0.028216
   102  H    0.025564
   103  H    0.000703
   104  H    0.016999
   105  H   -0.023186
   106  H    0.025259
   107  H    0.006410
   108  H   -0.012119
   109  H   -0.001860
   110  H   -0.001453
   111  H   -0.000342
   112  H   -0.040152
   113  H    0.041356
   114  H    0.001579
   115  H   -0.002836
   116  H   -0.002154
   117  H   -0.000262
   118  H   -0.053436
   119  H   -0.066498
   120  H   -0.009575
   121  H   -0.025960
   122  H   -0.003769
   123  H   -0.016304
   124  H    0.007430
   125  H   -0.009194
   126  H    0.011719
   127  H    0.021981
   128  H    0.006188
   129  H   -0.021656
   130  H   -0.010801
   131  H    0.020475
   132  H    0.029971
   133  H    0.029621
   134  H    0.020204
   135  H    0.025768
   136  H    0.018671
   137  H    0.090182
   138  H    0.102371
 Sum of Mulliken charges =   0.00000

 Dipole moment (field-independent basis, Debye):
    X=              6.3238    Y=              2.8246    Z=              0.8601  Tot=              6.9792
 Quadrupole moment (field-independent basis, Debye-Ang):
   XX=           -361.9192   YY=           -383.2558   ZZ=           -394.8434
   XY=            -36.1980   XZ=              3.4612   YZ=             -0.6723

 Normal termination of Gaussian 09 at Sun Aug  4 19:06:25 2019.
