 Gaussian 09, Revision D.01,
 Gaussian 09:  ES64L-G09RevD.01 24-Apr-2013

 --------------------------
 # td=(NStates=1) B3LYP/SVP
 --------------------------

 --
 TD
 --
 Symbolic Z-matrix:
 Charge =  0 Multiplicity = 1

                         Standard orientation:
 ---------------------------------------------------------------------
 Center     Atomic      Atomic             Coordinates (Angstroms)
 Number     Number       Type             X           Y           Z
 ---------------------------------------------------------------------
      1          6           0       -5.163962   -1.956503    0.449224
      2          6           0       -4.706157    2.771150    1.455876
      3          6           0       -9.264459    3.427115   -0.226096
      4          6           0       -9.877977   -1.408724   -1.002180
      5          7           0       -5.199262    0.507754    0.920038
      6          6           0       -4.508246   -0.775290    0.852467
      7          6           0       -3.094938   -0.661064    1.272328
      8          6           0       -3.090368    0.763508    1.864406
      9          6           0       -4.364682    1.381718    1.419912
     10          6           0       -3.015649    0.818913    3.385197
     11          6           0       -2.046474   -0.798432    0.171553
     12          6           0       -0.540030   -0.816036    0.648531
     13          6           0        0.390456   -1.209991   -0.426132
     14          8           0        0.173982   -1.622263   -1.584910
     15          8           0        1.677457   -0.866934   -0.013572
     16          7           0       -7.067156    2.778598    0.594504
     17          6           0       -5.944930    3.368939    1.103135
     18          6           0       -6.236559    4.808926    1.035522
     19          6           0       -7.476671    5.026440    0.544572
     20          6           0       -7.972657    3.743791    0.316448
     21          6           0       -5.287128    5.826118    1.547833
     22          6           0       -8.060882    6.382454    0.424643
     23          6           0       -9.064018    6.588643   -0.508265
     24          7           0       -9.160439    0.949511   -0.528387
     25          6           0       -9.779601    2.151584   -0.648592
     26          6           0      -11.156954    2.007613   -1.098062
     27          6           0      -11.354248    0.609268   -1.299650
     28          6           0      -10.040754   -0.009647   -0.990225
     29          6           0      -12.095909    3.057399   -1.292451
     30          6           0      -12.587944   -0.111988   -1.688361
     31          6           0      -12.648542   -0.316389   -3.237078
     32          7           0       -7.517475   -1.308022   -0.294723
     33          6           0       -8.639428   -2.053616   -0.765286
     34          6           0       -8.179864   -3.401367   -0.811657
     35          6           0       -6.849723   -3.424929   -0.390138
     36          6           0       -6.505727   -2.051120   -0.036263
     37          6           0       -9.002248   -4.599965   -1.054230
     38          6           0       -5.802410   -4.219579    0.035155
     39          8           0       -5.804536   -5.495743   -0.108979
     40          6           0       -4.658728   -3.406397    0.375003
     41          6           0       -3.962465   -3.812477    1.698242
     42          8           0       -4.260768   -3.461164    2.823895
     43          8           0       -2.991988   -4.805562    1.466617
     44          6           0       -2.760578   -5.567752    2.711979
     45          6           0        2.706359   -1.131464   -1.067631
     46          6           0        4.071431   -0.723633   -0.497218
     47          6           0        4.943043    0.092801   -0.983393
     48          6           0        4.828519    0.651955   -2.385704
     49          6           0        6.174344    0.398073   -0.270814
     50          6           0        7.507429   -0.322551   -0.763943
     51          6           0        8.927733   -0.106800   -0.022134
     52          6           0       10.024131   -0.691900   -0.839368
     53          6           0        9.987713   -2.301471   -1.038755
     54          6           0       11.336805   -0.395013    0.123646
     55          6           0       12.623634   -0.753530   -0.531260
     56          6           0       13.776691   -0.103589    0.332836
     57          6           0       15.203326   -0.253334   -0.323408
     58          6           0       15.643872   -1.802252   -0.420172
     59          6           0       16.240856    0.635772    0.409612
     60          6           0       17.762027    0.682075   -0.247712
     61          6           0       18.542394    1.727934    0.492582
     62          6           0       20.036739    1.776836   -0.011108
     63          6           0       20.334973    2.156022   -1.470941
     64          6           0       20.886167    2.740034    0.925441
     65          1           0       -3.941929    3.421171    1.737177
     66          1           0       -9.842793    4.315615   -0.604775
     67          1           0      -10.787243   -1.963117   -1.029737
     68          1           0       -2.982511   -1.339063    2.104094
     69          1           0       -2.116136    1.226983    1.397795
     70          1           0       -2.077233    0.244663    3.708149
     71          1           0       -2.961439    1.649755    3.772451
     72          1           0       -3.912912    0.054184    3.879289
     73          1           0       -2.374637   -1.652258   -0.312433
     74          1           0       -2.235520   -0.052766   -0.488692
     75          1           0       -0.416856    0.147539    1.163069
     76          1           0       -0.481458   -1.578114    1.338067
     77          1           0       -4.473474    5.800308    0.880474
     78          1           0       -5.692356    6.865606    1.789821
     79          1           0       -4.742948    5.706264    2.452995
     80          1           0       -7.607299    7.310751    1.034475
     81          1           0       -9.431272    5.803371   -1.319578
     82          1           0       -9.440284    7.667959   -0.646147
     83          1           0      -12.375341    3.582791   -0.437795
     84          1           0      -11.926078    3.692125   -2.011025
     85          1           0      -13.148449    2.578080   -1.371495
     86          1           0      -12.650444   -1.169267   -1.158198
     87          1           0      -13.483047    0.524700   -1.293644
     88          1           0      -12.591174    0.491903   -3.906309
     89          1           0      -11.838134   -0.926236   -3.394568
     90          1           0      -13.639016   -0.888017   -3.227717
     91          1           0       -9.704321   -4.707164   -0.187392
     92          1           0       -9.444344   -4.444711   -2.215848
     93          1           0       -8.423053   -5.559860   -1.279903
     94          1           0       -4.053656   -3.574623   -0.411077
     95          1           0       -2.120360   -6.500108    2.429476
     96          1           0       -2.035927   -4.975711    3.346439
     97          1           0       -3.736218   -5.812833    3.272113
     98          1           0        2.630312   -2.256011   -1.140500
     99          1           0        2.557170   -0.550771   -1.945816
    100          1           0        4.271926   -1.358318    0.455760
    101          1           0        5.318442    1.589474   -2.315179
    102          1           0        5.497635    0.039452   -3.014236
    103          1           0        3.965883    0.798669   -2.846013
    104          1           0        6.369862    1.545990   -0.267476
    105          1           0        5.818827    0.153443    0.861658
    106          1           0        7.213323   -1.546676   -0.906969
    107          1           0        7.603407    0.128595   -1.715363
    108          1           0        9.179822    0.839528    0.082900
    109          1           0        8.871154   -0.248292    1.030708
    110          1           0       10.274198   -0.397521   -1.854349
    111          1           0        9.308929   -2.533201   -1.852462
    112          1           0       10.972030   -2.509560   -1.292317
    113          1           0        9.658082   -2.966117   -0.225654
    114          1           0       11.183257    0.802749    0.095190
    115          1           0       11.096121   -0.761428    0.919929
    116          1           0       12.715423   -1.924793   -0.600775
    117          1           0       12.688789   -0.443581   -1.601041
    118          1           0       13.538210    0.983676    0.200804
    119          1           0       13.563241   -0.694174    1.254354
    120          1           0       15.152817    0.159491   -1.337063
    121          1           0       15.038772   -2.438989   -0.978616
    122          1           0       16.730973   -1.727542   -0.968149
    123          1           0       15.812179   -2.399965    0.566237
    124          1           0       15.802881    1.585281    0.542932
    125          1           0       16.471543    0.070327    1.344067
    126          1           0       18.216349   -0.276602    0.082359
    127          1           0       17.476042    0.851316   -1.245015
    128          1           0       18.059112    2.761237    0.385130
    129          1           0       18.738744    1.513413    1.545567
    130          1           0       20.449682    0.739273    0.210684
    131          1           0       20.009191    3.400232   -1.824640
    132          1           0       21.405020    2.053428   -1.652522
    133          1           0       19.834709    1.391441   -2.097826
    134          1           0       20.889272    2.712068    2.019207
    135          1           0       21.626359    2.856107    0.601642
    136          1           0       20.494268    3.815321    1.021253
    137          1           0       -7.241452    1.789628    0.512343
    138          1           0       -7.563875   -0.417762   -0.052220
 ---------------------------------------------------------------------

 SCF Done:  E(RB3LYP) =  -2732.93770039     A.U. after   17 cycles

 Excitation energies and oscillator strengths:

 Excited State   1:      Singlet-A      2.0702 eV  598.91 nm  f=0.1657  <S**2>=0.000
     235 -> 237       -0.16743
     235 -> 238        0.25589
     236 -> 237        0.61702
     236 -> 238        0.13874
 This state for optimization and/or second-order correction.
 Total Energy, E(TD-HF/TD-KS) =  -2732.86162331
 Copying the excited state density for this state as the 1-particle RhoCI density.

 The electronic state is 1-A.
 Alpha  occ. eigenvalues --  -19.17533 -19.16877 -19.13649 -19.12728 -19.09852
 Alpha  occ. eigenvalues --  -14.37086 -14.36872 -14.32570 -14.29674 -10.32429
 Alpha  occ. eigenvalues --  -10.31911 -10.25884 -10.25332 -10.24462 -10.24403
 Alpha  occ. eigenvalues --  -10.23852 -10.23681 -10.23647 -10.23221 -10.23030
 Alpha  occ. eigenvalues --  -10.22798 -10.21644 -10.21378 -10.21370 -10.21208
 Alpha  occ. eigenvalues --  -10.21161 -10.21129 -10.20814 -10.20777 -10.20711
 Alpha  occ. eigenvalues --  -10.20644 -10.20619 -10.20613 -10.20555 -10.20288
 Alpha  occ. eigenvalues --  -10.20255 -10.20165 -10.19813 -10.19777 -10.19642
 Alpha  occ. eigenvalues --  -10.19566 -10.19515 -10.19515 -10.19452 -10.19399
 Alpha  occ. eigenvalues --  -10.19190 -10.19046 -10.18846 -10.18834 -10.18594
 Alpha  occ. eigenvalues --  -10.18436 -10.18379 -10.18245 -10.18234 -10.17987
 Alpha  occ. eigenvalues --  -10.17816 -10.17783 -10.17758 -10.17749 -10.17722
 Alpha  occ. eigenvalues --  -10.17459 -10.17063 -10.16757 -10.15274  -1.07826
 Alpha  occ. eigenvalues --   -1.06663  -1.00377  -0.99785  -0.99544  -0.98238
 Alpha  occ. eigenvalues --   -0.97781  -0.94413  -0.92404  -0.85972  -0.83125
 Alpha  occ. eigenvalues --   -0.83045  -0.82374  -0.81665  -0.81548  -0.80425
 Alpha  occ. eigenvalues --   -0.80115  -0.79461  -0.79009  -0.78806  -0.78071
 Alpha  occ. eigenvalues --   -0.76835  -0.76000  -0.75974  -0.74729  -0.74112
 Alpha  occ. eigenvalues --   -0.73459  -0.72852  -0.72481  -0.71923  -0.71459
 Alpha  occ. eigenvalues --   -0.70856  -0.69361  -0.69242  -0.68902  -0.68395
 Alpha  occ. eigenvalues --   -0.67855  -0.67009  -0.66309  -0.66304  -0.65741
 Alpha  occ. eigenvalues --   -0.64337  -0.64136  -0.63395  -0.62006  -0.61566
 Alpha  occ. eigenvalues --   -0.61417  -0.59334  -0.58846  -0.58395  -0.57345
 Alpha  occ. eigenvalues --   -0.57240  -0.57228  -0.56640  -0.56197  -0.55274
 Alpha  occ. eigenvalues --   -0.55136  -0.54778  -0.54511  -0.54097  -0.52969
 Alpha  occ. eigenvalues --   -0.52626  -0.52269  -0.51838  -0.51598  -0.50882
 Alpha  occ. eigenvalues --   -0.49851  -0.49466  -0.49317  -0.48708  -0.48577
 Alpha  occ. eigenvalues --   -0.48476  -0.47871  -0.47255  -0.47188  -0.47060
 Alpha  occ. eigenvalues --   -0.46757  -0.46459  -0.46430  -0.46183  -0.46047
 Alpha  occ. eigenvalues --   -0.45701  -0.45622  -0.45491  -0.45302  -0.45103
 Alpha  occ. eigenvalues --   -0.44958  -0.44759  -0.44252  -0.44202  -0.43721
 Alpha  occ. eigenvalues --   -0.43666  -0.43553  -0.43438  -0.43048  -0.43021
 Alpha  occ. eigenvalues --   -0.42809  -0.42599  -0.42185  -0.41878  -0.41843
 Alpha  occ. eigenvalues --   -0.41507  -0.41149  -0.41089  -0.40595  -0.40311
 Alpha  occ. eigenvalues --   -0.40185  -0.40144  -0.39800  -0.39731  -0.39583
 Alpha  occ. eigenvalues --   -0.39423  -0.39196  -0.39066  -0.38681  -0.38631
 Alpha  occ. eigenvalues --   -0.38412  -0.38345  -0.38215  -0.37875  -0.37720
 Alpha  occ. eigenvalues --   -0.37558  -0.37400  -0.37153  -0.36804  -0.36690
 Alpha  occ. eigenvalues --   -0.36038  -0.36013  -0.35776  -0.35637  -0.35481
 Alpha  occ. eigenvalues --   -0.35428  -0.35251  -0.35178  -0.34890  -0.34700
 Alpha  occ. eigenvalues --   -0.34624  -0.34419  -0.33986  -0.33890  -0.33787
 Alpha  occ. eigenvalues --   -0.33615  -0.33371  -0.32906  -0.32814  -0.32409
 Alpha  occ. eigenvalues --   -0.32327  -0.32195  -0.32184  -0.31710  -0.31415
 Alpha  occ. eigenvalues --   -0.31008  -0.30923  -0.30243  -0.30125  -0.30074
 Alpha  occ. eigenvalues --   -0.30014  -0.28782  -0.28615  -0.28129  -0.27601
 Alpha  occ. eigenvalues --   -0.27552  -0.26823  -0.26529  -0.26036  -0.25790
 Alpha  occ. eigenvalues --   -0.25005  -0.24408  -0.23737  -0.21590  -0.20109
 Alpha  occ. eigenvalues --   -0.18953
 Alpha virt. eigenvalues --   -0.10460  -0.07871  -0.04852  -0.02435  -0.01392
 Alpha virt. eigenvalues --   -0.01240   0.00286   0.00581   0.01522   0.03947
 Alpha virt. eigenvalues --    0.04061   0.04159   0.04542   0.04841   0.05112

 Mulliken charges:
               1
     1  C   -0.006970
     2  C   -0.043370
     3  C   -0.106155
     4  C   -0.076475
     5  N   -0.196492
     6  C   -0.105689
     7  C   -0.010235
     8  C   -0.090462
     9  C    0.014691
    10  C    0.120065
    11  C    0.154058
    12  C    0.123233
    13  C    0.206057
    14  O   -0.260807
    15  O   -0.370006
    16  N   -0.006866
    17  C    0.111082
    18  C   -0.131235
    19  C    0.040384
    20  C    0.058181
    21  C    0.111893
    22  C   -0.051193
    23  C   -0.094625
    24  N   -0.248428
    25  C    0.064849
    26  C   -0.173571
    27  C   -0.085767
    28  C    0.065939
    29  C    0.222048
    30  C   -0.038829
    31  C    0.080034
    32  N    0.106885
    33  C    0.102053
    34  C   -0.133804
    35  C    0.057549
    36  C   -0.017648
    37  C    0.022113
    38  C    0.005030
    39  O   -0.266717
    40  C    0.150356
    41  C    0.204795
    42  O   -0.220162
    43  O   -0.342517
    44  C    0.136814
    45  C    0.312770
    46  C   -0.136930
    47  C   -0.139017
    48  C    0.165202
    49  C    0.006823
    50  C   -0.001035
    51  C    0.202377
    52  C   -0.129784
    53  C    0.044733
    54  C    0.069880
    55  C   -0.022328
    56  C    0.045712
    57  C   -0.045046
    58  C   -0.032969
    59  C    0.018056
    60  C    0.052487
    61  C    0.032041
    62  C   -0.131565
    63  C   -0.010311
    64  C    0.232956
    65  H   -0.064406
    66  H   -0.020791
    67  H   -0.020843
    68  H    0.000048
    69  H    0.009563
    70  H    0.010915
    71  H   -0.059890
    72  H    0.049896
    73  H   -0.023064
    74  H   -0.028567
    75  H    0.039641
    76  H    0.004647
    77  H    0.008955
    78  H    0.020126
    79  H    0.001896
    80  H    0.049426
    81  H    0.075266
    82  H    0.036767
    83  H   -0.015443
    84  H   -0.021034
    85  H   -0.013276
    86  H    0.023651
    87  H    0.019360
    88  H    0.013515
    89  H   -0.013487
    90  H    0.019866
    91  H    0.057421
    92  H    0.035988
    93  H    0.051687
    94  H    0.017354
    95  H    0.046208
    96  H    0.030479
    97  H    0.068988
    98  H    0.026518
    99  H    0.005954
   100  H    0.002286
   101  H   -0.019467
   102  H    0.025596
   103  H   -0.020440
   104  H    0.011354
   105  H    0.014715
   106  H    0.032804
   107  H   -0.011858
   108  H   -0.082606
   109  H   -0.021976
   110  H   -0.004254
   111  H    0.000570
   112  H   -0.023405
   113  H    0.004404
   114  H    0.009081
   115  H   -0.084456
   116  H    0.023614
   117  H   -0.010226
   118  H    0.004680
   119  H    0.013052
   120  H   -0.018122
   121  H    0.002989
   122  H    0.020658
   123  H    0.019856
   124  H   -0.012830
   125  H   -0.007485
   126  H    0.009727
   127  H   -0.000365
   128  H    0.000958
   129  H   -0.001416
   130  H    0.002625
   131  H    0.030127
   132  H    0.015879
   133  H    0.016160
   134  H   -0.008277
   135  H   -0.171899
   136  H   -0.024107
   137  H    0.139440
   138  H    0.065143
 Sum of Mulliken charges =   0.00000

 Dipole moment (field-independent basis, Debye):
    X=              2.5954    Y=              5.9190    Z=              1.0887  Tot=              6.5541
 Quadrupole moment (field-independent basis, Debye-Ang):
   XX=           -351.8432   YY=           -384.9860   ZZ=           -393.4165
   XY=            -31.4760   XZ=              4.3442   YZ=             -4.2701

 Normal termination of Gaussian 09 at Sun Aug  4 21:57:59 2019.
