 Gaussian 09, Revision D.01,
 Gaussian 09:  ES64L-G09RevD.01 24-Apr-2013

 --------------------------
 # td=(NStates=1) B3LYP/SVP
 --------------------------

 --
 TD
 --
 Symbolic Z-matrix:
 Charge =  0 Multiplicity = 1

                         Standard orientation:
 ---------------------------------------------------------------------
 Center     Atomic      Atomic             Coordinates (Angstroms)
 Number     Number       Type             X           Y           Z
 ---------------------------------------------------------------------
      1          6           0       -5.040447   -1.917624    0.566107
      2          6           0       -4.839045    2.868571    1.686675
      3          6           0       -9.414678    3.139429   -0.226030
      4          6           0       -9.889272   -1.681234   -0.720406
      5          7           0       -5.194840    0.499826    1.030020
      6          6           0       -4.490614   -0.639918    0.865508
      7          6           0       -2.963169   -0.506023    1.311724
      8          6           0       -3.059609    0.921185    1.986251
      9          6           0       -4.440180    1.486170    1.545493
     10          6           0       -2.945690    0.929279    3.536447
     11          6           0       -1.991863   -0.656252    0.079340
     12          6           0       -0.632171   -0.441075    0.468028
     13          6           0        0.370145   -0.744964   -0.693657
     14          8           0        0.048668   -1.278616   -1.794252
     15          8           0        1.540426   -0.575163   -0.356234
     16          7           0       -7.082637    2.734405    0.549314
     17          6           0       -6.061659    3.412838    1.140099
     18          6           0       -6.402236    4.740125    1.113657
     19          6           0       -7.610525    4.843860    0.504106
     20          6           0       -8.136165    3.552941    0.181558
     21          6           0       -5.417791    5.936724    1.460252
     22          6           0       -8.418168    6.149480    0.378786
     23          6           0       -8.955658    6.478754   -0.815127
     24          7           0       -9.261138    0.682484   -0.470180
     25          6           0       -9.937555    1.869319   -0.539229
     26          6           0      -11.355195    1.651225   -1.011427
     27          6           0      -11.460267    0.301674   -1.068361
     28          6           0      -10.117908   -0.318838   -0.795549
     29          6           0      -12.395363    2.680573   -1.280279
     30          6           0      -12.709814   -0.493025   -1.583266
     31          6           0      -12.824683   -0.498583   -3.205859
     32          7           0       -7.559987   -1.392026   -0.020080
     33          6           0       -8.547862   -2.181600   -0.493637
     34          6           0       -8.030195   -3.513454   -0.676561
     35          6           0       -6.696602   -3.448530   -0.134756
     36          6           0       -6.351510   -2.083151    0.156232
     37          6           0       -8.767462   -4.746423   -0.960381
     38          6           0       -5.526364   -4.328697    0.051016
     39          8           0       -5.266603   -5.499376   -0.148796
     40          6           0       -4.369349   -3.230779    0.393860
     41          6           0       -3.706166   -3.790455    1.749134
     42          8           0       -4.152172   -3.331940    2.870177
     43          8           0       -2.831458   -4.682723    1.513820
     44          6           0       -2.505062   -5.394383    2.794170
     45          6           0        2.629488   -0.793598   -1.368287
     46          6           0        3.926642   -0.371999   -0.800493
     47          6           0        4.938824    0.342258   -1.402548
     48          6           0        4.782151    0.890612   -2.656810
     49          6           0        6.255167    0.512283   -0.585374
     50          6           0        7.471922    0.046522   -1.308738
     51          6           0        8.768964    0.079078   -0.467190
     52          6           0        9.959537   -0.559877   -0.975345
     53          6           0        9.952587   -2.161932   -1.020967
     54          6           0       11.240675   -0.105690   -0.068702
     55          6           0       12.571820   -0.538967   -0.547848
     56          6           0       13.809953   -0.066305    0.286786
     57          6           0       15.174023   -0.212289   -0.275675
     58          6           0       15.417670   -1.776492   -0.601447
     59          6           0       16.288090    0.384202    0.576612
     60          6           0       17.664514    0.439351   -0.143652
     61          6           0       18.760451    1.232634    0.788427
     62          6           0       20.156370    1.370357    0.248569
     63          6           0       20.336707    2.160898   -1.112025
     64          6           0       21.121088    2.044675    1.386726
     65          1           0       -4.147083    3.606984    2.175570
     66          1           0      -10.143954    4.019728   -0.389996
     67          1           0      -10.737021   -2.238474   -1.265685
     68          1           0       -2.703146   -1.489068    1.965193
     69          1           0       -2.272199    1.658488    1.709000
     70          1           0       -2.040628    0.671505    3.919697
     71          1           0       -3.061587    2.012490    3.748166
     72          1           0       -3.779145    0.559398    3.947903
     73          1           0       -2.153215   -1.674863   -0.187767
     74          1           0       -2.397463    0.130905   -0.642705
     75          1           0       -0.438927    0.471731    0.954164
     76          1           0       -0.162464   -1.303017    1.192847
     77          1           0       -4.591642    5.983608    0.886642
     78          1           0       -5.771644    7.085640    1.482901
     79          1           0       -4.837598    5.681061    2.443248
     80          1           0       -8.115421    6.875715    1.099728
     81          1           0       -8.993094    5.543359   -1.592945
     82          1           0       -9.448579    7.469526   -1.100009
     83          1           0      -12.344250    3.320543   -0.442719
     84          1           0      -12.345349    3.493279   -2.051819
     85          1           0      -13.274616    1.932135   -1.403108
     86          1           0      -12.917944   -1.279124   -1.008720
     87          1           0      -13.688113    0.093799   -1.344555
     88          1           0      -12.917860    0.578715   -3.471971
     89          1           0      -12.115597   -1.131810   -3.692021
     90          1           0      -13.593193   -0.916805   -3.460884
     91          1           0       -9.604808   -5.057746   -0.401864
     92          1           0       -8.996021   -4.611384   -2.146153
     93          1           0       -7.904426   -5.662945   -0.935843
     94          1           0       -3.700914   -3.129119   -0.401097
     95          1           0       -1.521510   -6.037872    2.413122
     96          1           0       -2.231863   -4.608238    3.765759
     97          1           0       -3.384895   -6.022849    3.182774
     98          1           0        2.625934   -1.794794   -1.634487
     99          1           0        2.288958   -0.117123   -2.272358
    100          1           0        4.320860   -0.822273    0.246640
    101          1           0        5.137942    1.947361   -2.541367
    102          1           0        5.444437    0.632455   -3.402225
    103          1           0        3.806405    1.053545   -3.001595
    104          1           0        6.217186    1.562464   -0.373452
    105          1           0        6.160383   -0.069687    0.276613
    106          1           0        7.329317   -0.961036   -1.708534
    107          1           0        7.686104    0.428806   -2.284962
    108          1           0        8.966063    1.157960   -0.148617
    109          1           0        8.696192   -0.269466    0.685237
    110          1           0       10.282010   -0.093237   -1.984288
    111          1           0        9.229688   -2.338023   -1.714071
    112          1           0       10.795582   -2.483275   -1.691027
    113          1           0        9.832006   -2.625122    0.096651
    114          1           0       11.245397    0.946859   -0.039352
    115          1           0       11.044744   -0.397586    0.959154
    116          1           0       12.582697   -1.509182   -0.718244
    117          1           0       12.969478    0.093548   -1.571265
    118          1           0       13.753040    0.962722    0.454782
    119          1           0       13.962887   -0.318610    1.381034
    120          1           0       15.206593    0.506274   -1.286871
    121          1           0       14.601522   -2.133990   -1.353830
    122          1           0       16.394820   -1.786720   -0.743827
    123          1           0       15.301580   -2.374500    0.374721
    124          1           0       16.005678    1.464630    0.820045
    125          1           0       16.544848   -0.376025    1.395295
    126          1           0       17.941179   -0.589783   -0.579058
    127          1           0       17.237010    1.308767   -1.202871
    128          1           0       18.466315    2.207244    0.882109
    129          1           0       18.671799    0.649709    1.787287
    130          1           0       20.455058    0.284863    0.184739
    131          1           0       20.180905    3.378568   -0.801829
    132          1           0       21.369029    2.245929   -1.334646
    133          1           0       19.774673    2.027570   -2.070954
    134          1           0       21.012727    1.435675    2.285367
    135          1           0       22.126887    2.035517    1.331223
    136          1           0       20.762641    3.144407    1.283698
    137          1           0       -6.992303    1.678499    0.361881
    138          1           0       -7.641747   -0.425681    0.109534
 ---------------------------------------------------------------------

 SCF Done:  E(RB3LYP) =  -2732.94655013     A.U. after   17 cycles

 Excitation energies and oscillator strengths:

 Excited State   1:      Singlet-A      2.0105 eV  616.69 nm  f=0.2168  <S**2>=0.000
     235 -> 237       -0.11249
     235 -> 238        0.28189
     236 -> 237        0.63636
 This state for optimization and/or second-order correction.
 Total Energy, E(TD-HF/TD-KS) =  -2732.87266615
 Copying the excited state density for this state as the 1-particle RhoCI density.

 The electronic state is 1-A.
 Alpha  occ. eigenvalues --  -19.20848 -19.18206 -19.12661 -19.11464 -19.09410
 Alpha  occ. eigenvalues --  -14.36557 -14.36479 -14.32534 -14.29654 -10.32033
 Alpha  occ. eigenvalues --  -10.30081 -10.28413 -10.28094 -10.26075 -10.23743
 Alpha  occ. eigenvalues --  -10.23428 -10.23421 -10.23276 -10.23091 -10.23067
 Alpha  occ. eigenvalues --  -10.21953 -10.21667 -10.21180 -10.21133 -10.21117
 Alpha  occ. eigenvalues --  -10.20860 -10.20758 -10.20666 -10.20604 -10.20603
 Alpha  occ. eigenvalues --  -10.20528 -10.20522 -10.20509 -10.20450 -10.20370
 Alpha  occ. eigenvalues --  -10.20360 -10.20130 -10.20100 -10.20067 -10.19883
 Alpha  occ. eigenvalues --  -10.19742 -10.19623 -10.19615 -10.19583 -10.19504
 Alpha  occ. eigenvalues --  -10.19456 -10.19441 -10.19257 -10.19218 -10.19113
 Alpha  occ. eigenvalues --  -10.19035 -10.19021 -10.18946 -10.18752 -10.18626
 Alpha  occ. eigenvalues --  -10.18479 -10.18322 -10.18287 -10.18204 -10.18053
 Alpha  occ. eigenvalues --  -10.17618 -10.17204 -10.17067 -10.16740  -1.11997
 Alpha  occ. eigenvalues --   -1.11769  -1.02589  -0.98234  -0.97942  -0.97113
 Alpha  occ. eigenvalues --   -0.96253  -0.93837  -0.92611  -0.84735  -0.84296
 Alpha  occ. eigenvalues --   -0.82076  -0.81117  -0.80846  -0.80667  -0.80244
 Alpha  occ. eigenvalues --   -0.79533  -0.79314  -0.78912  -0.78112  -0.77948
 Alpha  occ. eigenvalues --   -0.76936  -0.76113  -0.74933  -0.74667  -0.74399
 Alpha  occ. eigenvalues --   -0.74088  -0.72858  -0.72234  -0.71773  -0.69879
 Alpha  occ. eigenvalues --   -0.69805  -0.69236  -0.69085  -0.68358  -0.67825
 Alpha  occ. eigenvalues --   -0.67655  -0.67194  -0.66987  -0.66436  -0.65817
 Alpha  occ. eigenvalues --   -0.64041  -0.63420  -0.63055  -0.61606  -0.61509
 Alpha  occ. eigenvalues --   -0.60243  -0.59780  -0.57688  -0.57177  -0.57142
 Alpha  occ. eigenvalues --   -0.57074  -0.56019  -0.55707  -0.55350  -0.55140
 Alpha  occ. eigenvalues --   -0.54986  -0.54747  -0.53406  -0.53163  -0.52787
 Alpha  occ. eigenvalues --   -0.52044  -0.51805  -0.51335  -0.51203  -0.50639
 Alpha  occ. eigenvalues --   -0.50165  -0.49554  -0.49003  -0.48873  -0.48569
 Alpha  occ. eigenvalues --   -0.48329  -0.47676  -0.47557  -0.47392  -0.47146
 Alpha  occ. eigenvalues --   -0.46847  -0.46642  -0.46389  -0.45997  -0.45753
 Alpha  occ. eigenvalues --   -0.45360  -0.45305  -0.45095  -0.44512  -0.44270
 Alpha  occ. eigenvalues --   -0.44242  -0.43995  -0.43859  -0.43751  -0.43652
 Alpha  occ. eigenvalues --   -0.43155  -0.43095  -0.42974  -0.42706  -0.42239
 Alpha  occ. eigenvalues --   -0.42125  -0.41930  -0.41595  -0.41377  -0.41301
 Alpha  occ. eigenvalues --   -0.41042  -0.40984  -0.40611  -0.40522  -0.40210
 Alpha  occ. eigenvalues --   -0.39993  -0.39941  -0.39718  -0.39293  -0.39265
 Alpha  occ. eigenvalues --   -0.39165  -0.38947  -0.38849  -0.38671  -0.38613
 Alpha  occ. eigenvalues --   -0.38372  -0.38344  -0.38103  -0.37930  -0.37793
 Alpha  occ. eigenvalues --   -0.37698  -0.37525  -0.36940  -0.36889  -0.36633
 Alpha  occ. eigenvalues --   -0.36457  -0.36420  -0.36181  -0.36060  -0.35914
 Alpha  occ. eigenvalues --   -0.35805  -0.35561  -0.35323  -0.34800  -0.34606
 Alpha  occ. eigenvalues --   -0.34427  -0.34181  -0.34100  -0.33986  -0.33758
 Alpha  occ. eigenvalues --   -0.33650  -0.33358  -0.33003  -0.32510  -0.32087
 Alpha  occ. eigenvalues --   -0.31903  -0.31739  -0.31555  -0.30982  -0.30317
 Alpha  occ. eigenvalues --   -0.30114  -0.30094  -0.29966  -0.29820  -0.29491
 Alpha  occ. eigenvalues --   -0.29218  -0.28794  -0.28637  -0.28009  -0.26810
 Alpha  occ. eigenvalues --   -0.26639  -0.26130  -0.25732  -0.25603  -0.25299
 Alpha  occ. eigenvalues --   -0.24449  -0.24349  -0.24207  -0.22698  -0.19676
 Alpha  occ. eigenvalues --   -0.18656
 Alpha virt. eigenvalues --   -0.10416  -0.07076  -0.04508  -0.01609  -0.00661
 Alpha virt. eigenvalues --   -0.00196   0.00801   0.01706   0.02421   0.02516
 Alpha virt. eigenvalues --    0.04177   0.04305   0.04336   0.04478   0.04491

 Mulliken charges:
               1
     1  C    0.015163
     2  C   -0.060540
     3  C   -0.094979
     4  C   -0.073310
     5  N   -0.160581
     6  C   -0.036796
     7  C   -0.124182
     8  C   -0.055656
     9  C   -0.007795
    10  C    0.178098
    11  C    0.133747
    12  C    0.005728
    13  C    0.142708
    14  O   -0.323921
    15  O   -0.231325
    16  N   -0.101988
    17  C    0.075503
    18  C   -0.088515
    19  C   -0.046797
    20  C    0.083512
    21  C    0.063712
    22  C    0.026490
    23  C   -0.089971
    24  N   -0.228936
    25  C    0.056627
    26  C   -0.112703
    27  C   -0.096577
    28  C    0.026996
    29  C    0.084644
    30  C    0.031682
    31  C    0.139169
    32  N   -0.011679
    33  C    0.080769
    34  C   -0.097993
    35  C   -0.055108
    36  C    0.103961
    37  C   -0.003640
    38  C    0.101375
    39  O   -0.170199
    40  C   -0.061827
    41  C    0.201584
    42  O   -0.315429
    43  O   -0.213106
    44  C    0.060139
    45  C    0.291467
    46  C   -0.131571
    47  C   -0.224364
    48  C    0.195873
    49  C    0.189966
    50  C    0.065851
    51  C    0.004293
    52  C   -0.131923
    53  C    0.083392
    54  C    0.057986
    55  C    0.072377
    56  C    0.108792
    57  C   -0.174200
    58  C    0.083199
    59  C    0.019235
    60  C   -0.122602
    61  C    0.089370
    62  C   -0.091972
    63  C    0.005257
    64  C    0.034061
    65  H   -0.007786
    66  H    0.000006
    67  H    0.022200
    68  H    0.040803
    69  H   -0.007746
    70  H   -0.006618
    71  H   -0.023881
    72  H   -0.010869
    73  H   -0.005503
    74  H    0.020543
    75  H    0.002436
    76  H    0.036159
    77  H   -0.007580
    78  H    0.043123
    79  H    0.018105
    80  H   -0.004788
    81  H    0.063363
    82  H    0.049430
    83  H    0.007515
    84  H    0.025054
    85  H    0.031641
    86  H   -0.031503
    87  H   -0.005649
    88  H    0.021968
    89  H    0.006132
    90  H   -0.070562
    91  H    0.041005
    92  H    0.042552
    93  H    0.065175
    94  H    0.046300
    95  H    0.072339
    96  H    0.089042
    97  H    0.079859
    98  H    0.024009
    99  H    0.050269
   100  H    0.013480
   101  H   -0.015571
   102  H   -0.000747
   103  H   -0.011728
   104  H    0.006183
   105  H   -0.026405
   106  H   -0.020233
   107  H   -0.026984
   108  H   -0.012117
   109  H   -0.013497
   110  H   -0.003055
   111  H   -0.033262
   112  H    0.008682
   113  H    0.050087
   114  H   -0.029883
   115  H   -0.015964
   116  H   -0.037771
   117  H    0.006964
   118  H   -0.055393
   119  H   -0.029434
   120  H   -0.003322
   121  H    0.047174
   122  H   -0.055519
   123  H    0.002532
   124  H    0.020845
   125  H    0.004016
   126  H    0.041631
   127  H   -0.007626
   128  H   -0.031464
   129  H    0.012771
   130  H   -0.004653
   131  H   -0.004250
   132  H    0.001336
   133  H    0.041090
   134  H    0.005018
   135  H   -0.017530
   136  H    0.025687
   137  H    0.175127
   138  H    0.104699
 Sum of Mulliken charges =   0.00000

 Dipole moment (field-independent basis, Debye):
    X=              4.1650    Y=              3.8004    Z=              0.3885  Tot=              5.6516
 Quadrupole moment (field-independent basis, Debye-Ang):
   XX=           -342.5550   YY=           -376.9591   ZZ=           -395.8250
   XY=            -19.6663   XZ=             18.3471   YZ=             -7.2658

 Normal termination of Gaussian 09 at Sun Aug  4 17:56:28 2019.
