 Gaussian 09, Revision D.01,
 Gaussian 09:  ES64L-G09RevD.01 24-Apr-2013

 --------------------------
 # td=(NStates=1) B3LYP/SVP
 --------------------------

 --
 TD
 --
 Symbolic Z-matrix:
 Charge =  0 Multiplicity = 1

                         Standard orientation:
 ---------------------------------------------------------------------
 Center     Atomic      Atomic             Coordinates (Angstroms)
 Number     Number       Type             X           Y           Z
 ---------------------------------------------------------------------
      1          6           0       -5.214163   -2.039137    0.415073
      2          6           0       -4.649093    2.710220    1.532679
      3          6           0       -9.226518    3.472411   -0.214718
      4          6           0       -9.875001   -1.306866   -0.995043
      5          7           0       -5.180538    0.391464    0.842306
      6          6           0       -4.553245   -0.806577    0.750700
      7          6           0       -3.120361   -0.603441    1.255833
      8          6           0       -3.125224    0.764360    1.901038
      9          6           0       -4.356405    1.361632    1.384694
     10          6           0       -2.972614    0.748584    3.354417
     11          6           0       -2.106721   -0.921256    0.142401
     12          6           0       -0.528201   -0.799873    0.593100
     13          6           0        0.365857   -1.146807   -0.536108
     14          8           0        0.030204   -1.611089   -1.575744
     15          8           0        1.681324   -0.871130   -0.175459
     16          7           0       -6.978913    2.791825    0.524545
     17          6           0       -5.829256    3.314575    1.064551
     18          6           0       -6.115186    4.752911    1.118462
     19          6           0       -7.419439    5.055305    0.552644
     20          6           0       -8.049290    3.718031    0.271346
     21          6           0       -5.071244    5.708292    1.693804
     22          6           0       -8.089283    6.239280    0.530930
     23          6           0       -8.988681    6.704051   -0.297419
     24          7           0       -9.259350    0.990344   -0.388166
     25          6           0       -9.870600    2.155299   -0.524159
     26          6           0      -11.221921    2.033879   -1.126401
     27          6           0      -11.301919    0.698924   -1.311966
     28          6           0      -10.098459    0.020859   -0.860287
     29          6           0      -12.180357    3.040651   -1.389361
     30          6           0      -12.683207   -0.049790   -1.789993
     31          6           0      -12.305418   -0.477858   -3.278829
     32          7           0       -7.502298   -1.183445   -0.371365
     33          6           0       -8.587938   -1.917695   -0.630816
     34          6           0       -8.262901   -3.331027   -0.655724
     35          6           0       -6.933256   -3.363653   -0.351346
     36          6           0       -6.518912   -2.037689   -0.029303
     37          6           0       -9.080256   -4.528713   -1.085133
     38          6           0       -5.842174   -4.334108   -0.009350
     39          8           0       -5.818041   -5.453903   -0.019454
     40          6           0       -4.625558   -3.380041    0.476371
     41          6           0       -3.948626   -3.975726    1.669351
     42          8           0       -4.119952   -3.550041    2.810074
     43          8           0       -3.104512   -4.953790    1.344818
     44          6           0       -2.590851   -5.619062    2.558278
     45          6           0        2.622118   -0.957284   -1.195341
     46          6           0        3.952933   -0.758433   -0.517312
     47          6           0        4.854456   -0.009099   -1.052809
     48          6           0        4.785990    0.935538   -2.259109
     49          6           0        6.242617    0.155117   -0.314964
     50          6           0        7.491914   -0.382479   -0.999323
     51          6           0        8.685990   -0.195515   -0.134310
     52          6           0       10.095359   -0.671467   -0.733968
     53          6           0        9.881231   -2.347221   -0.787530
     54          6           0       11.335713   -0.133547    0.062629
     55          6           0       12.705790   -0.607848   -0.498576
     56          6           0       13.835905    0.177192    0.275459
     57          6           0       15.266821   -0.150474   -0.286717
     58          6           0       15.648965   -1.711430   -0.122079
     59          6           0       16.182677    0.728688    0.495134
     60          6           0       17.699655    0.673367   -0.161489
     61          6           0       18.655090    1.684339    0.471451
     62          6           0       20.122272    1.638152   -0.056775
     63          6           0       20.184144    1.863274   -1.549514
     64          6           0       20.886935    2.596588    0.716322
     65          1           0       -3.810593    3.374303    2.022876
     66          1           0       -9.870356    4.364740   -0.460468
     67          1           0      -10.867795   -1.902062   -1.055780
     68          1           0       -3.081956   -1.498733    2.031433
     69          1           0       -2.187326    1.536477    1.732170
     70          1           0       -2.145387   -0.271814    3.778217
     71          1           0       -2.645042    1.519529    3.904817
     72          1           0       -4.060791    0.351910    3.734153
     73          1           0       -2.344007   -1.891818   -0.399482
     74          1           0       -2.235345   -0.320097   -0.553292
     75          1           0       -0.261595    0.098540    1.014766
     76          1           0       -0.398285   -1.439438    1.600558
     77          1           0       -4.122653    5.897442    1.020580
     78          1           0       -5.521055    6.598429    1.718713
     79          1           0       -4.601447    5.433407    2.527004
     80          1           0       -7.779172    7.107673    1.285232
     81          1           0       -9.415931    5.927060   -0.996230
     82          1           0       -9.208889    7.803302   -0.256045
     83          1           0      -12.292827    3.919236   -0.611170
     84          1           0      -11.807728    3.689883   -2.250262
     85          1           0      -13.187997    2.591178   -1.586619
     86          1           0      -12.721547   -1.093637   -1.058021
     87          1           0      -13.628231    0.568077   -1.763614
     88          1           0      -11.855877    0.339687   -3.838189
     89          1           0      -11.632832   -1.367894   -3.312153
     90          1           0      -13.373331   -0.817477   -3.740642
     91          1           0       -9.958998   -4.753320   -0.372344
     92          1           0       -9.420268   -4.169161   -2.208146
     93          1           0       -8.552529   -5.328459   -1.304554
     94          1           0       -4.106567   -3.452867   -0.443444
     95          1           0       -1.714658   -6.392576    2.272117
     96          1           0       -2.062059   -4.941358    3.338318
     97          1           0       -3.465284   -5.888018    3.026793
     98          1           0        2.656301   -1.815724   -1.789086
     99          1           0        2.403403   -0.175538   -1.888480
    100          1           0        4.314064   -1.316423    0.388325
    101          1           0        5.214832    2.049925   -2.105203
    102          1           0        5.533168    0.630352   -3.035272
    103          1           0        3.594235    1.159219   -2.584289
    104          1           0        6.365524    1.273609    0.093644
    105          1           0        6.157835   -0.492493    0.548304
    106          1           0        7.507316   -1.317839   -1.405927
    107          1           0        7.653917    0.191680   -1.959135
    108          1           0        8.956263    1.000005    0.073550
    109          1           0        8.442705   -0.570541    0.949750
    110          1           0       10.126025   -0.412853   -1.719586
    111          1           0        9.139715   -2.621268   -1.281447
    112          1           0       10.755165   -2.744824   -1.137914
    113          1           0        9.702695   -2.874672    0.223602
    114          1           0       11.097633    0.947321    0.138833
    115          1           0       11.089264   -0.597131    1.194182
    116          1           0       12.928504   -1.794797   -0.251982
    117          1           0       12.818964   -0.397353   -1.558740
    118          1           0       13.616588    1.447444    0.130009
    119          1           0       13.737069    0.044469    1.436844
    120          1           0       15.249316   -0.035255   -1.358477
    121          1           0       14.844654   -2.279183   -0.634993
    122          1           0       16.482602   -1.871280   -0.552060
    123          1           0       15.666894   -2.059873    0.937115
    124          1           0       15.838079    1.786731    0.443060
    125          1           0       16.069944    0.440096    1.556139
    126          1           0       18.285211   -0.280858   -0.083530
    127          1           0       17.440873    0.913418   -1.208025
    128          1           0       18.164516    2.623096    0.115682
    129          1           0       18.666869    1.642673    1.684848
    130          1           0       20.479556    0.368327   -0.031801
    131          1           0       19.533626    2.773724   -1.787726
    132          1           0       21.233585    2.072773   -1.853411
    133          1           0       19.858676    0.901608   -2.166265
    134          1           0       21.015040    2.290297    1.812296
    135          1           0       21.973217    2.766133    0.238230
    136          1           0       20.423440    3.595980    0.736480
    137          1           0       -6.963169    1.589722    0.557274
    138          1           0       -7.601166   -0.178963   -0.172608
 ---------------------------------------------------------------------

 SCF Done:  E(RB3LYP) =  -2732.94446736     A.U. after   17 cycles

 Excitation energies and oscillator strengths:

 Excited State   1:      Singlet-A      2.0192 eV  614.03 nm  f=0.2327  <S**2>=0.000
     235 -> 237       -0.11260
     235 -> 238        0.24100
     236 -> 237        0.64926
 This state for optimization and/or second-order correction.
 Total Energy, E(TD-HF/TD-KS) =  -2732.87026343
 Copying the excited state density for this state as the 1-particle RhoCI density.

 The electronic state is 1-A.
 Alpha  occ. eigenvalues --  -19.18882 -19.16968 -19.13664 -19.13322 -19.12189
 Alpha  occ. eigenvalues --  -14.37614 -14.37163 -14.32656 -14.29854 -10.31907
 Alpha  occ. eigenvalues --  -10.31573 -10.28255 -10.25620 -10.24262 -10.23829
 Alpha  occ. eigenvalues --  -10.23602 -10.23360 -10.23318 -10.23141 -10.22911
 Alpha  occ. eigenvalues --  -10.22029 -10.21926 -10.21389 -10.21312 -10.21033
 Alpha  occ. eigenvalues --  -10.21012 -10.20935 -10.20866 -10.20822 -10.20750
 Alpha  occ. eigenvalues --  -10.20542 -10.20498 -10.20486 -10.20440 -10.20413
 Alpha  occ. eigenvalues --  -10.20402 -10.20238 -10.20224 -10.20181 -10.20062
 Alpha  occ. eigenvalues --  -10.19998 -10.19974 -10.19877 -10.19706 -10.19564
 Alpha  occ. eigenvalues --  -10.19398 -10.19337 -10.19329 -10.19255 -10.18955
 Alpha  occ. eigenvalues --  -10.18939 -10.18839 -10.18837 -10.18818 -10.18635
 Alpha  occ. eigenvalues --  -10.18605 -10.18419 -10.18235 -10.18225 -10.18125
 Alpha  occ. eigenvalues --  -10.17926 -10.17672 -10.16836 -10.16087  -1.10021
 Alpha  occ. eigenvalues --   -1.09577  -1.09203  -1.02210  -1.00247  -0.99891
 Alpha  occ. eigenvalues --   -0.95624  -0.94455  -0.94014  -0.85816  -0.82588
 Alpha  occ. eigenvalues --   -0.82208  -0.81321  -0.81133  -0.80634  -0.80270
 Alpha  occ. eigenvalues --   -0.80228  -0.79517  -0.79302  -0.78905  -0.77895
 Alpha  occ. eigenvalues --   -0.76801  -0.76040  -0.75820  -0.74692  -0.73805
 Alpha  occ. eigenvalues --   -0.73179  -0.72951  -0.71865  -0.71341  -0.70463
 Alpha  occ. eigenvalues --   -0.69981  -0.69685  -0.68563  -0.67872  -0.67627
 Alpha  occ. eigenvalues --   -0.67241  -0.67130  -0.66557  -0.65756  -0.64617
 Alpha  occ. eigenvalues --   -0.64046  -0.63183  -0.62696  -0.61663  -0.60701
 Alpha  occ. eigenvalues --   -0.59695  -0.58797  -0.58233  -0.57948  -0.57469
 Alpha  occ. eigenvalues --   -0.56998  -0.56460  -0.56005  -0.55740  -0.55513
 Alpha  occ. eigenvalues --   -0.55073  -0.54486  -0.53114  -0.53081  -0.52812
 Alpha  occ. eigenvalues --   -0.52579  -0.52149  -0.51652  -0.51212  -0.50938
 Alpha  occ. eigenvalues --   -0.49910  -0.49604  -0.49259  -0.49112  -0.48071
 Alpha  occ. eigenvalues --   -0.47846  -0.47631  -0.47369  -0.47307  -0.47219
 Alpha  occ. eigenvalues --   -0.46598  -0.46327  -0.46084  -0.45982  -0.45729
 Alpha  occ. eigenvalues --   -0.45423  -0.45214  -0.45004  -0.44617  -0.44542
 Alpha  occ. eigenvalues --   -0.44421  -0.44129  -0.43908  -0.43749  -0.43442
 Alpha  occ. eigenvalues --   -0.43370  -0.43319  -0.43127  -0.42915  -0.42685
 Alpha  occ. eigenvalues --   -0.42260  -0.42037  -0.41967  -0.41913  -0.41690
 Alpha  occ. eigenvalues --   -0.41444  -0.41212  -0.41001  -0.40941  -0.40642
 Alpha  occ. eigenvalues --   -0.40195  -0.39885  -0.39794  -0.39752  -0.39531
 Alpha  occ. eigenvalues --   -0.39069  -0.38928  -0.38894  -0.38778  -0.38627
 Alpha  occ. eigenvalues --   -0.38524  -0.38288  -0.38150  -0.37990  -0.37932
 Alpha  occ. eigenvalues --   -0.37903  -0.37403  -0.37183  -0.36959  -0.36716
 Alpha  occ. eigenvalues --   -0.36706  -0.36380  -0.36180  -0.36131  -0.35740
 Alpha  occ. eigenvalues --   -0.35716  -0.35345  -0.35201  -0.34714  -0.34704
 Alpha  occ. eigenvalues --   -0.34606  -0.34540  -0.34213  -0.33886  -0.33339
 Alpha  occ. eigenvalues --   -0.33221  -0.33147  -0.32770  -0.32352  -0.32181
 Alpha  occ. eigenvalues --   -0.32019  -0.31493  -0.31423  -0.30996  -0.30834
 Alpha  occ. eigenvalues --   -0.30726  -0.30551  -0.30468  -0.30260  -0.30120
 Alpha  occ. eigenvalues --   -0.29547  -0.28921  -0.28687  -0.28280  -0.27813
 Alpha  occ. eigenvalues --   -0.27643  -0.27056  -0.26853  -0.26273  -0.25771
 Alpha  occ. eigenvalues --   -0.25533  -0.25107  -0.23059  -0.22500  -0.20774
 Alpha  occ. eigenvalues --   -0.18070
 Alpha virt. eigenvalues --   -0.09920  -0.07981  -0.03941  -0.01186  -0.00641
 Alpha virt. eigenvalues --   -0.00470   0.00953   0.01592   0.01974   0.03461
 Alpha virt. eigenvalues --    0.03556   0.03562   0.04007   0.04131   0.04387

 Mulliken charges:
               1
     1  C   -0.067542
     2  C   -0.117437
     3  C   -0.112073
     4  C   -0.102630
     5  N   -0.218071
     6  C   -0.093540
     7  C   -0.036045
     8  C   -0.027621
     9  C    0.047310
    10  C   -0.019482
    11  C    0.167933
    12  C    0.017500
    13  C    0.196600
    14  O   -0.199558
    15  O   -0.333415
    16  N   -0.213934
    17  C    0.153892
    18  C   -0.181040
    19  C    0.106522
    20  C    0.197118
    21  C    0.199490
    22  C   -0.135615
    23  C   -0.050755
    24  N   -0.198910
    25  C    0.001531
    26  C   -0.096410
    27  C   -0.098021
    28  C    0.069348
    29  C    0.053761
    30  C   -0.033257
    31  C   -0.027542
    32  N    0.030351
    33  C    0.026118
    34  C   -0.182057
    35  C   -0.059469
    36  C    0.111106
    37  C    0.126651
    38  C    0.024507
    39  O   -0.046990
    40  C    0.014391
    41  C    0.221473
    42  O   -0.256365
    43  O   -0.289811
    44  C    0.176760
    45  C    0.349985
    46  C   -0.091972
    47  C   -0.112913
    48  C   -0.013495
    49  C    0.029532
    50  C    0.111561
    51  C   -0.076885
    52  C   -0.037843
    53  C    0.104202
    54  C    0.010207
    55  C    0.031558
    56  C   -0.092256
    57  C   -0.069536
    58  C    0.095370
    59  C    0.061956
    60  C    0.005604
    61  C   -0.012302
    62  C   -0.142105
    63  C   -0.004432
    64  C    0.039598
    65  H    0.012197
    66  H   -0.018159
    67  H    0.023271
    68  H    0.048613
    69  H    0.014181
    70  H    0.024308
    71  H   -0.002952
    72  H    0.036816
    73  H    0.024375
    74  H   -0.082517
    75  H   -0.005345
    76  H    0.049499
    77  H    0.019128
    78  H   -0.033980
    79  H   -0.013702
    80  H    0.018293
    81  H    0.030283
    82  H    0.036636
    83  H    0.027348
    84  H    0.021653
    85  H    0.018880
    86  H    0.036212
    87  H    0.032130
    88  H    0.031122
    89  H    0.029508
    90  H    0.015307
    91  H    0.051826
    92  H    0.038803
    93  H   -0.019301
    94  H    0.042214
    95  H    0.065184
    96  H    0.041596
    97  H    0.018230
    98  H    0.006396
    99  H   -0.026464
   100  H   -0.001058
   101  H    0.027113
   102  H    0.034491
   103  H    0.042740
   104  H    0.031079
   105  H   -0.022684
   106  H   -0.037648
   107  H   -0.021026
   108  H   -0.008239
   109  H    0.009950
   110  H   -0.033596
   111  H   -0.064734
   112  H   -0.022223
   113  H   -0.000980
   114  H    0.008402
   115  H    0.017086
   116  H    0.046176
   117  H    0.002382
   118  H    0.007517
   119  H    0.017744
   120  H   -0.016775
   121  H   -0.001329
   122  H   -0.044242
   123  H    0.007559
   124  H   -0.009805
   125  H   -0.006669
   126  H    0.008752
   127  H    0.004480
   128  H   -0.007315
   129  H    0.019485
   130  H    0.004825
   131  H    0.009729
   132  H    0.010771
   133  H    0.031923
   134  H    0.022350
   135  H    0.013245
   136  H    0.007433
   137  H    0.229852
   138  H    0.141045
 Sum of Mulliken charges =   0.00000

 Dipole moment (field-independent basis, Debye):
    X=              2.2321    Y=              3.1716    Z=              0.0674  Tot=              3.8790
 Quadrupole moment (field-independent basis, Debye-Ang):
   XX=           -368.7219   YY=           -377.1185   ZZ=           -396.9436
   XY=            -16.4829   XZ=              2.6969   YZ=             -0.3008

 Normal termination of Gaussian 09 at Fri Aug  2 12:28:13 2019.
