 Gaussian 09, Revision D.01,
 Gaussian 09:  ES64L-G09RevD.01 24-Apr-2013

 --------------------------
 # td=(NStates=1) B3LYP/SVP
 --------------------------

 --
 TD
 --
 Symbolic Z-matrix:
 Charge =  0 Multiplicity = 1

                         Standard orientation:
 ---------------------------------------------------------------------
 Center     Atomic      Atomic             Coordinates (Angstroms)
 Number     Number       Type             X           Y           Z
 ---------------------------------------------------------------------
      1          6           0       -5.080386   -1.906429    0.435102
      2          6           0       -4.731364    2.760819    1.448289
      3          6           0       -9.372993    3.276259   -0.137393
      4          6           0       -9.758184   -1.483363   -1.060645
      5          7           0       -5.184767    0.456527    0.938116
      6          6           0       -4.452937   -0.706255    0.854565
      7          6           0       -3.095191   -0.474157    1.318573
      8          6           0       -3.085043    0.905758    1.986811
      9          6           0       -4.429970    1.435226    1.413525
     10          6           0       -3.036840    0.860051    3.484074
     11          6           0       -2.052336   -0.731568    0.126962
     12          6           0       -0.732139   -0.829192    0.650667
     13          6           0        0.353871   -1.155471   -0.524259
     14          8           0        0.035651   -1.622048   -1.558881
     15          8           0        1.485122   -0.720534   -0.104957
     16          7           0       -7.160516    2.784477    0.696207
     17          6           0       -5.942624    3.381569    1.117051
     18          6           0       -6.249353    4.775170    0.967309
     19          6           0       -7.500261    4.976649    0.478722
     20          6           0       -8.030616    3.638527    0.278640
     21          6           0       -5.212528    5.847024    1.500814
     22          6           0       -8.118374    6.233435    0.211316
     23          6           0       -8.974617    6.640918   -0.833443
     24          7           0       -9.095361    0.873900   -0.399060
     25          6           0       -9.860125    2.006964   -0.530174
     26          6           0      -11.201541    1.794728   -0.937158
     27          6           0      -11.301972    0.464716   -1.306582
     28          6           0       -9.992131   -0.156519   -0.900568
     29          6           0      -12.274437    2.995374   -1.068134
     30          6           0      -12.584398   -0.166956   -1.789771
     31          6           0      -12.648310   -0.370681   -3.256479
     32          7           0       -7.438975   -1.268588   -0.248969
     33          6           0       -8.408671   -2.022371   -0.704077
     34          6           0       -8.066345   -3.396995   -0.697390
     35          6           0       -6.671864   -3.359344   -0.326535
     36          6           0       -6.329149   -2.078681   -0.023467
     37          6           0       -8.920188   -4.516631   -1.250572
     38          6           0       -5.653563   -4.276636   -0.029370
     39          8           0       -5.544101   -5.420727   -0.128880
     40          6           0       -4.575995   -3.365700    0.448189
     41          6           0       -3.990929   -3.851251    1.769895
     42          8           0       -4.338080   -3.496355    2.866326
     43          8           0       -3.012221   -4.758288    1.563565
     44          6           0       -2.473078   -5.294210    2.750661
     45          6           0        2.559330   -1.058814   -1.114980
     46          6           0        3.955476   -0.769325   -0.470241
     47          6           0        4.932264    0.044421   -0.977083
     48          6           0        4.904133    0.586089   -2.352684
     49          6           0        6.153974    0.108785   -0.216542
     50          6           0        7.427170   -0.471296   -0.933114
     51          6           0        8.689382   -0.128927   -0.196034
     52          6           0        9.931248   -0.737868   -0.805639
     53          6           0        9.963917   -2.317588   -0.808547
     54          6           0       11.241912   -0.140936   -0.009783
     55          6           0       12.618314   -0.529304   -0.597385
     56          6           0       13.848343    0.032139    0.278396
     57          6           0       15.181873   -0.036984   -0.395907
     58          6           0       15.541790   -1.585151   -0.550308
     59          6           0       16.279653    0.728636    0.339845
     60          6           0       17.759550    0.726338   -0.105171
     61          6           0       18.624180    1.694936    0.566263
     62          6           0       20.096706    1.603824    0.158075
     63          6           0       20.200024    1.995084   -1.449071
     64          6           0       20.992859    2.464578    0.976276
     65          1           0       -3.765030    3.114432    1.786703
     66          1           0       -9.956756    4.219030   -0.291431
     67          1           0      -10.641629   -2.051624   -1.324747
     68          1           0       -2.575623   -1.131458    2.198253
     69          1           0       -2.341479    1.590082    1.439557
     70          1           0       -2.071133    0.575434    3.776082
     71          1           0       -3.433843    1.790763    4.089696
     72          1           0       -3.880144    0.096594    3.529033
     73          1           0       -2.512785   -1.594963   -0.224173
     74          1           0       -2.082609   -0.094225   -0.809278
     75          1           0       -0.214394   -0.006614    1.179690
     76          1           0       -0.870101   -1.819958    1.294066
     77          1           0       -4.338647    5.840210    0.860727
     78          1           0       -5.710725    6.858162    1.508371
     79          1           0       -5.318125    5.669390    2.624533
     80          1           0       -7.701006    7.087122    0.971338
     81          1           0       -9.255081    5.855579   -1.435891
     82          1           0       -9.512061    7.668221   -0.940258
     83          1           0      -12.420867    3.554342   -0.158274
     84          1           0      -12.032385    3.547575   -1.739194
     85          1           0      -13.214624    2.531656   -1.297984
     86          1           0      -12.681459   -1.290072   -1.413995
     87          1           0      -13.503050    0.558738   -1.490056
     88          1           0      -12.373930    0.517222   -3.663500
     89          1           0      -11.802127   -0.942647   -3.696928
     90          1           0      -13.612605   -0.782243   -3.599205
     91          1           0       -9.719973   -4.736017   -0.501037
     92          1           0       -9.169783   -4.306770   -2.248028
     93          1           0       -8.283683   -5.523769   -1.715216
     94          1           0       -3.660554   -3.370606   -0.298781
     95          1           0       -1.847122   -6.414377    2.583285
     96          1           0       -1.893644   -4.700696    3.414656
     97          1           0       -3.305644   -5.617868    3.434797
     98          1           0        2.634414   -2.157996   -1.161830
     99          1           0        2.410865   -0.648928   -2.149251
    100          1           0        4.047705   -1.298550    0.515931
    101          1           0        5.159586    1.614820   -2.494036
    102          1           0        5.332845    0.277802   -3.256725
    103          1           0        3.858442    0.753435   -2.914826
    104          1           0        6.455833    1.211051   -0.202429
    105          1           0        6.136632   -0.561322    0.769327
    106          1           0        7.268032   -1.495568   -1.166925
    107          1           0        7.514363   -0.225892   -1.922302
    108          1           0        8.684009    0.920370   -0.221063
    109          1           0        8.387551   -0.513734    0.884100
    110          1           0       10.087018   -0.185927   -1.799068
    111          1           0        9.210359   -2.803276   -1.404405
    112          1           0       10.783344   -2.443219   -1.231664
    113          1           0       10.003994   -2.705478    0.222794
    114          1           0       10.918821    1.088399    0.173872
    115          1           0       11.244535   -0.633175    1.050839
    116          1           0       12.613619   -1.588394   -0.677915
    117          1           0       12.638001   -0.201324   -1.631281
    118          1           0       13.550971    1.017157    0.573653
    119          1           0       13.886525   -0.453519    1.409092
    120          1           0       15.235016    0.430878   -1.559857
    121          1           0       14.673383   -1.885042   -1.230882
    122          1           0       16.509027   -1.550633   -1.131763
    123          1           0       15.566722   -2.144887    0.372806
    124          1           0       16.131859    1.696988    0.322263
    125          1           0       16.061159    0.554474    1.533770
    126          1           0       18.340634   -0.153770   -0.263568
    127          1           0       17.734236    1.116833   -1.179895
    128          1           0       18.298491    2.627333    0.515798
    129          1           0       18.491596    1.491960    1.774891
    130          1           0       20.303191    0.434113    0.065806
    131          1           0       19.899350    3.149267   -1.412749
    132          1           0       21.345014    1.953710   -1.881251
    133          1           0       19.649597    1.426212   -2.156808
    134          1           0       20.884143    1.731317    1.814768
    135          1           0       22.079246    2.243439    0.684047
    136          1           0       20.695046    3.605560    0.954196
    137          1           0       -7.198445    1.677008    0.484258
    138          1           0       -7.362865   -0.199204   -0.125036
 ---------------------------------------------------------------------

 SCF Done:  E(RB3LYP) =  -2732.93314252     A.U. after   17 cycles

 Excitation energies and oscillator strengths:

 Excited State   1:      Singlet-A      2.0458 eV  606.03 nm  f=0.2262  <S**2>=0.000
     235 -> 237       -0.19644
     235 -> 238       -0.26485
     236 -> 237        0.61460
     236 -> 238       -0.11676
 This state for optimization and/or second-order correction.
 Total Energy, E(TD-HF/TD-KS) =  -2732.85795899
 Copying the excited state density for this state as the 1-particle RhoCI density.

 The electronic state is 1-A.
 Alpha  occ. eigenvalues --  -19.19255 -19.18235 -19.12278 -19.12050 -19.11160
 Alpha  occ. eigenvalues --  -14.37386 -14.36851 -14.32398 -14.30442 -10.31434
 Alpha  occ. eigenvalues --  -10.30711 -10.25917 -10.25768 -10.25130 -10.24113
 Alpha  occ. eigenvalues --  -10.23707 -10.23460 -10.23049 -10.22059 -10.21770
 Alpha  occ. eigenvalues --  -10.21724 -10.21703 -10.21466 -10.21109 -10.20947
 Alpha  occ. eigenvalues --  -10.20790 -10.20743 -10.20636 -10.20605 -10.20527
 Alpha  occ. eigenvalues --  -10.20484 -10.20474 -10.20427 -10.20401 -10.20356
 Alpha  occ. eigenvalues --  -10.20348 -10.20331 -10.20318 -10.20241 -10.20220
 Alpha  occ. eigenvalues --  -10.20059 -10.20008 -10.19865 -10.19855 -10.19810
 Alpha  occ. eigenvalues --  -10.19629 -10.19500 -10.19465 -10.19421 -10.19408
 Alpha  occ. eigenvalues --  -10.19371 -10.19041 -10.18880 -10.18590 -10.18328
 Alpha  occ. eigenvalues --  -10.18273 -10.18081 -10.18071 -10.17755 -10.17594
 Alpha  occ. eigenvalues --  -10.17303 -10.17228 -10.17049 -10.17009  -1.11476
 Alpha  occ. eigenvalues --   -1.10108  -1.05523  -1.02250  -1.00862  -0.99295
 Alpha  occ. eigenvalues --   -0.99155  -0.95119  -0.91700  -0.86832  -0.83543
 Alpha  occ. eigenvalues --   -0.82271  -0.81718  -0.81615  -0.80987  -0.80893
 Alpha  occ. eigenvalues --   -0.79844  -0.79756  -0.79202  -0.78750  -0.77672
 Alpha  occ. eigenvalues --   -0.76801  -0.76005  -0.75300  -0.75180  -0.74220
 Alpha  occ. eigenvalues --   -0.73989  -0.73025  -0.72775  -0.72284  -0.70459
 Alpha  occ. eigenvalues --   -0.70207  -0.69787  -0.69604  -0.68623  -0.68098
 Alpha  occ. eigenvalues --   -0.67577  -0.67054  -0.66407  -0.66150  -0.65293
 Alpha  occ. eigenvalues --   -0.63923  -0.62954  -0.62714  -0.62040  -0.61319
 Alpha  occ. eigenvalues --   -0.60672  -0.59479  -0.59061  -0.58048  -0.57167
 Alpha  occ. eigenvalues --   -0.56976  -0.56388  -0.55925  -0.55816  -0.55515
 Alpha  occ. eigenvalues --   -0.55476  -0.54639  -0.54359  -0.53403  -0.53390
 Alpha  occ. eigenvalues --   -0.52275  -0.52148  -0.51515  -0.50787  -0.50445
 Alpha  occ. eigenvalues --   -0.50115  -0.49667  -0.49361  -0.48653  -0.48214
 Alpha  occ. eigenvalues --   -0.48008  -0.47539  -0.47306  -0.47106  -0.47020
 Alpha  occ. eigenvalues --   -0.46955  -0.46598  -0.46444  -0.46239  -0.45907
 Alpha  occ. eigenvalues --   -0.45793  -0.45549  -0.45274  -0.45130  -0.44877
 Alpha  occ. eigenvalues --   -0.44802  -0.44428  -0.44253  -0.43805  -0.43698
 Alpha  occ. eigenvalues --   -0.43452  -0.43333  -0.43169  -0.42897  -0.42736
 Alpha  occ. eigenvalues --   -0.42723  -0.42568  -0.42333  -0.42193  -0.42184
 Alpha  occ. eigenvalues --   -0.41752  -0.41602  -0.41476  -0.41045  -0.40882
 Alpha  occ. eigenvalues --   -0.40328  -0.40167  -0.39920  -0.39366  -0.39276
 Alpha  occ. eigenvalues --   -0.39166  -0.38950  -0.38891  -0.38784  -0.38450
 Alpha  occ. eigenvalues --   -0.38188  -0.38056  -0.37957  -0.37809  -0.37690
 Alpha  occ. eigenvalues --   -0.37260  -0.37089  -0.36907  -0.36609  -0.36597
 Alpha  occ. eigenvalues --   -0.36329  -0.36302  -0.35921  -0.35828  -0.35479
 Alpha  occ. eigenvalues --   -0.35387  -0.35077  -0.34934  -0.34832  -0.34296
 Alpha  occ. eigenvalues --   -0.34106  -0.34073  -0.33949  -0.33764  -0.33663
 Alpha  occ. eigenvalues --   -0.33428  -0.33379  -0.32836  -0.32484  -0.32448
 Alpha  occ. eigenvalues --   -0.32184  -0.32106  -0.31840  -0.31768  -0.31425
 Alpha  occ. eigenvalues --   -0.31204  -0.30955  -0.30492  -0.30440  -0.30043
 Alpha  occ. eigenvalues --   -0.29770  -0.29162  -0.28508  -0.28426  -0.27886
 Alpha  occ. eigenvalues --   -0.27717  -0.27279  -0.26719  -0.26518  -0.25499
 Alpha  occ. eigenvalues --   -0.24561  -0.24547  -0.23767  -0.22995  -0.19701
 Alpha  occ. eigenvalues --   -0.18858
 Alpha virt. eigenvalues --   -0.10564  -0.07302  -0.04246  -0.02040  -0.01423
 Alpha virt. eigenvalues --    0.00277   0.01013   0.01432   0.02679   0.03578
 Alpha virt. eigenvalues --    0.03868   0.04051   0.04418   0.04519   0.04739

 Mulliken charges:
               1
     1  C    0.027499
     2  C    0.025928
     3  C   -0.090133
     4  C   -0.091085
     5  N   -0.158755
     6  C   -0.028190
     7  C   -0.183753
     8  C   -0.004464
     9  C   -0.184570
    10  C    0.072019
    11  C    0.131778
    12  C   -0.006747
    13  C    0.131719
    14  O   -0.207412
    15  O   -0.263747
    16  N   -0.081253
    17  C    0.160434
    18  C   -0.177543
    19  C    0.078766
    20  C    0.001096
    21  C    0.116366
    22  C   -0.131036
    23  C   -0.023134
    24  N   -0.315815
    25  C    0.117412
    26  C   -0.181282
    27  C   -0.090748
    28  C    0.113640
    29  C    0.276433
    30  C   -0.015200
    31  C    0.063514
    32  N   -0.023826
    33  C    0.076887
    34  C   -0.148116
    35  C   -0.026483
    36  C    0.090280
    37  C    0.058551
    38  C    0.039700
    39  O   -0.092684
    40  C   -0.105428
    41  C    0.188411
    42  O   -0.215243
    43  O   -0.273331
    44  C    0.138581
    45  C    0.240945
    46  C   -0.146945
    47  C   -0.002537
    48  C    0.039026
    49  C    0.063367
    50  C    0.023018
    51  C    0.080653
    52  C   -0.113033
    53  C    0.175560
    54  C   -0.099716
    55  C    0.077560
    56  C    0.021386
    57  C   -0.124532
    58  C    0.026106
    59  C    0.109508
    60  C    0.043730
    61  C    0.045519
    62  C   -0.162104
    63  C   -0.062097
    64  C    0.058553
    65  H   -0.036419
    66  H   -0.020767
    67  H   -0.022402
    68  H    0.030217
    69  H   -0.003904
    70  H    0.019287
    71  H    0.032619
    72  H    0.045839
    73  H   -0.040956
    74  H    0.005761
    75  H    0.032518
    76  H    0.034790
    77  H    0.048168
    78  H   -0.001929
    79  H    0.042352
    80  H    0.028890
    81  H    0.005701
    82  H    0.055207
    83  H    0.014938
    84  H   -0.064023
    85  H   -0.019932
    86  H    0.017650
    87  H    0.037163
    88  H   -0.031608
    89  H   -0.001032
    90  H    0.023527
    91  H    0.052176
    92  H    0.018447
    93  H    0.045103
    94  H    0.087548
    95  H    0.049303
    96  H    0.020298
    97  H    0.027475
    98  H    0.030882
    99  H    0.047117
   100  H    0.010836
   101  H   -0.015342
   102  H    0.009245
   103  H   -0.004797
   104  H    0.005819
   105  H    0.031669
   106  H   -0.038158
   107  H   -0.055270
   108  H   -0.028214
   109  H   -0.003001
   110  H    0.000631
   111  H    0.006450
   112  H   -0.073424
   113  H    0.013898
   114  H    0.019217
   115  H    0.004057
   116  H    0.004187
   117  H   -0.011157
   118  H   -0.016828
   119  H    0.012724
   120  H    0.007333
   121  H    0.015577
   122  H    0.019400
   123  H    0.015523
   124  H   -0.058139
   125  H   -0.012362
   126  H   -0.020641
   127  H   -0.010959
   128  H   -0.054104
   129  H   -0.008588
   130  H    0.016463
   131  H    0.011888
   132  H    0.019250
   133  H    0.020203
   134  H    0.018981
   135  H    0.014522
   136  H    0.051651
   137  H    0.207033
   138  H    0.181417
 Sum of Mulliken charges =   0.00000

 Dipole moment (field-independent basis, Debye):
    X=              3.5497    Y=              4.5728    Z=             -1.0595  Tot=              5.8850
 Quadrupole moment (field-independent basis, Debye-Ang):
   XX=           -352.5301   YY=           -391.5031   ZZ=           -392.8259
   XY=            -26.3226   XZ=              7.7862   YZ=             -0.1939

 Normal termination of Gaussian 09 at Fri Jul 26 01:30:12 2019.
