 Gaussian 09, Revision D.01,
 Gaussian 09:  ES64L-G09RevD.01 24-Apr-2013

 --------------------------
 # td=(NStates=1) B3LYP/SVP
 --------------------------

 --
 TD
 --
 Symbolic Z-matrix:
 Charge =  0 Multiplicity = 1

                         Standard orientation:
 ---------------------------------------------------------------------
 Center     Atomic      Atomic             Coordinates (Angstroms)
 Number     Number       Type             X           Y           Z
 ---------------------------------------------------------------------
      1          6           0       -5.068329   -1.951464    0.482720
      2          6           0       -4.738656    2.682115    1.350978
      3          6           0       -9.399326    3.294533   -0.181432
      4          6           0       -9.853450   -1.458442   -0.789269
      5          7           0       -5.168015    0.453251    0.827602
      6          6           0       -4.482918   -0.769924    0.695202
      7          6           0       -3.052397   -0.594580    1.193459
      8          6           0       -2.978913    0.906560    1.744665
      9          6           0       -4.362997    1.353653    1.305404
     10          6           0       -2.977816    0.926202    3.322020
     11          6           0       -2.002563   -0.776604   -0.044347
     12          6           0       -0.510439   -0.669166    0.274410
     13          6           0        0.361564   -0.779678   -0.955959
     14          8           0        0.046837   -0.854066   -2.110361
     15          8           0        1.722342   -0.846497   -0.447052
     16          7           0       -7.053289    2.664927    0.478306
     17          6           0       -5.947133    3.334466    0.976266
     18          6           0       -6.229669    4.743190    1.059056
     19          6           0       -7.416499    4.951242    0.574019
     20          6           0       -8.060865    3.648563    0.214749
     21          6           0       -5.262682    5.925883    1.410626
     22          6           0       -8.182947    6.257132    0.460329
     23          6           0       -9.115982    6.499599   -0.519176
     24          7           0       -9.232985    0.808416   -0.405329
     25          6           0       -9.856292    1.978105   -0.543649
     26          6           0      -11.228085    1.838314   -0.972967
     27          6           0      -11.481879    0.527106   -1.062164
     28          6           0      -10.169267   -0.079257   -0.813534
     29          6           0      -12.249148    2.932800   -1.110021
     30          6           0      -12.718938   -0.295135   -1.595711
     31          6           0      -12.663060   -0.705577   -3.127209
     32          7           0       -7.471308   -1.256661   -0.132192
     33          6           0       -8.638339   -2.042491   -0.558457
     34          6           0       -8.285286   -3.405651   -0.562582
     35          6           0       -6.943402   -3.390021   -0.216710
     36          6           0       -6.488997   -2.124730    0.102813
     37          6           0       -9.113209   -4.534646   -0.757944
     38          6           0       -5.780962   -4.321656    0.048404
     39          8           0       -5.729282   -5.511917   -0.023364
     40          6           0       -4.553683   -3.353270    0.411957
     41          6           0       -3.968096   -3.806216    1.847822
     42          8           0       -4.148838   -3.363146    2.983782
     43          8           0       -3.011358   -4.838606    1.653540
     44          6           0       -2.474368   -5.390561    2.821647
     45          6           0        2.775452   -1.024458   -1.400813
     46          6           0        4.042874   -0.797803   -0.646007
     47          6           0        4.998554    0.109466   -1.086757
     48          6           0        4.861597    1.149769   -2.352709
     49          6           0        6.267165    0.243351   -0.289608
     50          6           0        7.573073   -0.207025   -1.116714
     51          6           0        8.833558   -0.305366   -0.070001
     52          6           0       10.137021   -0.615869   -0.854698
     53          6           0       10.084649   -2.087393   -1.445438
     54          6           0       11.310618   -0.385243   -0.021289
     55          6           0       12.597297   -0.536950   -0.672432
     56          6           0       13.781301   -0.118102    0.287572
     57          6           0       15.183827   -0.197937   -0.448571
     58          6           0       15.505985   -1.623906   -0.616275
     59          6           0       16.195508    0.533848    0.476134
     60          6           0       17.723011    0.634529    0.002481
     61          6           0       18.541166    1.574333    0.762801
     62          6           0       20.132917    1.480872    0.366387
     63          6           0       20.324753    1.961432   -1.070726
     64          6           0       20.972618    2.411688    1.344391
     65          1           0       -3.959327    3.481313    1.699302
     66          1           0      -10.271404    4.152838   -0.373701
     67          1           0      -10.695627   -2.082930   -1.047583
     68          1           0       -2.870636   -1.295855    1.992638
     69          1           0       -2.135251    1.499348    1.470220
     70          1           0       -2.047250    0.446580    3.758660
     71          1           0       -2.968145    1.879761    3.730292
     72          1           0       -4.032085    0.341130    3.746909
     73          1           0       -2.298943   -1.568188   -0.940732
     74          1           0       -2.333405    0.265663   -0.531117
     75          1           0       -0.451422    0.172521    1.125639
     76          1           0       -0.370315   -1.814188    0.607668
     77          1           0       -4.492736    6.171463    0.694860
     78          1           0       -5.760600    6.870595    1.493955
     79          1           0       -4.651039    5.835351    2.244828
     80          1           0       -7.968133    7.045557    1.215953
     81          1           0       -9.472098    5.744869   -1.374973
     82          1           0       -9.659286    7.621120   -0.321930
     83          1           0      -12.571073    3.249102    0.043971
     84          1           0      -11.833677    3.795915   -1.625592
     85          1           0      -13.297505    2.678820   -1.535346
     86          1           0      -12.744348   -1.263517   -0.995663
     87          1           0      -13.563706    0.136807   -1.302039
     88          1           0      -12.535946    0.219671   -3.610049
     89          1           0      -11.562350   -1.406758   -3.128454
     90          1           0      -13.377240   -1.372500   -3.448183
     91          1           0      -10.182917   -4.614106   -0.262550
     92          1           0       -9.432949   -4.535746   -1.857244
     93          1           0       -8.509954   -5.550783   -0.691168
     94          1           0       -3.703702   -3.417353   -0.357646
     95          1           0       -1.502308   -5.888948    2.519622
     96          1           0       -2.148868   -4.509496    3.410109
     97          1           0       -3.141209   -6.160121    3.471723
     98          1           0        2.559076   -1.934098   -1.836231
     99          1           0        2.583127   -0.362823   -2.311629
    100          1           0        4.239738   -1.519351    0.202184
    101          1           0        5.338433    2.176533   -1.755353
    102          1           0        5.676232    0.988387   -3.111783
    103          1           0        3.849375    1.095846   -2.726567
    104          1           0        6.563753    1.163909    0.174152
    105          1           0        6.153875   -0.448881    0.626483
    106          1           0        7.567469   -1.245049   -1.682138
    107          1           0        7.686541    0.482327   -1.918365
    108          1           0        8.984684    0.600744    0.323120
    109          1           0        8.675622   -1.000526    0.627840
    110          1           0       10.175264   -0.090822   -1.888049
    111          1           0        9.256564   -2.163639   -2.214813
    112          1           0       11.067792   -2.327626   -2.003460
    113          1           0        9.745345   -2.903100   -0.589035
    114          1           0       11.127898    0.632124    0.359802
    115          1           0       11.254101   -0.893479    1.051443
    116          1           0       12.745198   -1.563033   -1.170765
    117          1           0       12.795396    0.357081   -1.593105
    118          1           0       13.903783    0.962426    0.689798
    119          1           0       13.913008   -0.962640    1.145536
    120          1           0       15.090262    0.279841   -1.361946
    121          1           0       14.630666   -2.161678   -1.009762
    122          1           0       16.413446   -1.855943   -1.156356
    123          1           0       15.640135   -2.079883    0.453690
    124          1           0       15.958942    1.530264    0.627300
    125          1           0       16.263817   -0.238829    1.500311
    126          1           0       18.072861   -0.394597   -0.169359
    127          1           0       17.560937    0.908641   -1.113888
    128          1           0       18.170469    2.570749    0.627243
    129          1           0       18.364299    1.253522    1.787194
    130          1           0       20.350149    0.546050    0.639071
    131          1           0       19.879859    2.893597   -1.132990
    132          1           0       21.376360    2.231874   -1.144682
    133          1           0       20.039421    1.272606   -1.767286
    134          1           0       21.083351    1.884514    2.371499
    135          1           0       21.874606    2.653488    0.824621
    136          1           0       20.389756    3.377023    1.665888
    137          1           0       -7.264157    1.598893    0.383544
    138          1           0       -7.457929   -0.115797    0.124519
 ---------------------------------------------------------------------

 SCF Done:  E(RB3LYP) =  -2733.03719537     A.U. after   17 cycles

 Excitation energies and oscillator strengths:

 Excited State   1:      Singlet-A      2.1421 eV  578.79 nm  f=0.1556  <S**2>=0.000
     235 -> 237       -0.20294
     235 -> 238        0.24627
     236 -> 237        0.60285
     236 -> 238        0.17512
 This state for optimization and/or second-order correction.
 Total Energy, E(TD-HF/TD-KS) =  -2732.95847394
 Copying the excited state density for this state as the 1-particle RhoCI density.

 The electronic state is 1-A.
 Alpha  occ. eigenvalues --  -19.16902 -19.15667 -19.14334 -19.13634 -19.12702
 Alpha  occ. eigenvalues --  -14.37726 -14.37140 -14.32139 -14.30473 -10.32624
 Alpha  occ. eigenvalues --  -10.32499 -10.28363 -10.24839 -10.24822 -10.24423
 Alpha  occ. eigenvalues --  -10.23331 -10.23035 -10.23010 -10.23000 -10.22826
 Alpha  occ. eigenvalues --  -10.22788 -10.22675 -10.22493 -10.21822 -10.21748
 Alpha  occ. eigenvalues --  -10.21689 -10.21632 -10.21489 -10.21364 -10.21056
 Alpha  occ. eigenvalues --  -10.21029 -10.20999 -10.20938 -10.20937 -10.20937
 Alpha  occ. eigenvalues --  -10.20857 -10.20789 -10.20615 -10.20259 -10.20237
 Alpha  occ. eigenvalues --  -10.20101 -10.19702 -10.19672 -10.19664 -10.19651
 Alpha  occ. eigenvalues --  -10.19581 -10.19580 -10.19515 -10.19453 -10.19431
 Alpha  occ. eigenvalues --  -10.19088 -10.18948 -10.18592 -10.18573 -10.18410
 Alpha  occ. eigenvalues --  -10.18387 -10.18370 -10.18224 -10.17891 -10.17753
 Alpha  occ. eigenvalues --  -10.17504 -10.17491 -10.17169 -10.16391  -1.07607
 Alpha  occ. eigenvalues --   -1.07437  -1.03991  -1.00491  -0.99706  -0.97276
 Alpha  occ. eigenvalues --   -0.96872  -0.95092  -0.94543  -0.84195  -0.82516
 Alpha  occ. eigenvalues --   -0.82224  -0.81525  -0.81166  -0.80507  -0.79939
 Alpha  occ. eigenvalues --   -0.79560  -0.79476  -0.79396  -0.78907  -0.77173
 Alpha  occ. eigenvalues --   -0.76211  -0.75608  -0.75073  -0.74379  -0.74051
 Alpha  occ. eigenvalues --   -0.73056  -0.72667  -0.71936  -0.71360  -0.70451
 Alpha  occ. eigenvalues --   -0.69650  -0.68792  -0.67760  -0.67501  -0.67127
 Alpha  occ. eigenvalues --   -0.67049  -0.66600  -0.65977  -0.65806  -0.64675
 Alpha  occ. eigenvalues --   -0.63631  -0.62366  -0.61877  -0.61137  -0.60424
 Alpha  occ. eigenvalues --   -0.60231  -0.58950  -0.58194  -0.57626  -0.57016
 Alpha  occ. eigenvalues --   -0.56702  -0.56426  -0.56097  -0.55032  -0.54897
 Alpha  occ. eigenvalues --   -0.54456  -0.54333  -0.54127  -0.53232  -0.52836
 Alpha  occ. eigenvalues --   -0.52343  -0.51844  -0.51215  -0.50608  -0.50044
 Alpha  occ. eigenvalues --   -0.49168  -0.49053  -0.48659  -0.47963  -0.47943
 Alpha  occ. eigenvalues --   -0.47546  -0.47288  -0.46949  -0.46759  -0.46712
 Alpha  occ. eigenvalues --   -0.46679  -0.46578  -0.46320  -0.45957  -0.45418
 Alpha  occ. eigenvalues --   -0.45291  -0.45251  -0.44913  -0.44796  -0.44503
 Alpha  occ. eigenvalues --   -0.44422  -0.44287  -0.44045  -0.43869  -0.43521
 Alpha  occ. eigenvalues --   -0.43333  -0.43259  -0.42858  -0.42750  -0.42523
 Alpha  occ. eigenvalues --   -0.42200  -0.41905  -0.41764  -0.41514  -0.41007
 Alpha  occ. eigenvalues --   -0.40932  -0.40693  -0.40587  -0.40412  -0.40210
 Alpha  occ. eigenvalues --   -0.39975  -0.39870  -0.39587  -0.39465  -0.39188
 Alpha  occ. eigenvalues --   -0.39150  -0.39113  -0.38914  -0.38653  -0.38333
 Alpha  occ. eigenvalues --   -0.38225  -0.38091  -0.37913  -0.37885  -0.37436
 Alpha  occ. eigenvalues --   -0.37314  -0.37130  -0.37088  -0.36822  -0.36621
 Alpha  occ. eigenvalues --   -0.36368  -0.36206  -0.36050  -0.35793  -0.35512
 Alpha  occ. eigenvalues --   -0.35222  -0.35148  -0.34738  -0.34665  -0.34594
 Alpha  occ. eigenvalues --   -0.34367  -0.34341  -0.34081  -0.33993  -0.33706
 Alpha  occ. eigenvalues --   -0.33702  -0.33289  -0.33128  -0.32762  -0.32741
 Alpha  occ. eigenvalues --   -0.32379  -0.32014  -0.31769  -0.31411  -0.31188
 Alpha  occ. eigenvalues --   -0.31045  -0.30920  -0.30157  -0.29513  -0.29457
 Alpha  occ. eigenvalues --   -0.28928  -0.28797  -0.28575  -0.28524  -0.28183
 Alpha  occ. eigenvalues --   -0.27903  -0.27661  -0.27226  -0.26509  -0.25791
 Alpha  occ. eigenvalues --   -0.25330  -0.25264  -0.24243  -0.23648  -0.20238
 Alpha  occ. eigenvalues --   -0.18960
 Alpha virt. eigenvalues --   -0.10112  -0.07702  -0.03638  -0.02155  -0.01218
 Alpha virt. eigenvalues --   -0.00988  -0.00422   0.00428   0.01762   0.03256
 Alpha virt. eigenvalues --    0.03469   0.03890   0.03944   0.04301   0.04439

 Mulliken charges:
               1
     1  C    0.079225
     2  C   -0.068456
     3  C   -0.155880
     4  C   -0.090391
     5  N   -0.174302
     6  C   -0.059229
     7  C    0.018598
     8  C   -0.051025
     9  C    0.003792
    10  C    0.003550
    11  C   -0.110435
    12  C    0.022039
    13  C    0.209263
    14  O   -0.190989
    15  O   -0.392781
    16  N   -0.151640
    17  C    0.090726
    18  C   -0.100870
    19  C    0.038479
    20  C    0.098100
    21  C    0.141247
    22  C   -0.043589
    23  C   -0.102700
    24  N   -0.218086
    25  C    0.062432
    26  C   -0.131231
    27  C   -0.094637
    28  C    0.020416
    29  C    0.027657
    30  C    0.096152
    31  C    0.019969
    32  N   -0.151317
    33  C    0.151155
    34  C   -0.081421
    35  C   -0.023172
    36  C    0.031304
    37  C    0.005200
    38  C    0.102334
    39  O   -0.137600
    40  C   -0.080641
    41  C    0.244376
    42  O   -0.230338
    43  O   -0.325590
    44  C    0.136464
    45  C    0.279344
    46  C   -0.061635
    47  C   -0.102869
    48  C    0.010237
    49  C    0.057070
    50  C   -0.051669
    51  C    0.168757
    52  C   -0.119846
    53  C   -0.062400
    54  C    0.101455
    55  C   -0.034906
    56  C   -0.040739
    57  C   -0.039996
    58  C    0.045821
    59  C   -0.005595
    60  C   -0.016659
    61  C    0.071730
    62  C   -0.082755
    63  C    0.139882
    64  C   -0.002888
    65  H   -0.014083
    66  H    0.036514
    67  H   -0.037888
    68  H    0.012428
    69  H   -0.002524
    70  H    0.024856
    71  H   -0.001529
    72  H    0.057370
    73  H    0.056408
    74  H    0.019195
    75  H    0.078823
    76  H    0.061800
    77  H    0.012654
    78  H   -0.005513
    79  H   -0.006427
    80  H    0.027176
    81  H    0.076394
    82  H    0.050587
    83  H    0.043652
    84  H    0.025472
    85  H    0.029906
    86  H   -0.002400
    87  H   -0.040386
    88  H    0.023077
    89  H    0.019638
    90  H    0.013420
    91  H    0.049883
    92  H    0.027247
    93  H    0.061882
    94  H    0.072434
    95  H    0.026903
    96  H    0.023317
    97  H    0.054716
    98  H   -0.021519
    99  H    0.001669
   100  H    0.016763
   101  H    0.039590
   102  H    0.045845
   103  H    0.035416
   104  H    0.001423
   105  H   -0.000973
   106  H    0.017381
   107  H   -0.009370
   108  H   -0.046020
   109  H   -0.031718
   110  H   -0.000106
   111  H    0.014942
   112  H    0.026971
   113  H    0.018587
   114  H   -0.023200
   115  H   -0.000519
   116  H    0.035947
   117  H    0.009336
   118  H    0.019254
   119  H    0.009334
   120  H   -0.034535
   121  H   -0.006602
   122  H    0.008293
   123  H   -0.001073
   124  H   -0.020333
   125  H    0.009521
   126  H   -0.013322
   127  H   -0.018278
   128  H   -0.012779
   129  H   -0.011983
   130  H   -0.037709
   131  H   -0.019500
   132  H   -0.013122
   133  H    0.002346
   134  H    0.016308
   135  H    0.007961
   136  H    0.013469
   137  H    0.180723
   138  H    0.228086
 Sum of Mulliken charges =   0.00000

 Dipole moment (field-independent basis, Debye):
    X=              0.7702    Y=              5.0751    Z=              0.1417  Tot=              5.1351
 Quadrupole moment (field-independent basis, Debye-Ang):
   XX=           -334.9772   YY=           -382.8061   ZZ=           -400.9310
   XY=            -19.6590   XZ=              5.7675   YZ=              4.7465

 Normal termination of Gaussian 09 at Sun Aug  4 16:57:54 2019.
