 Gaussian 09, Revision D.01,
 Gaussian 09:  ES64L-G09RevD.01 24-Apr-2013

 --------------------------
 # td=(NStates=1) B3LYP/SVP
 --------------------------

 --
 TD
 --
 Symbolic Z-matrix:
 Charge =  0 Multiplicity = 1

                         Standard orientation:
 ---------------------------------------------------------------------
 Center     Atomic      Atomic             Coordinates (Angstroms)
 Number     Number       Type             X           Y           Z
 ---------------------------------------------------------------------
      1          6           0       -5.124242   -1.940679    0.444033
      2          6           0       -4.843823    2.734742    1.434014
      3          6           0       -9.355102    3.216663   -0.263951
      4          6           0       -9.790444   -1.423963   -0.900113
      5          7           0       -5.215950    0.450669    0.941360
      6          6           0       -4.538199   -0.750643    0.835584
      7          6           0       -3.128519   -0.562071    1.306494
      8          6           0       -3.125945    0.852413    1.946058
      9          6           0       -4.431844    1.391019    1.373914
     10          6           0       -2.939210    0.870227    3.435089
     11          6           0       -2.087910   -0.618863    0.083906
     12          6           0       -0.562123   -0.670751    0.461185
     13          6           0        0.298315   -0.923422   -0.642314
     14          8           0        0.080418   -1.327387   -1.763661
     15          8           0        1.552678   -0.729370   -0.161832
     16          7           0       -7.130834    2.683205    0.584777
     17          6           0       -6.025878    3.374480    1.044099
     18          6           0       -6.249843    4.746117    1.086538
     19          6           0       -7.559397    4.920555    0.662472
     20          6           0       -8.095760    3.648834    0.211658
     21          6           0       -5.390680    5.840726    1.787380
     22          6           0       -8.252442    6.298237    0.537806
     23          6           0       -8.982670    6.680512   -0.516683
     24          7           0       -9.237466    0.835337   -0.386253
     25          6           0       -9.928044    2.031997   -0.628144
     26          6           0      -11.125380    1.873419   -1.180222
     27          6           0      -11.313401    0.539099   -1.373806
     28          6           0      -10.084610   -0.100672   -0.930395
     29          6           0      -12.241253    2.940410   -1.489138
     30          6           0      -12.496309   -0.149539   -1.882992
     31          6           0      -12.400720   -0.445561   -3.449623
     32          7           0       -7.512464   -1.271765   -0.115446
     33          6           0       -8.558655   -1.998693   -0.571524
     34          6           0       -8.180400   -3.495183   -0.584211
     35          6           0       -6.797495   -3.396850   -0.292665
     36          6           0       -6.413642   -2.090941    0.066781
     37          6           0       -9.040101   -4.622374   -0.956702
     38          6           0       -5.675046   -4.217319   -0.007047
     39          8           0       -5.620774   -5.457855   -0.063844
     40          6           0       -4.497647   -3.304750    0.475203
     41          6           0       -3.820723   -3.839854    1.669560
     42          8           0       -4.141924   -3.426704    2.737375
     43          8           0       -3.131282   -4.944443    1.489708
     44          6           0       -2.748977   -5.577972    2.643338
     45          6           0        2.699192   -1.003662   -1.104149
     46          6           0        3.947056   -0.636358   -0.518075
     47          6           0        5.007178    0.046642   -1.009469
     48          6           0        4.901839    0.929484   -2.235957
     49          6           0        6.237889    0.267636   -0.158048
     50          6           0        7.506791   -0.454087   -0.764414
     51          6           0        8.743926   -0.216273   -0.132839
     52          6           0       10.024977   -0.787206   -0.863607
     53          6           0       10.034397   -2.347792   -0.868652
     54          6           0       11.253530   -0.227427   -0.055868
     55          6           0       12.684114   -0.710588   -0.647713
     56          6           0       13.832024   -0.004508    0.130311
     57          6           0       15.298060   -0.290527   -0.399764
     58          6           0       15.710204   -1.806828   -0.209524
     59          6           0       16.243765    0.665769    0.334959
     60          6           0       17.676377    0.708169   -0.139163
     61          6           0       18.557414    1.785258    0.521158
     62          6           0       20.058752    1.650105    0.063574
     63          6           0       20.252957    2.159054   -1.432285
     64          6           0       21.018993    2.564034    0.902129
     65          1           0       -4.078363    3.220597    1.990606
     66          1           0      -10.118840    4.095548   -0.165428
     67          1           0      -10.546370   -2.166911   -0.996599
     68          1           0       -2.780513   -1.356255    1.998052
     69          1           0       -2.203209    1.410623    1.314736
     70          1           0       -1.861925    0.589887    3.534688
     71          1           0       -3.094778    2.007399    3.622726
     72          1           0       -3.550734    0.177348    4.095966
     73          1           0       -2.423162   -1.573349   -0.361048
     74          1           0       -2.301327    0.150169   -0.693445
     75          1           0       -0.230164    0.349069    0.715523
     76          1           0       -0.286020   -1.415783    1.054910
     77          1           0       -4.522656    6.207271    1.271155
     78          1           0       -5.934533    6.657766    1.986647
     79          1           0       -5.025628    5.632663    2.750383
     80          1           0       -7.976521    6.820590    1.483173
     81          1           0       -9.324796    6.073138   -1.509648
     82          1           0       -9.398589    7.645821   -0.730198
     83          1           0      -12.402244    3.567051   -0.602243
     84          1           0      -11.809404    3.784935   -2.177283
     85          1           0      -13.102421    2.505656   -1.646572
     86          1           0      -12.563256   -1.255771   -1.223396
     87          1           0      -13.538730    0.474010   -1.672799
     88          1           0      -12.328297    0.575126   -4.122938
     89          1           0      -11.240380   -0.936655   -3.536804
     90          1           0      -13.213596   -0.945890   -3.953710
     91          1           0       -9.812742   -4.950867   -0.171965
     92          1           0       -9.520279   -4.453173   -1.900672
     93          1           0       -8.514630   -5.522583   -0.768243
     94          1           0       -3.902672   -3.366509   -0.456565
     95          1           0       -2.214966   -6.448381    2.338273
     96          1           0       -2.078378   -4.970006    3.341337
     97          1           0       -3.464414   -6.021665    3.365212
     98          1           0        2.702770   -2.235783   -1.364661
     99          1           0        2.474021   -0.420906   -2.213310
    100          1           0        4.116888   -0.834578    0.560015
    101          1           0        5.083206    2.026615   -1.993610
    102          1           0        5.504531    0.550713   -3.159640
    103          1           0        3.808157    0.924951   -2.602051
    104          1           0        6.598207    1.291557   -0.042613
    105          1           0        6.229193   -0.211112    1.004338
    106          1           0        7.316311   -1.544163   -0.853986
    107          1           0        7.546823   -0.214286   -1.806518
    108          1           0        8.987490    0.930194    0.096608
    109          1           0        8.659339   -0.859939    0.882397
    110          1           0       10.041151   -0.343504   -1.839288
    111          1           0        9.290334   -2.788066   -1.555239
    112          1           0       10.838993   -2.722819   -1.295891
    113          1           0        9.776753   -2.865951    0.138068
    114          1           0       11.284106    0.730143    0.099168
    115          1           0       11.415338   -0.637217    1.004895
    116          1           0       12.763358   -2.010403   -0.250257
    117          1           0       12.833143   -0.624407   -1.758396
    118          1           0       13.521599    1.250376    0.237397
    119          1           0       13.740499   -0.294063    1.154921
    120          1           0       15.406866   -0.051766   -1.422800
    121          1           0       15.033655   -2.646911   -0.874386
    122          1           0       16.810778   -2.115316   -0.544272
    123          1           0       15.594411   -1.926063    1.009574
    124          1           0       15.734991    1.653587    0.133889
    125          1           0       16.255891    0.620698    1.444711
    126          1           0       18.197237   -0.227013    0.038761
    127          1           0       17.521762    1.095316   -1.166960
    128          1           0       18.198834    2.972571    0.166127
    129          1           0       18.532759    1.669680    1.747053
    130          1           0       20.255068    0.665636    0.166818
    131          1           0       19.866908    3.202463   -1.696365
    132          1           0       21.276533    2.023824   -1.772010
    133          1           0       19.644706    1.392444   -1.994617
    134          1           0       20.767497    2.322239    1.980721
    135          1           0       22.121674    2.086119    0.465103
    136          1           0       20.989288    3.682593    0.768073
    137          1           0       -7.388115    1.782630    0.489501
    138          1           0       -7.312218   -0.378474   -0.117231
 ---------------------------------------------------------------------

 SCF Done:  E(RB3LYP) =  -2733.01022621     A.U. after   17 cycles

 Excitation energies and oscillator strengths:

 Excited State   1:      Singlet-A      2.0662 eV  600.07 nm  f=0.1232  <S**2>=0.000
     235 -> 237       -0.28321
     235 -> 238       -0.27741
     236 -> 237        0.53891
     236 -> 238       -0.21903
 This state for optimization and/or second-order correction.
 Total Energy, E(TD-HF/TD-KS) =  -2732.93429615
 Copying the excited state density for this state as the 1-particle RhoCI density.

 The electronic state is 1-A.
 Alpha  occ. eigenvalues --  -19.19004 -19.17275 -19.12114 -19.12053 -19.11653
 Alpha  occ. eigenvalues --  -14.36610 -14.35718 -14.31634 -14.28859 -10.31497
 Alpha  occ. eigenvalues --  -10.30771 -10.27476 -10.27441 -10.24223 -10.24183
 Alpha  occ. eigenvalues --  -10.23752 -10.23431 -10.23036 -10.22753 -10.22741
 Alpha  occ. eigenvalues --  -10.22177 -10.21950 -10.21862 -10.21440 -10.21309
 Alpha  occ. eigenvalues --  -10.21017 -10.20988 -10.20927 -10.20906 -10.20871
 Alpha  occ. eigenvalues --  -10.20765 -10.20710 -10.20668 -10.20495 -10.20481
 Alpha  occ. eigenvalues --  -10.20284 -10.20264 -10.20084 -10.20049 -10.19989
 Alpha  occ. eigenvalues --  -10.19974 -10.19908 -10.19862 -10.19834 -10.19735
 Alpha  occ. eigenvalues --  -10.19651 -10.19634 -10.19556 -10.19379 -10.19263
 Alpha  occ. eigenvalues --  -10.19069 -10.19064 -10.18910 -10.18835 -10.18786
 Alpha  occ. eigenvalues --  -10.18451 -10.18319 -10.18177 -10.17989 -10.17955
 Alpha  occ. eigenvalues --  -10.17832 -10.17621 -10.17584 -10.17552  -1.12691
 Alpha  occ. eigenvalues --   -1.08393  -1.02481  -1.01006  -0.99578  -0.99089
 Alpha  occ. eigenvalues --   -0.97443  -0.94958  -0.93250  -0.86758  -0.82930
 Alpha  occ. eigenvalues --   -0.81832  -0.81698  -0.81295  -0.81216  -0.80550
 Alpha  occ. eigenvalues --   -0.80154  -0.79477  -0.78868  -0.78608  -0.78373
 Alpha  occ. eigenvalues --   -0.76984  -0.76564  -0.76160  -0.74602  -0.74315
 Alpha  occ. eigenvalues --   -0.73955  -0.72967  -0.72731  -0.72161  -0.71519
 Alpha  occ. eigenvalues --   -0.71019  -0.70220  -0.69088  -0.68291  -0.67734
 Alpha  occ. eigenvalues --   -0.66861  -0.66425  -0.65837  -0.65142  -0.64972
 Alpha  occ. eigenvalues --   -0.64496  -0.62858  -0.62480  -0.61871  -0.61150
 Alpha  occ. eigenvalues --   -0.60512  -0.59612  -0.58480  -0.58210  -0.58045
 Alpha  occ. eigenvalues --   -0.57471  -0.57004  -0.56187  -0.56123  -0.55665
 Alpha  occ. eigenvalues --   -0.55083  -0.54660  -0.54557  -0.53631  -0.53275
 Alpha  occ. eigenvalues --   -0.52389  -0.52076  -0.51594  -0.51459  -0.50809
 Alpha  occ. eigenvalues --   -0.50277  -0.49846  -0.49262  -0.48731  -0.48401
 Alpha  occ. eigenvalues --   -0.48204  -0.47896  -0.47699  -0.47230  -0.47113
 Alpha  occ. eigenvalues --   -0.46935  -0.46652  -0.45734  -0.45589  -0.45506
 Alpha  occ. eigenvalues --   -0.45378  -0.44913  -0.44567  -0.44475  -0.44394
 Alpha  occ. eigenvalues --   -0.44098  -0.44026  -0.43520  -0.43419  -0.43349
 Alpha  occ. eigenvalues --   -0.43188  -0.43102  -0.42999  -0.42789  -0.42403
 Alpha  occ. eigenvalues --   -0.42253  -0.42118  -0.41986  -0.41847  -0.41595
 Alpha  occ. eigenvalues --   -0.41205  -0.41069  -0.40982  -0.40762  -0.40185
 Alpha  occ. eigenvalues --   -0.40029  -0.39985  -0.39822  -0.39611  -0.39310
 Alpha  occ. eigenvalues --   -0.39208  -0.38960  -0.38824  -0.38405  -0.38344
 Alpha  occ. eigenvalues --   -0.37787  -0.37656  -0.37573  -0.37495  -0.37244
 Alpha  occ. eigenvalues --   -0.37150  -0.36907  -0.36808  -0.36679  -0.36512
 Alpha  occ. eigenvalues --   -0.36328  -0.36213  -0.35962  -0.35824  -0.35658
 Alpha  occ. eigenvalues --   -0.35442  -0.35348  -0.35229  -0.35000  -0.34648
 Alpha  occ. eigenvalues --   -0.34589  -0.34274  -0.34177  -0.33586  -0.33529
 Alpha  occ. eigenvalues --   -0.33481  -0.33134  -0.32842  -0.32615  -0.32225
 Alpha  occ. eigenvalues --   -0.31789  -0.31631  -0.31405  -0.31325  -0.30952
 Alpha  occ. eigenvalues --   -0.30909  -0.30800  -0.30608  -0.30349  -0.30291
 Alpha  occ. eigenvalues --   -0.29380  -0.28966  -0.28483  -0.28439  -0.27923
 Alpha  occ. eigenvalues --   -0.27515  -0.27104  -0.26817  -0.26339  -0.25977
 Alpha  occ. eigenvalues --   -0.24787  -0.24711  -0.24589  -0.22157  -0.19642
 Alpha  occ. eigenvalues --   -0.18963
 Alpha virt. eigenvalues --   -0.10218  -0.07899  -0.04604  -0.01568  -0.01379
 Alpha virt. eigenvalues --   -0.00439   0.00624   0.00909   0.01993   0.03300
 Alpha virt. eigenvalues --    0.03559   0.03942   0.03972   0.04341   0.04740

 Mulliken charges:
               1
     1  C    0.017363
     2  C   -0.033006
     3  C   -0.126125
     4  C   -0.084426
     5  N   -0.145028
     6  C   -0.090278
     7  C   -0.057534
     8  C   -0.069680
     9  C   -0.103043
    10  C    0.078186
    11  C    0.012753
    12  C    0.160795
    13  C    0.147661
    14  O   -0.229446
    15  O   -0.355945
    16  N   -0.027251
    17  C    0.183262
    18  C   -0.115299
    19  C   -0.036433
    20  C    0.030402
    21  C    0.202341
    22  C    0.026052
    23  C   -0.070459
    24  N   -0.279330
    25  C    0.113537
    26  C   -0.134956
    27  C   -0.033709
    28  C    0.113786
    29  C    0.201018
    30  C   -0.069171
    31  C   -0.055755
    32  N    0.079431
    33  C    0.022541
    34  C   -0.130177
    35  C    0.050638
    36  C    0.030590
    37  C    0.128818
    38  C   -0.019221
    39  O   -0.201446
    40  C    0.052796
    41  C    0.187837
    42  O   -0.216643
    43  O   -0.221350
    44  C    0.175268
    45  C    0.177141
    46  C   -0.056550
    47  C   -0.113485
    48  C    0.017370
    49  C    0.034777
    50  C    0.040987
    51  C   -0.024851
    52  C   -0.024847
    53  C    0.076846
    54  C    0.086677
    55  C   -0.065547
    56  C   -0.024844
    57  C    0.025043
    58  C   -0.101614
    59  C    0.004977
    60  C    0.076551
    61  C   -0.094983
    62  C   -0.045844
    63  C    0.002052
    64  C   -0.015955
    65  H   -0.058025
    66  H    0.004628
    67  H   -0.039333
    68  H    0.001890
    69  H    0.018227
    70  H    0.020623
    71  H    0.018404
    72  H    0.054623
    73  H    0.001049
    74  H    0.015616
    75  H    0.033438
    76  H   -0.009811
    77  H    0.008536
    78  H   -0.050077
    79  H    0.000759
    80  H    0.030306
    81  H    0.056548
    82  H    0.020918
    83  H   -0.002572
    84  H    0.024067
    85  H   -0.045212
    86  H    0.034826
    87  H    0.034362
    88  H    0.027350
    89  H    0.039675
    90  H    0.026471
    91  H    0.026268
    92  H    0.043495
    93  H    0.012789
    94  H    0.055996
    95  H    0.011223
    96  H    0.019789
    97  H    0.026728
    98  H    0.063450
    99  H    0.065006
   100  H    0.001352
   101  H    0.039689
   102  H    0.043811
   103  H    0.006461
   104  H   -0.002445
   105  H    0.014760
   106  H   -0.009678
   107  H   -0.036911
   108  H    0.008765
   109  H    0.002812
   110  H   -0.013664
   111  H   -0.008742
   112  H   -0.030317
   113  H    0.021938
   114  H   -0.062532
   115  H   -0.003111
   116  H    0.026557
   117  H    0.015392
   118  H    0.008602
   119  H   -0.011158
   120  H   -0.024955
   121  H    0.041818
   122  H    0.038696
   123  H    0.029991
   124  H   -0.009134
   125  H   -0.017332
   126  H    0.000248
   127  H    0.006641
   128  H    0.011589
   129  H    0.011794
   130  H   -0.032884
   131  H    0.027262
   132  H    0.005462
   133  H    0.003403
   134  H    0.013106
   135  H    0.024519
   136  H    0.031127
   137  H    0.076700
   138  H    0.075079
 Sum of Mulliken charges =   0.00000

 Dipole moment (field-independent basis, Debye):
    X=              1.8934    Y=              3.7689    Z=              0.5120  Tot=              4.2488
 Quadrupole moment (field-independent basis, Debye-Ang):
   XX=           -364.0334   YY=           -378.6652   ZZ=           -395.1938
   XY=            -23.9468   XZ=             -0.2212   YZ=             -2.4047

 Normal termination of Gaussian 09 at Sat Aug  3 13:57:56 2019.
