 Gaussian 09, Revision D.01,
 Gaussian 09:  ES64L-G09RevD.01 24-Apr-2013

 --------------------------
 # td=(NStates=1) B3LYP/SVP
 --------------------------

 --
 TD
 --
 Symbolic Z-matrix:
 Charge =  0 Multiplicity = 1

                         Standard orientation:
 ---------------------------------------------------------------------
 Center     Atomic      Atomic             Coordinates (Angstroms)
 Number     Number       Type             X           Y           Z
 ---------------------------------------------------------------------
      1          6           0       -4.976994   -1.856365    0.401104
      2          6           0       -4.953363    2.847463    1.221643
      3          6           0       -9.529739    3.171482   -0.292438
      4          6           0       -9.892149   -1.729153   -0.722381
      5          7           0       -5.225831    0.514893    0.655012
      6          6           0       -4.435984   -0.577922    0.787458
      7          6           0       -2.965281   -0.411595    1.165879
      8          6           0       -3.119238    1.067831    1.708216
      9          6           0       -4.529054    1.472106    1.210858
     10          6           0       -3.010449    1.206765    3.181621
     11          6           0       -2.012208   -0.626132   -0.027942
     12          6           0       -0.568446   -0.323084    0.370480
     13          6           0        0.387760   -0.686301   -0.708656
     14          8           0        0.217645   -1.356465   -1.686691
     15          8           0        1.688781   -0.325106   -0.404695
     16          7           0       -7.207721    2.601592    0.355601
     17          6           0       -6.254868    3.355070    0.905300
     18          6           0       -6.574444    4.747294    0.936310
     19          6           0       -7.791736    4.896338    0.392012
     20          6           0       -8.261879    3.527941    0.233662
     21          6           0       -5.525949    5.789644    1.285086
     22          6           0       -8.515238    6.182698    0.248653
     23          6           0       -9.611914    6.351959   -0.583378
     24          7           0       -9.347092    0.659957   -0.325425
     25          6           0      -10.096606    1.885675   -0.472007
     26          6           0      -11.471048    1.529731   -0.972518
     27          6           0      -11.527827    0.162123   -1.075272
     28          6           0      -10.169982   -0.335697   -0.771618
     29          6           0      -12.541205    2.594166   -1.062332
     30          6           0      -12.708366   -0.624411   -1.423394
     31          6           0      -12.756702   -0.949259   -2.989218
     32          7           0       -7.466203   -1.288667   -0.112891
     33          6           0       -8.588961   -2.115994   -0.451542
     34          6           0       -8.093222   -3.417394   -0.580363
     35          6           0       -6.687470   -3.378613   -0.209285
     36          6           0       -6.358784   -2.059234   -0.065126
     37          6           0       -8.906058   -4.624338   -1.073813
     38          6           0       -5.576078   -4.299052   -0.055490
     39          8           0       -5.442160   -5.481771   -0.068315
     40          6           0       -4.388502   -3.222719    0.433366
     41          6           0       -3.836094   -3.581161    1.793567
     42          8           0       -4.202957   -3.154463    2.858860
     43          8           0       -2.868948   -4.503672    1.757048
     44          6           0       -2.326691   -5.106363    2.911640
     45          6           0        2.757107   -0.689510   -1.324699
     46          6           0        4.064368   -0.522637   -0.668325
     47          6           0        5.181336    0.225223   -1.134843
     48          6           0        5.119671    0.850894   -2.502041
     49          6           0        6.348471    0.476625   -0.251272
     50          6           0        7.587331   -0.257176   -0.900435
     51          6           0        8.869379   -0.117274    0.070026
     52          6           0       10.111334   -0.794122   -0.581840
     53          6           0        9.981890   -2.374495   -0.638348
     54          6           0       11.456018   -0.239593    0.184120
     55          6           0       12.833676   -0.662808   -0.426622
     56          6           0       13.956432   -0.038982    0.357665
     57          6           0       15.302134   -0.218436   -0.285280
     58          6           0       15.587953   -1.787023   -0.439510
     59          6           0       16.461713    0.578757    0.424770
     60          6           0       17.778701    0.639918   -0.204476
     61          6           0       18.740266    1.582148    0.501294
     62          6           0       20.264684    1.543316    0.080787
     63          6           0       20.381576    1.739348   -1.434834
     64          6           0       20.934342    2.643677    1.058773
     65          1           0       -4.318247    3.588318    1.762110
     66          1           0      -10.300309    3.961855   -0.398412
     67          1           0      -10.604372   -2.563474   -0.951566
     68          1           0       -2.787365   -1.108985    2.007741
     69          1           0       -2.397441    1.878911    1.258579
     70          1           0       -1.955622    1.013478    3.472539
     71          1           0       -3.226668    2.272193    3.435419
     72          1           0       -3.562589    0.379432    3.575029
     73          1           0       -2.419469   -1.611211   -0.176419
     74          1           0       -2.293941    0.108716   -0.930867
     75          1           0       -0.379881    0.687144    0.736126
     76          1           0       -0.213886   -1.048744    1.167992
     77          1           0       -4.635680    5.774097    0.876805
     78          1           0       -5.900941    6.778491    1.060029
     79          1           0       -5.266447    5.680238    2.397465
     80          1           0       -8.180006    6.939888    1.038953
     81          1           0      -10.298733    5.600759   -1.182996
     82          1           0      -10.186017    7.362651   -0.628457
     83          1           0      -12.568928    3.193783   -0.145852
     84          1           0      -12.468656    3.246053   -2.129866
     85          1           0      -13.284698    2.005779   -0.995885
     86          1           0      -12.640696   -1.548846   -0.816569
     87          1           0      -13.597590   -0.169299   -1.158291
     88          1           0      -12.822997    0.056249   -3.509698
     89          1           0      -11.708743   -1.431878   -3.337507
     90          1           0      -13.519271   -1.696310   -3.293702
     91          1           0       -9.633683   -4.901882   -0.272301
     92          1           0       -9.221128   -4.462311   -2.029050
     93          1           0       -8.252225   -5.534571   -1.144504
     94          1           0       -3.370452   -3.350515   -0.227605
     95          1           0       -1.614164   -5.875045    2.456996
     96          1           0       -1.786568   -4.340699    3.500596
     97          1           0       -3.245245   -5.508439    3.483691
     98          1           0        2.708542   -1.853033   -1.538947
     99          1           0        2.559574   -0.243721   -2.327996
    100          1           0        3.952108   -0.802115    0.426775
    101          1           0        5.653291    1.807718   -2.804498
    102          1           0        5.772051    0.147243   -3.197486
    103          1           0        4.297702    0.591943   -3.197595
    104          1           0        6.675526    1.463261   -0.014508
    105          1           0        5.881354    0.009178    0.726671
    106          1           0        7.444555   -1.425400   -1.233682
    107          1           0        7.923864    0.172210   -1.920265
    108          1           0        8.969472    0.930393    0.040655
    109          1           0        8.719411   -0.594539    1.070880
    110          1           0       10.304626   -0.517409   -1.736802
    111          1           0        9.025113   -2.610187   -1.238093
    112          1           0       10.816439   -2.900794   -1.073258
    113          1           0        9.878114   -2.831936    0.306924
    114          1           0       11.631936    0.722973    0.533489
    115          1           0       11.223966   -0.698816    1.151248
    116          1           0       12.731016   -1.824134   -0.247027
    117          1           0       12.863714   -0.302955   -1.488374
    118          1           0       13.711887    0.995081    0.329163
    119          1           0       14.198165   -0.500370    1.406432
    120          1           0       15.379421    0.205070   -1.364688
    121          1           0       15.033256   -2.135992   -1.146520
    122          1           0       16.604110   -1.977507   -0.814894
    123          1           0       15.267242   -2.338783    0.572782
    124          1           0       16.028408    1.558331    0.510312
    125          1           0       16.255838    0.040886    1.477592
    126          1           0       18.034328   -0.350879   -0.231936
    127          1           0       17.662775    0.511767   -1.334724
    128          1           0       18.415039    2.537899    0.346173
    129          1           0       18.478200    1.404537    1.568710
    130          1           0       20.499800    0.420165    0.290722
    131          1           0       19.956467    2.695173   -1.757348
    132          1           0       21.541585    1.814052   -1.434598
    133          1           0       19.986501    0.911827   -1.949730
    134          1           0       20.759768    2.567954    2.143916
    135          1           0       22.060716    2.428077    0.861375
    136          1           0       20.680120    3.640125    0.688938
    137          1           0       -7.123881    1.598203   -0.033301
    138          1           0       -7.472091   -0.132012   -0.132697
 ---------------------------------------------------------------------

 SCF Done:  E(RB3LYP) =  -2733.09242220     A.U. after   17 cycles

 Excitation energies and oscillator strengths:

 Excited State   1:      Singlet-A      2.0267 eV  611.77 nm  f=0.1217  <S**2>=0.000
     235 -> 237       -0.27622
     235 -> 238       -0.26146
     236 -> 237        0.55102
     236 -> 238       -0.21841
 This state for optimization and/or second-order correction.
 Total Energy, E(TD-HF/TD-KS) =  -2733.01794413
 Copying the excited state density for this state as the 1-particle RhoCI density.

 The electronic state is 1-A.
 Alpha  occ. eigenvalues --  -19.16253 -19.16132 -19.12837 -19.11977 -19.10997
 Alpha  occ. eigenvalues --  -14.37869 -14.36838 -14.32956 -14.30328 -10.31070
 Alpha  occ. eigenvalues --  -10.30535 -10.28295 -10.25106 -10.24736 -10.24328
 Alpha  occ. eigenvalues --  -10.23756 -10.23306 -10.23004 -10.22890 -10.22823
 Alpha  occ. eigenvalues --  -10.22628 -10.22338 -10.21721 -10.21670 -10.21516
 Alpha  occ. eigenvalues --  -10.21438 -10.21198 -10.21037 -10.20963 -10.20958
 Alpha  occ. eigenvalues --  -10.20898 -10.20797 -10.20786 -10.20608 -10.20565
 Alpha  occ. eigenvalues --  -10.20462 -10.20386 -10.20104 -10.20066 -10.20051
 Alpha  occ. eigenvalues --  -10.20005 -10.19974 -10.19549 -10.19441 -10.19234
 Alpha  occ. eigenvalues --  -10.19204 -10.19134 -10.19050 -10.19035 -10.18866
 Alpha  occ. eigenvalues --  -10.18816 -10.18802 -10.18745 -10.18602 -10.18422
 Alpha  occ. eigenvalues --  -10.18316 -10.18308 -10.18118 -10.18115 -10.17687
 Alpha  occ. eigenvalues --  -10.17390 -10.17142 -10.16908 -10.16802  -1.09215
 Alpha  occ. eigenvalues --   -1.08231  -1.04063  -0.99582  -0.99355  -0.99172
 Alpha  occ. eigenvalues --   -0.96965  -0.96009  -0.91282  -0.83762  -0.83027
 Alpha  occ. eigenvalues --   -0.82116  -0.81892  -0.81460  -0.80390  -0.80000
 Alpha  occ. eigenvalues --   -0.79734  -0.79322  -0.78826  -0.78574  -0.77882
 Alpha  occ. eigenvalues --   -0.76354  -0.76004  -0.75359  -0.74820  -0.74241
 Alpha  occ. eigenvalues --   -0.73259  -0.72930  -0.72473  -0.71617  -0.71198
 Alpha  occ. eigenvalues --   -0.70445  -0.68570  -0.68261  -0.68003  -0.67809
 Alpha  occ. eigenvalues --   -0.67394  -0.67288  -0.66272  -0.65323  -0.64571
 Alpha  occ. eigenvalues --   -0.63760  -0.62907  -0.62343  -0.61655  -0.61266
 Alpha  occ. eigenvalues --   -0.60853  -0.58695  -0.57794  -0.57167  -0.56898
 Alpha  occ. eigenvalues --   -0.56675  -0.56503  -0.55423  -0.55185  -0.55113
 Alpha  occ. eigenvalues --   -0.54819  -0.54079  -0.53525  -0.53332  -0.52993
 Alpha  occ. eigenvalues --   -0.52357  -0.51604  -0.50805  -0.50633  -0.49601
 Alpha  occ. eigenvalues --   -0.49357  -0.49126  -0.48716  -0.48536  -0.48148
 Alpha  occ. eigenvalues --   -0.47874  -0.47602  -0.47087  -0.46975  -0.46482
 Alpha  occ. eigenvalues --   -0.46361  -0.46202  -0.45973  -0.45861  -0.45448
 Alpha  occ. eigenvalues --   -0.45417  -0.45164  -0.45092  -0.44935  -0.44842
 Alpha  occ. eigenvalues --   -0.44550  -0.44189  -0.44155  -0.43607  -0.43547
 Alpha  occ. eigenvalues --   -0.43256  -0.43027  -0.42894  -0.42745  -0.42590
 Alpha  occ. eigenvalues --   -0.42480  -0.42065  -0.41891  -0.41501  -0.41435
 Alpha  occ. eigenvalues --   -0.41217  -0.40941  -0.40839  -0.40550  -0.40307
 Alpha  occ. eigenvalues --   -0.40142  -0.39869  -0.39781  -0.39545  -0.39283
 Alpha  occ. eigenvalues --   -0.39104  -0.38997  -0.38871  -0.38513  -0.38252
 Alpha  occ. eigenvalues --   -0.38212  -0.38023  -0.37916  -0.37856  -0.37828
 Alpha  occ. eigenvalues --   -0.37688  -0.37589  -0.37475  -0.37177  -0.37036
 Alpha  occ. eigenvalues --   -0.36645  -0.36566  -0.36368  -0.36285  -0.36073
 Alpha  occ. eigenvalues --   -0.35852  -0.35314  -0.35130  -0.34943  -0.34711
 Alpha  occ. eigenvalues --   -0.34603  -0.34303  -0.34111  -0.34050  -0.33835
 Alpha  occ. eigenvalues --   -0.33773  -0.33432  -0.33007  -0.32750  -0.32290
 Alpha  occ. eigenvalues --   -0.32262  -0.31928  -0.31883  -0.31570  -0.31328
 Alpha  occ. eigenvalues --   -0.30797  -0.30622  -0.29824  -0.29640  -0.29605
 Alpha  occ. eigenvalues --   -0.29421  -0.28663  -0.27899  -0.27863  -0.27428
 Alpha  occ. eigenvalues --   -0.27061  -0.26755  -0.26116  -0.25702  -0.25482
 Alpha  occ. eigenvalues --   -0.25153  -0.24918  -0.22574  -0.22410  -0.19582
 Alpha  occ. eigenvalues --   -0.18827
 Alpha virt. eigenvalues --   -0.10352  -0.07757  -0.04274  -0.02888  -0.01088
 Alpha virt. eigenvalues --   -0.00420   0.00439   0.01028   0.01968   0.03554
 Alpha virt. eigenvalues --    0.03949   0.04152   0.04311   0.04818   0.04893

 Mulliken charges:
               1
     1  C    0.058026
     2  C   -0.114851
     3  C   -0.081668
     4  C   -0.124511
     5  N   -0.145831
     6  C   -0.101794
     7  C   -0.030281
     8  C   -0.112228
     9  C    0.028127
    10  C    0.105539
    11  C    0.100685
    12  C    0.067972
    13  C    0.160970
    14  O   -0.214334
    15  O   -0.356849
    16  N   -0.077201
    17  C    0.087273
    18  C   -0.135725
    19  C    0.008162
    20  C    0.122334
    21  C    0.170408
    22  C   -0.037152
    23  C   -0.091306
    24  N   -0.308076
    25  C    0.040204
    26  C   -0.160713
    27  C   -0.104882
    28  C    0.104119
    29  C    0.176664
    30  C    0.110669
    31  C   -0.044795
    32  N   -0.136203
    33  C    0.137069
    34  C   -0.172682
    35  C   -0.059993
    36  C    0.069124
    37  C    0.136626
    38  C    0.126167
    39  O   -0.131261
    40  C   -0.195269
    41  C    0.178566
    42  O   -0.231232
    43  O   -0.297616
    44  C    0.155714
    45  C    0.242678
    46  C   -0.110193
    47  C   -0.117613
    48  C    0.039416
    49  C    0.127984
    50  C   -0.124032
    51  C    0.099183
    52  C   -0.120757
    53  C    0.031091
    54  C    0.042402
    55  C    0.012444
    56  C    0.059293
    57  C   -0.180776
    58  C    0.082568
    59  C   -0.000289
    60  C    0.118538
    61  C    0.087694
    62  C   -0.149344
    63  C    0.055350
    64  C    0.018787
    65  H   -0.022341
    66  H   -0.019675
    67  H    0.009829
    68  H    0.016234
    69  H    0.009968
    70  H    0.001628
    71  H    0.017251
    72  H    0.023361
    73  H   -0.003973
    74  H    0.037003
    75  H    0.035345
    76  H    0.043487
    77  H   -0.016629
    78  H    0.000561
    79  H    0.025224
    80  H    0.046150
    81  H    0.067597
    82  H    0.038098
    83  H    0.021457
    84  H    0.051200
    85  H   -0.075481
    86  H    0.000124
    87  H   -0.018789
    88  H    0.027056
    89  H    0.024564
    90  H    0.026669
    91  H    0.038691
    92  H    0.011321
    93  H    0.026727
    94  H    0.086959
    95  H    0.052572
    96  H    0.027774
    97  H    0.049779
    98  H    0.030799
    99  H    0.017209
   100  H    0.011949
   101  H    0.033874
   102  H    0.009360
   103  H    0.002260
   104  H    0.001917
   105  H    0.015752
   106  H    0.025711
   107  H    0.018897
   108  H   -0.011508
   109  H    0.017642
   110  H    0.002246
   111  H    0.018826
   112  H    0.011987
   113  H   -0.008689
   114  H   -0.044770
   115  H   -0.025991
   116  H    0.019543
   117  H    0.009554
   118  H   -0.016897
   119  H    0.013630
   120  H   -0.018662
   121  H   -0.038912
   122  H   -0.002682
   123  H    0.014889
   124  H   -0.025672
   125  H   -0.005142
   126  H   -0.064647
   127  H   -0.029617
   128  H   -0.041324
   129  H   -0.003849
   130  H    0.008668
   131  H    0.010613
   132  H    0.016689
   133  H    0.018586
   134  H    0.026176
   135  H    0.016396
   136  H    0.016292
   137  H    0.183317
   138  H    0.213454
 Sum of Mulliken charges =   0.00000

 Dipole moment (field-independent basis, Debye):
    X=              0.8987    Y=              5.3873    Z=              0.0080  Tot=              5.4617
 Quadrupole moment (field-independent basis, Debye-Ang):
   XX=           -344.5374   YY=           -380.5113   ZZ=           -396.2310
   XY=            -22.1668   XZ=              8.1847   YZ=              0.8858

 Normal termination of Gaussian 09 at Sat Jul 27 17:41:51 2019.
