 Gaussian 09, Revision D.01,
 Gaussian 09:  ES64L-G09RevD.01 24-Apr-2013

 --------------------------
 # td=(NStates=1) B3LYP/SVP
 --------------------------

 --
 TD
 --
 Symbolic Z-matrix:
 Charge =  0 Multiplicity = 1

                         Standard orientation:
 ---------------------------------------------------------------------
 Center     Atomic      Atomic             Coordinates (Angstroms)
 Number     Number       Type             X           Y           Z
 ---------------------------------------------------------------------
      1          6           0       -5.090517   -1.887418    0.468456
      2          6           0       -4.752147    2.742792    1.420774
      3          6           0       -9.353530    3.385485   -0.175303
      4          6           0       -9.781651   -1.441102   -1.144367
      5          7           0       -5.112674    0.446085    0.656158
      6          6           0       -4.496416   -0.809963    0.747155
      7          6           0       -3.002984   -0.488365    1.222014
      8          6           0       -3.032929    0.818062    1.671922
      9          6           0       -4.430121    1.347517    1.262847
     10          6           0       -2.901606    0.898228    3.201623
     11          6           0       -1.972537   -0.983857    0.146670
     12          6           0       -0.567253   -0.923548    0.654076
     13          6           0        0.485211   -1.057935   -0.478974
     14          8           0        0.167186   -1.378915   -1.605807
     15          8           0        1.669349   -0.810610   -0.031334
     16          7           0       -7.029880    2.820983    0.389076
     17          6           0       -6.003678    3.294559    0.973697
     18          6           0       -6.245430    4.807513    1.121418
     19          6           0       -7.454902    5.042348    0.548522
     20          6           0       -8.045379    3.716937    0.200331
     21          6           0       -5.208243    5.806538    1.481271
     22          6           0       -8.247077    6.279457    0.403093
     23          6           0       -9.072609    6.683775   -0.595719
     24          7           0       -9.074997    0.909727   -0.608142
     25          6           0       -9.822968    2.095127   -0.553976
     26          6           0      -11.233911    1.909913   -0.986645
     27          6           0      -11.345147    0.548179   -1.076973
     28          6           0      -10.086096   -0.031132   -0.936880
     29          6           0      -12.344223    2.964274   -1.029922
     30          6           0      -12.538171   -0.156610   -1.590345
     31          6           0      -12.371836   -0.390078   -3.086906
     32          7           0       -7.502833   -1.235049   -0.330358
     33          6           0       -8.527895   -1.954102   -0.804131
     34          6           0       -8.194496   -3.388620   -0.678084
     35          6           0       -6.808012   -3.361733   -0.187015
     36          6           0       -6.456363   -1.981665   -0.005406
     37          6           0       -8.990987   -4.593096   -1.150049
     38          6           0       -5.823192   -4.336118    0.046938
     39          8           0       -5.633245   -5.513632    0.015410
     40          6           0       -4.551936   -3.338859    0.422624
     41          6           0       -4.022008   -3.852687    1.792505
     42          8           0       -4.460082   -3.498783    2.876589
     43          8           0       -3.219312   -4.761886    1.639431
     44          6           0       -2.883332   -5.667728    2.697387
     45          6           0        2.715349   -1.108487   -1.092008
     46          6           0        4.047095   -0.848977   -0.514752
     47          6           0        5.096340   -0.024289   -0.946787
     48          6           0        4.800715    0.783912   -2.170179
     49          6           0        6.274117    0.134358   -0.073407
     50          6           0        7.470628   -0.281900   -0.900838
     51          6           0        8.749075   -0.355052   -0.045132
     52          6           0       10.048396   -0.685092   -0.890217
     53          6           0       10.053385   -2.139923   -1.234988
     54          6           0       11.262587   -0.354532    0.037800
     55          6           0       12.662106   -0.465152   -0.751368
     56          6           0       13.850096   -0.108441    0.303849
     57          6           0       15.198456   -0.199262   -0.494855
     58          6           0       15.638255   -1.509693   -1.001242
     59          6           0       16.181368    0.503748    0.471496
     60          6           0       17.574435    0.775517   -0.096109
     61          6           0       18.640142    1.459973    0.702113
     62          6           0       20.053656    1.683814    0.156333
     63          6           0       20.165762    2.577180   -1.153894
     64          6           0       20.944744    2.276896    1.183471
     65          1           0       -4.007671    3.323939    1.855461
     66          1           0      -10.107240    4.127251   -0.033743
     67          1           0      -10.667464   -1.913075   -1.286155
     68          1           0       -2.784273   -1.326685    2.206298
     69          1           0       -2.193919    1.393050    1.305735
     70          1           0       -1.810078    0.930863    3.546198
     71          1           0       -2.958341    2.069985    3.426896
     72          1           0       -3.659738    0.393525    3.932075
     73          1           0       -2.244182   -1.898325   -0.447964
     74          1           0       -2.053088   -0.100860   -0.640830
     75          1           0       -0.394237    0.039678    1.121596
     76          1           0       -0.388417   -1.832061    1.392493
     77          1           0       -4.395915    5.929790    0.892562
     78          1           0       -5.609657    6.749697    1.427871
     79          1           0       -4.903696    5.873586    2.527104
     80          1           0       -8.030320    6.977794    1.206161
     81          1           0       -9.650147    6.081259   -1.344467
     82          1           0       -9.571422    7.558582   -0.602862
     83          1           0      -12.179597    3.361741   -0.034845
     84          1           0      -12.215338    3.708736   -1.751919
     85          1           0      -13.269113    2.511732   -1.069916
     86          1           0      -12.854042   -1.280763   -1.264315
     87          1           0      -13.406508    0.706310   -1.345062
     88          1           0      -12.257462    0.613917   -3.507001
     89          1           0      -11.706633   -1.183193   -3.387452
     90          1           0      -13.240806   -0.747059   -3.511655
     91          1           0      -10.127510   -4.431425   -0.845481
     92          1           0       -8.937614   -4.664902   -2.257464
     93          1           0       -8.587238   -5.536770   -0.863359
     94          1           0       -3.901562   -3.334546   -0.384397
     95          1           0       -2.193139   -6.447546    2.228945
     96          1           0       -2.195996   -5.188126    3.392677
     97          1           0       -3.965704   -5.901592    3.048484
     98          1           0        2.583006   -2.063703   -1.513514
     99          1           0        2.488109   -0.319059   -2.019983
    100          1           0        4.193833   -1.419778    0.472079
    101          1           0        4.799937    1.999670   -1.986326
    102          1           0        5.474176    0.648999   -3.175080
    103          1           0        3.783062    0.786479   -2.568357
    104          1           0        6.603842    1.152941    0.165073
    105          1           0        6.309515   -0.719329    0.735575
    106          1           0        7.425117   -1.544317   -1.273921
    107          1           0        7.751531    0.322398   -1.787004
    108          1           0        9.101982    0.633182    0.219555
    109          1           0        8.654297   -0.993879    0.899213
    110          1           0       10.275889   -0.113990   -1.971806
    111          1           0        9.283374   -2.215452   -2.073974
    112          1           0       11.024950   -2.435270   -1.724780
    113          1           0        9.716593   -2.998862   -0.426903
    114          1           0       11.195021    0.587798    0.448911
    115          1           0       11.225017   -1.079927    0.958671
    116          1           0       12.856608   -1.569577   -1.062449
    117          1           0       12.727755    0.214754   -1.514475
    118          1           0       13.618212    0.888360    1.047986
    119          1           0       14.105572   -0.809835    1.259320
    120          1           0       15.108008    0.301505   -1.489798
    121          1           0       15.008943   -1.986546   -1.864300
    122          1           0       16.660829   -1.445130   -1.568332
    123          1           0       15.902276   -2.417040   -0.287821
    124          1           0       15.855781    1.499461    0.719731
    125          1           0       16.175950   -0.087689    1.467073
    126          1           0       18.050966   -0.178445   -0.317173
    127          1           0       17.536785    1.283278   -1.011537
    128          1           0       18.173931    2.394009    0.851731
    129          1           0       18.503669    1.096656    1.838232
    130          1           0       20.540688    0.731197    0.005730
    131          1           0       19.993277    3.639214   -1.135849
    132          1           0       21.119635    2.460697   -1.611084
    133          1           0       19.362198    2.391858   -1.864196
    134          1           0       20.974796    1.677008    2.252606
    135          1           0       21.934297    2.339581    1.002507
    136          1           0       20.508830    3.408088    1.571833
    137          1           0       -7.198776    1.719404    0.874343
    138          1           0       -7.603897   -0.088959   -0.326114
 ---------------------------------------------------------------------

 SCF Done:  E(RB3LYP) =  -2732.97549162     A.U. after   16 cycles

 Excitation energies and oscillator strengths:

 Excited State   1:      Singlet-A      2.1165 eV  585.79 nm  f=0.2205  <S**2>=0.000
     235 -> 237       -0.16028
     235 -> 238        0.21000
     236 -> 237        0.63620
     236 -> 238        0.14563
 This state for optimization and/or second-order correction.
 Total Energy, E(TD-HF/TD-KS) =  -2732.89771081
 Copying the excited state density for this state as the 1-particle RhoCI density.

 The electronic state is 1-A.
 Alpha  occ. eigenvalues --  -19.18699 -19.17397 -19.11874 -19.11256 -19.09067
 Alpha  occ. eigenvalues --  -14.37941 -14.36984 -14.31076 -14.30538 -10.30527
 Alpha  occ. eigenvalues --  -10.29386 -10.26895 -10.25923 -10.25569 -10.24188
 Alpha  occ. eigenvalues --  -10.23935 -10.23392 -10.23013 -10.22406 -10.21839
 Alpha  occ. eigenvalues --  -10.21820 -10.21681 -10.21421 -10.21416 -10.21007
 Alpha  occ. eigenvalues --  -10.20990 -10.20956 -10.20871 -10.20855 -10.20605
 Alpha  occ. eigenvalues --  -10.20560 -10.20442 -10.20384 -10.20175 -10.20125
 Alpha  occ. eigenvalues --  -10.20116 -10.20043 -10.20015 -10.19982 -10.19756
 Alpha  occ. eigenvalues --  -10.19683 -10.19639 -10.19633 -10.19469 -10.19437
 Alpha  occ. eigenvalues --  -10.19306 -10.18941 -10.18924 -10.18889 -10.18880
 Alpha  occ. eigenvalues --  -10.18869 -10.18788 -10.18715 -10.18610 -10.18577
 Alpha  occ. eigenvalues --  -10.18421 -10.18420 -10.18334 -10.18206 -10.17772
 Alpha  occ. eigenvalues --  -10.17695 -10.17639 -10.17066 -10.16552  -1.12732
 Alpha  occ. eigenvalues --   -1.10368  -1.03198  -1.00279  -0.99968  -0.98784
 Alpha  occ. eigenvalues --   -0.98078  -0.94632  -0.91922  -0.83996  -0.83227
 Alpha  occ. eigenvalues --   -0.82114  -0.81785  -0.81262  -0.80679  -0.80560
 Alpha  occ. eigenvalues --   -0.79811  -0.79592  -0.78851  -0.78635  -0.77678
 Alpha  occ. eigenvalues --   -0.76525  -0.76051  -0.75903  -0.75164  -0.74944
 Alpha  occ. eigenvalues --   -0.73909  -0.73177  -0.72833  -0.71526  -0.71420
 Alpha  occ. eigenvalues --   -0.70208  -0.68919  -0.68382  -0.67902  -0.67889
 Alpha  occ. eigenvalues --   -0.67359  -0.67169  -0.65822  -0.65759  -0.64443
 Alpha  occ. eigenvalues --   -0.63557  -0.62914  -0.62201  -0.61822  -0.61077
 Alpha  occ. eigenvalues --   -0.60652  -0.58285  -0.57926  -0.57749  -0.56691
 Alpha  occ. eigenvalues --   -0.56268  -0.55850  -0.55806  -0.55318  -0.55070
 Alpha  occ. eigenvalues --   -0.54708  -0.54630  -0.54008  -0.53336  -0.52954
 Alpha  occ. eigenvalues --   -0.52285  -0.52112  -0.51467  -0.50968  -0.50621
 Alpha  occ. eigenvalues --   -0.50126  -0.49899  -0.49400  -0.49016  -0.47811
 Alpha  occ. eigenvalues --   -0.47592  -0.47353  -0.47311  -0.46928  -0.46589
 Alpha  occ. eigenvalues --   -0.46439  -0.46380  -0.46311  -0.46261  -0.46084
 Alpha  occ. eigenvalues --   -0.45456  -0.45129  -0.44760  -0.44601  -0.44499
 Alpha  occ. eigenvalues --   -0.44296  -0.44198  -0.44111  -0.43979  -0.43762
 Alpha  occ. eigenvalues --   -0.43630  -0.43396  -0.43277  -0.42975  -0.42837
 Alpha  occ. eigenvalues --   -0.42453  -0.42059  -0.41831  -0.41516  -0.41226
 Alpha  occ. eigenvalues --   -0.41172  -0.41057  -0.40922  -0.40746  -0.40486
 Alpha  occ. eigenvalues --   -0.40262  -0.39879  -0.39701  -0.39570  -0.39376
 Alpha  occ. eigenvalues --   -0.39017  -0.38851  -0.38539  -0.38294  -0.38175
 Alpha  occ. eigenvalues --   -0.38030  -0.37983  -0.37854  -0.37407  -0.37325
 Alpha  occ. eigenvalues --   -0.37104  -0.36990  -0.36650  -0.36451  -0.36334
 Alpha  occ. eigenvalues --   -0.36270  -0.35998  -0.35407  -0.35341  -0.35272
 Alpha  occ. eigenvalues --   -0.35215  -0.34957  -0.34824  -0.34728  -0.34441
 Alpha  occ. eigenvalues --   -0.34365  -0.34216  -0.33584  -0.33101  -0.32896
 Alpha  occ. eigenvalues --   -0.32861  -0.32773  -0.32753  -0.32547  -0.32243
 Alpha  occ. eigenvalues --   -0.31931  -0.31731  -0.31702  -0.31158  -0.30936
 Alpha  occ. eigenvalues --   -0.30864  -0.30684  -0.30112  -0.29813  -0.29551
 Alpha  occ. eigenvalues --   -0.29375  -0.28900  -0.27601  -0.27432  -0.27245
 Alpha  occ. eigenvalues --   -0.26887  -0.26187  -0.25578  -0.25438  -0.25225
 Alpha  occ. eigenvalues --   -0.24948  -0.24334  -0.23504  -0.22499  -0.20018
 Alpha  occ. eigenvalues --   -0.18479
 Alpha virt. eigenvalues --   -0.10007  -0.07122  -0.03961  -0.02458  -0.02107
 Alpha virt. eigenvalues --    0.00527   0.01503   0.02802   0.03070   0.03463
 Alpha virt. eigenvalues --    0.03616   0.04165   0.04274   0.04445   0.04790

 Mulliken charges:
               1
     1  C    0.001252
     2  C   -0.041946
     3  C   -0.098383
     4  C    0.019070
     5  N   -0.154937
     6  C   -0.088726
     7  C   -0.064753
     8  C    0.021548
     9  C   -0.021454
    10  C   -0.007273
    11  C    0.010766
    12  C    0.047410
    13  C    0.148907
    14  O   -0.254979
    15  O   -0.277363
    16  N   -0.016661
    17  C    0.041131
    18  C   -0.160783
    19  C    0.050870
    20  C    0.066011
    21  C    0.199239
    22  C   -0.039532
    23  C   -0.005127
    24  N   -0.306444
    25  C    0.090245
    26  C   -0.195992
    27  C   -0.030148
    28  C   -0.001672
    29  C    0.195195
    30  C   -0.074997
    31  C    0.082484
    32  N   -0.030234
    33  C    0.103656
    34  C   -0.115054
    35  C   -0.068227
    36  C    0.119358
    37  C    0.087157
    38  C    0.055106
    39  O   -0.146713
    40  C   -0.069496
    41  C    0.151117
    42  O   -0.274112
    43  O   -0.192980
    44  C    0.155864
    45  C    0.235091
    46  C   -0.123935
    47  C   -0.059284
    48  C   -0.022739
    49  C    0.173159
    50  C   -0.121913
    51  C    0.050187
    52  C   -0.143637
    53  C   -0.010454
    54  C    0.046812
    55  C    0.057123
    56  C   -0.084287
    57  C   -0.029112
    58  C   -0.059427
    59  C    0.044612
    60  C    0.069850
    61  C    0.016714
    62  C    0.000591
    63  C    0.047401
    64  C   -0.011781
    65  H   -0.048569
    66  H   -0.031185
    67  H   -0.072769
    68  H    0.040664
    69  H   -0.017101
    70  H    0.010941
    71  H   -0.017856
    72  H    0.065793
    73  H    0.034357
    74  H    0.006145
    75  H    0.011549
    76  H    0.042783
    77  H    0.002054
    78  H   -0.045220
    79  H    0.006114
    80  H    0.006902
    81  H    0.030171
    82  H   -0.008917
    83  H    0.025449
    84  H    0.011010
    85  H   -0.021209
    86  H    0.027928
    87  H    0.024536
    88  H    0.006187
    89  H    0.010092
    90  H   -0.026851
    91  H    0.040196
    92  H    0.034668
    93  H    0.026397
    94  H    0.020188
    95  H    0.043907
    96  H    0.030718
    97  H    0.074740
    98  H    0.032715
    99  H    0.050701
   100  H    0.009818
   101  H    0.024574
   102  H    0.048895
   103  H    0.000337
   104  H    0.011196
   105  H    0.024305
   106  H    0.017601
   107  H    0.015440
   108  H   -0.020891
   109  H    0.015337
   110  H    0.016648
   111  H    0.010096
   112  H    0.007059
   113  H    0.028147
   114  H   -0.029696
   115  H    0.003796
   116  H    0.039152
   117  H   -0.012834
   118  H    0.019765
   119  H    0.006598
   120  H   -0.008865
   121  H    0.020499
   122  H    0.019353
   123  H    0.013225
   124  H   -0.015946
   125  H    0.002076
   126  H   -0.025362
   127  H   -0.030791
   128  H   -0.044380
   129  H   -0.007398
   130  H   -0.008389
   131  H   -0.006359
   132  H    0.003198
   133  H   -0.007108
   134  H    0.007539
   135  H   -0.016158
   136  H    0.010427
   137  H    0.232285
   138  H    0.216211
 Sum of Mulliken charges =   0.00000

 Dipole moment (field-independent basis, Debye):
    X=              2.3462    Y=              4.8925    Z=             -0.1162  Tot=              5.4272
 Quadrupole moment (field-independent basis, Debye-Ang):
   XX=           -335.9554   YY=           -374.5754   ZZ=           -397.9204
   XY=            -28.5600   XZ=             -1.6812   YZ=              1.9175

 Normal termination of Gaussian 09 at Sun Aug  4 10:40:43 2019.
