 Gaussian 09, Revision D.01,
 Gaussian 09:  ES64L-G09RevD.01 24-Apr-2013

 --------------------------
 # td=(NStates=1) B3LYP/SVP
 --------------------------

 --
 TD
 --
 Symbolic Z-matrix:
 Charge =  0 Multiplicity = 1

                         Standard orientation:
 ---------------------------------------------------------------------
 Center     Atomic      Atomic             Coordinates (Angstroms)
 Number     Number       Type             X           Y           Z
 ---------------------------------------------------------------------
      1          6           0       -5.182184   -1.986954    0.489638
      2          6           0       -4.688183    2.705754    1.359572
      3          6           0       -9.360384    3.337720   -0.221467
      4          6           0       -9.770485   -1.400686   -0.927671
      5          7           0       -5.190859    0.341433    0.693542
      6          6           0       -4.472329   -0.852278    0.718018
      7          6           0       -3.156732   -0.652950    1.196194
      8          6           0       -3.099980    0.824711    1.817107
      9          6           0       -4.387336    1.306100    1.221857
     10          6           0       -3.055764    0.767158    3.276906
     11          6           0       -2.147401   -0.901508   -0.026243
     12          6           0       -0.623112   -0.738842    0.504729
     13          6           0        0.401742   -0.906662   -0.568869
     14          8           0        0.060460   -1.448854   -1.604560
     15          8           0        1.570249   -0.546184   -0.222537
     16          7           0       -6.991534    2.771865    0.524895
     17          6           0       -5.891232    3.403812    1.047750
     18          6           0       -6.289370    4.761431    1.139850
     19          6           0       -7.568585    4.958047    0.776271
     20          6           0       -8.105862    3.641896    0.285822
     21          6           0       -5.413217    5.821416    1.639119
     22          6           0       -8.230702    6.187381    0.544426
     23          6           0       -9.143278    6.643523   -0.432009
     24          7           0       -9.123208    0.885845   -0.448622
     25          6           0       -9.812896    2.127093   -0.550495
     26          6           0      -11.235229    1.916397   -0.944217
     27          6           0      -11.344622    0.555478   -1.076816
     28          6           0      -10.077723   -0.005337   -0.815059
     29          6           0      -12.223570    2.946206   -1.309719
     30          6           0      -12.563377   -0.210961   -1.675442
     31          6           0      -12.544567   -0.305954   -3.261088
     32          7           0       -7.520154   -1.284502   -0.213337
     33          6           0       -8.582907   -2.154469   -0.534526
     34          6           0       -8.229238   -3.529127   -0.696485
     35          6           0       -6.890217   -3.541356   -0.320294
     36          6           0       -6.481865   -2.127697    0.023401
     37          6           0       -8.975621   -4.750394   -1.082603
     38          6           0       -5.810765   -4.338995   -0.093327
     39          8           0       -5.714610   -5.601551   -0.171725
     40          6           0       -4.502310   -3.488622    0.401874
     41          6           0       -4.097654   -3.949319    1.783503
     42          8           0       -4.308438   -3.397152    2.831447
     43          8           0       -3.212774   -4.978018    1.634637
     44          6           0       -2.708192   -5.669205    2.818931
     45          6           0        2.634258   -0.697102   -1.231855
     46          6           0        3.907660   -0.371445   -0.655506
     47          6           0        4.925774    0.304383   -1.156413
     48          6           0        4.863395    0.938268   -2.548919
     49          6           0        6.221033    0.465262   -0.349333
     50          6           0        7.496071   -0.245958   -1.098386
     51          6           0        8.807746   -0.140260   -0.082163
     52          6           0       10.065993   -0.495905   -0.865707
     53          6           0       10.012872   -1.978646   -1.275684
     54          6           0       11.292145   -0.132320    0.123268
     55          6           0       12.701976   -0.445963   -0.488571
     56          6           0       13.895578   -0.087830    0.368162
     57          6           0       15.272746   -0.195692   -0.231320
     58          6           0       15.734754   -1.664664   -0.543644
     59          6           0       16.335416    0.601429    0.551446
     60          6           0       17.787173    0.587097   -0.030210
     61          6           0       18.813800    1.458237    0.678937
     62          6           0       20.217207    1.444450    0.180229
     63          6           0       20.344418    1.834908   -1.260590
     64          6           0       21.190404    2.228291    1.040150
     65          1           0       -3.693947    3.416758    1.789523
     66          1           0      -10.075578    4.382467   -0.269054
     67          1           0      -10.699070   -2.035907   -1.146853
     68          1           0       -2.844297   -1.358980    2.061609
     69          1           0       -2.320430    1.616022    1.322443
     70          1           0       -2.299187    0.119639    3.906228
     71          1           0       -2.755573    1.811412    3.710127
     72          1           0       -3.906875    0.517275    3.851983
     73          1           0       -2.343320   -2.004527   -0.299473
     74          1           0       -2.284473   -0.270597   -0.891939
     75          1           0       -0.424427    0.189083    1.079232
     76          1           0       -0.301806   -1.462658    1.242981
     77          1           0       -4.678147    6.008869    0.803955
     78          1           0       -5.985832    6.788924    2.021048
     79          1           0       -4.969964    5.541664    2.607288
     80          1           0       -8.058214    6.973746    1.424701
     81          1           0       -9.248615    6.072064   -1.318548
     82          1           0       -9.591229    7.632850   -0.272872
     83          1           0      -12.218985    3.755493   -0.352345
     84          1           0      -11.812680    3.870830   -1.927810
     85          1           0      -13.199322    2.787045   -1.560821
     86          1           0      -12.685662   -0.999685   -1.113855
     87          1           0      -13.603027    0.294701   -1.632111
     88          1           0      -12.741343    0.640927   -3.697676
     89          1           0      -11.743356   -0.783462   -3.464779
     90          1           0      -13.424838   -0.917840   -3.460593
     91          1           0      -10.066823   -4.597789   -0.793053
     92          1           0       -9.145355   -4.634352   -2.217674
     93          1           0       -8.422084   -5.620857   -0.740915
     94          1           0       -3.761664   -3.493065   -0.224430
     95          1           0       -1.420473   -5.854444    2.659868
     96          1           0       -2.954611   -4.678356    3.751286
     97          1           0       -3.341849   -6.754885    3.227848
     98          1           0        2.730398   -1.776505   -1.619027
     99          1           0        2.373379   -0.034108   -2.054291
    100          1           0        4.074823   -0.757718    0.216238
    101          1           0        5.228459    2.033604   -2.661039
    102          1           0        5.585627    0.414261   -3.272132
    103          1           0        3.946392    0.897569   -3.061482
    104          1           0        6.323118    1.464634   -0.030257
    105          1           0        6.212921   -0.205023    0.605832
    106          1           0        7.142967   -1.270445   -1.054999
    107          1           0        7.681939    0.262202   -2.020390
    108          1           0        8.726789    0.866916    0.281744
    109          1           0        8.739700   -0.854455    0.610121
    110          1           0       10.090885    0.111740   -1.775593
    111          1           0        8.855454   -2.015120   -1.650733
    112          1           0       10.775360   -2.283991   -2.049647
    113          1           0       10.102585   -2.474111   -0.297213
    114          1           0       11.174703    0.907603    0.393004
    115          1           0       11.242956   -0.670845    1.102508
    116          1           0       12.851238   -1.579910   -0.556663
    117          1           0       12.974466   -0.184922   -1.551721
    118          1           0       13.524690    0.852340    0.570739
    119          1           0       13.869487   -0.483006    1.526321
    120          1           0       15.318759    0.274363   -1.152446
    121          1           0       14.935564   -1.978372   -1.285861
    122          1           0       16.719057   -1.928078   -1.061813
    123          1           0       15.999384   -2.114880    0.403763
    124          1           0       15.924829    1.523378    0.790561
    125          1           0       16.472120    0.240143    1.602304
    126          1           0       18.221406   -0.261736   -0.220862
    127          1           0       17.619044    0.982876   -1.146842
    128          1           0       18.309902    2.505377    0.643988
    129          1           0       18.700354    1.111380    1.629553
    130          1           0       20.343648    0.399090    0.510160
    131          1           0       19.869337    2.833488   -1.447665
    132          1           0       21.307880    1.976891   -1.971762
    133          1           0       19.851080    1.257712   -2.104171
    134          1           0       21.655236    1.820181    2.073986
    135          1           0       22.133998    2.297110    0.453643
    136          1           0       21.078820    3.352935    1.072096
    137          1           0       -7.079426    1.816770    0.190128
    138          1           0       -7.496683   -0.306207   -0.134031
 ---------------------------------------------------------------------

 SCF Done:  E(RB3LYP) =  -2732.95738630     A.U. after   17 cycles

 Excitation energies and oscillator strengths:

 Excited State   1:      Singlet-A      1.9827 eV  625.32 nm  f=0.1787  <S**2>=0.000
     235 -> 238        0.27598
     236 -> 237        0.63828
 This state for optimization and/or second-order correction.
 Total Energy, E(TD-HF/TD-KS) =  -2732.88452191
 Copying the excited state density for this state as the 1-particle RhoCI density.

 The electronic state is 1-A.
 Alpha  occ. eigenvalues --  -19.18953 -19.17489 -19.12995 -19.10933 -19.10504
 Alpha  occ. eigenvalues --  -14.37328 -14.36809 -14.32467 -14.30391 -10.31792
 Alpha  occ. eigenvalues --  -10.30322 -10.28744 -10.27006 -10.25655 -10.24669
 Alpha  occ. eigenvalues --  -10.24410 -10.24120 -10.23922 -10.23434 -10.22557
 Alpha  occ. eigenvalues --  -10.22386 -10.21822 -10.21656 -10.21476 -10.21390
 Alpha  occ. eigenvalues --  -10.21331 -10.21221 -10.20912 -10.20885 -10.20875
 Alpha  occ. eigenvalues --  -10.20727 -10.20561 -10.20538 -10.20519 -10.20352
 Alpha  occ. eigenvalues --  -10.20325 -10.20180 -10.20111 -10.20061 -10.20001
 Alpha  occ. eigenvalues --  -10.19872 -10.19753 -10.19735 -10.19693 -10.19479
 Alpha  occ. eigenvalues --  -10.19311 -10.19294 -10.19251 -10.19180 -10.19091
 Alpha  occ. eigenvalues --  -10.19080 -10.18803 -10.18763 -10.18739 -10.18398
 Alpha  occ. eigenvalues --  -10.18310 -10.18135 -10.18024 -10.17937 -10.17502
 Alpha  occ. eigenvalues --  -10.17322 -10.17257 -10.17235 -10.16948  -1.11600
 Alpha  occ. eigenvalues --   -1.08671  -1.00536  -0.99880  -0.99204  -0.98084
 Alpha  occ. eigenvalues --   -0.97107  -0.94374  -0.92871  -0.83884  -0.83261
 Alpha  occ. eigenvalues --   -0.82428  -0.82367  -0.82057  -0.81490  -0.80666
 Alpha  occ. eigenvalues --   -0.80414  -0.79816  -0.79101  -0.78740  -0.77616
 Alpha  occ. eigenvalues --   -0.76798  -0.76094  -0.75171  -0.74814  -0.74550
 Alpha  occ. eigenvalues --   -0.73353  -0.73024  -0.72359  -0.71886  -0.71104
 Alpha  occ. eigenvalues --   -0.70172  -0.69426  -0.68918  -0.68144  -0.67293
 Alpha  occ. eigenvalues --   -0.67056  -0.66994  -0.66880  -0.66326  -0.65904
 Alpha  occ. eigenvalues --   -0.64196  -0.63742  -0.63182  -0.62648  -0.62042
 Alpha  occ. eigenvalues --   -0.61471  -0.60103  -0.59359  -0.57842  -0.57678
 Alpha  occ. eigenvalues --   -0.57098  -0.56477  -0.56388  -0.55959  -0.55531
 Alpha  occ. eigenvalues --   -0.55411  -0.55134  -0.54355  -0.53427  -0.52960
 Alpha  occ. eigenvalues --   -0.52715  -0.51746  -0.51539  -0.51156  -0.50781
 Alpha  occ. eigenvalues --   -0.50191  -0.49635  -0.49149  -0.48674  -0.48544
 Alpha  occ. eigenvalues --   -0.48015  -0.47787  -0.47497  -0.47330  -0.47244
 Alpha  occ. eigenvalues --   -0.47043  -0.46873  -0.46552  -0.46174  -0.45812
 Alpha  occ. eigenvalues --   -0.45440  -0.45337  -0.45247  -0.44853  -0.44515
 Alpha  occ. eigenvalues --   -0.44399  -0.44389  -0.43950  -0.43685  -0.43589
 Alpha  occ. eigenvalues --   -0.43530  -0.43212  -0.43075  -0.42688  -0.42323
 Alpha  occ. eigenvalues --   -0.42223  -0.42136  -0.41874  -0.41840  -0.41653
 Alpha  occ. eigenvalues --   -0.41369  -0.40962  -0.40694  -0.40403  -0.40225
 Alpha  occ. eigenvalues --   -0.40108  -0.39795  -0.39631  -0.39424  -0.39183
 Alpha  occ. eigenvalues --   -0.39101  -0.39053  -0.38762  -0.38545  -0.38273
 Alpha  occ. eigenvalues --   -0.37989  -0.37898  -0.37765  -0.37689  -0.37260
 Alpha  occ. eigenvalues --   -0.37114  -0.37052  -0.36694  -0.36417  -0.36383
 Alpha  occ. eigenvalues --   -0.36071  -0.35955  -0.35695  -0.35565  -0.35449
 Alpha  occ. eigenvalues --   -0.35222  -0.35108  -0.35083  -0.35059  -0.34652
 Alpha  occ. eigenvalues --   -0.34442  -0.34313  -0.34209  -0.34027  -0.33867
 Alpha  occ. eigenvalues --   -0.33733  -0.33014  -0.32872  -0.32481  -0.32286
 Alpha  occ. eigenvalues --   -0.32067  -0.31774  -0.31636  -0.31388  -0.31307
 Alpha  occ. eigenvalues --   -0.31029  -0.30838  -0.30217  -0.29665  -0.29566
 Alpha  occ. eigenvalues --   -0.29436  -0.29158  -0.28293  -0.28074  -0.27796
 Alpha  occ. eigenvalues --   -0.27709  -0.27502  -0.26747  -0.26608  -0.26146
 Alpha  occ. eigenvalues --   -0.25066  -0.24041  -0.23768  -0.22289  -0.20027
 Alpha  occ. eigenvalues --   -0.18933
 Alpha virt. eigenvalues --   -0.10690  -0.07873  -0.05286  -0.02665  -0.00743
 Alpha virt. eigenvalues --    0.00136   0.00286   0.01562   0.02165   0.02643
 Alpha virt. eigenvalues --    0.03339   0.03895   0.04079   0.04511   0.04720

 Mulliken charges:
               1
     1  C   -0.006374
     2  C   -0.114490
     3  C   -0.149783
     4  C   -0.095224
     5  N   -0.205692
     6  C   -0.001304
     7  C   -0.076791
     8  C   -0.048470
     9  C   -0.009908
    10  C    0.043211
    11  C    0.065831
    12  C    0.044688
    13  C    0.132730
    14  O   -0.268439
    15  O   -0.262593
    16  N   -0.108754
    17  C    0.118774
    18  C   -0.113443
    19  C    0.069880
    20  C    0.033368
    21  C    0.060535
    22  C   -0.131546
    23  C   -0.013954
    24  N   -0.277301
    25  C    0.139786
    26  C   -0.088114
    27  C   -0.092236
    28  C    0.052514
    29  C    0.072325
    30  C    0.050134
    31  C    0.124989
    32  N   -0.009493
    33  C    0.093026
    34  C   -0.131573
    35  C    0.108611
    36  C    0.063383
    37  C    0.123265
    38  C   -0.023736
    39  O   -0.242564
    40  C    0.018544
    41  C    0.248685
    42  O   -0.210696
    43  O   -0.302606
    44  C   -0.019762
    45  C    0.318669
    46  C   -0.060080
    47  C   -0.108943
    48  C    0.044976
    49  C    0.038299
    50  C   -0.028285
    51  C    0.081048
    52  C   -0.087812
    53  C   -0.004238
    54  C    0.050197
    55  C    0.001145
    56  C    0.029182
    57  C   -0.001978
    58  C    0.001498
    59  C    0.064514
    60  C    0.046261
    61  C    0.054756
    62  C    0.011144
    63  C   -0.034615
    64  C   -0.001257
    65  H    0.032166
    66  H    0.040452
    67  H   -0.006174
    68  H    0.038349
    69  H    0.037463
    70  H    0.024362
    71  H    0.005820
    72  H    0.014685
    73  H    0.038522
    74  H    0.018339
    75  H    0.008685
    76  H    0.013596
    77  H    0.046075
    78  H    0.023285
    79  H    0.025584
    80  H    0.026080
    81  H    0.025363
    82  H    0.035094
    83  H    0.014311
    84  H    0.023035
    85  H   -0.002905
    86  H   -0.036204
    87  H   -0.006531
    88  H    0.012432
    89  H   -0.036231
    90  H   -0.000508
    91  H    0.021222
    92  H    0.038420
    93  H    0.062270
    94  H   -0.004997
    95  H    0.074693
    96  H    0.081155
    97  H    0.086049
    98  H    0.054653
    99  H    0.015100
   100  H   -0.086865
   101  H    0.023143
   102  H    0.026417
   103  H   -0.008966
   104  H    0.007831
   105  H    0.006741
   106  H    0.029076
   107  H    0.016555
   108  H   -0.001503
   109  H   -0.040718
   110  H   -0.013967
   111  H    0.021599
   112  H    0.038581
   113  H    0.010123
   114  H   -0.011031
   115  H   -0.000358
   116  H   -0.001955
   117  H   -0.002274
   118  H   -0.042182
   119  H   -0.005091
   120  H   -0.037128
   121  H    0.023181
   122  H    0.014526
   123  H    0.002287
   124  H   -0.039147
   125  H   -0.028914
   126  H   -0.065100
   127  H   -0.013252
   128  H   -0.014497
   129  H   -0.036394
   130  H   -0.008292
   131  H    0.005599
   132  H    0.016042
   133  H    0.009755
   134  H    0.029934
   135  H   -0.008143
   136  H    0.002695
   137  H    0.144441
   138  H    0.119631
 Sum of Mulliken charges =   0.00000

 Dipole moment (field-independent basis, Debye):
    X=              2.3111    Y=              5.1922    Z=             -0.1106  Tot=              5.6844
 Quadrupole moment (field-independent basis, Debye-Ang):
   XX=           -347.6692   YY=           -393.0375   ZZ=           -392.2171
   XY=            -24.0918   XZ=              7.8526   YZ=             -3.6203

 Normal termination of Gaussian 09 at Wed Jul 31 04:59:58 2019.
