 Gaussian 09, Revision D.01,
 Gaussian 09:  ES64L-G09RevD.01 24-Apr-2013

 --------------------------
 # td=(NStates=1) B3LYP/SVP
 --------------------------

 --
 TD
 --
 Symbolic Z-matrix:
 Charge =  0 Multiplicity = 1

                         Standard orientation:
 ---------------------------------------------------------------------
 Center     Atomic      Atomic             Coordinates (Angstroms)
 Number     Number       Type             X           Y           Z
 ---------------------------------------------------------------------
      1          6           0       -5.221862   -1.987167    0.486831
      2          6           0       -4.752278    2.670311    1.507289
      3          6           0       -9.269547    3.259785   -0.316038
      4          6           0       -9.786971   -1.362530   -0.967832
      5          7           0       -5.167971    0.395886    0.858352
      6          6           0       -4.592704   -0.823669    0.892682
      7          6           0       -3.067372   -0.605437    1.334154
      8          6           0       -3.055793    0.817138    1.948241
      9          6           0       -4.387035    1.349203    1.486525
     10          6           0       -2.836402    0.995740    3.440586
     11          6           0       -2.133596   -0.753002    0.156815
     12          6           0       -0.528511   -0.584014    0.545635
     13          6           0        0.394989   -0.821250   -0.587542
     14          8           0        0.012205   -1.293113   -1.679418
     15          8           0        1.582797   -0.571077   -0.336962
     16          7           0       -7.072117    2.699779    0.487727
     17          6           0       -6.000781    3.329361    1.026982
     18          6           0       -6.265191    4.696907    1.158090
     19          6           0       -7.534156    4.980427    0.643045
     20          6           0       -8.070060    3.671141    0.170701
     21          6           0       -5.249938    5.743658    1.770759
     22          6           0       -8.135172    6.239238    0.297281
     23          6           0       -8.960091    6.630618   -0.663776
     24          7           0       -9.265321    0.961113   -0.363572
     25          6           0       -9.905433    2.094216   -0.561508
     26          6           0      -11.271500    1.883270   -0.997888
     27          6           0      -11.436162    0.517682   -1.194182
     28          6           0      -10.008530    0.024377   -0.827011
     29          6           0      -12.208830    3.069698   -1.400156
     30          6           0      -12.611687   -0.162615   -1.691511
     31          6           0      -12.580121   -0.457537   -3.223202
     32          7           0       -7.528901   -1.246767   -0.143521
     33          6           0       -8.535922   -1.923878   -0.611094
     34          6           0       -8.277228   -3.430656   -0.607769
     35          6           0       -6.900117   -3.417613   -0.255151
     36          6           0       -6.447749   -2.113969    0.150532
     37          6           0       -9.152991   -4.521382   -1.046867
     38          6           0       -5.725930   -4.345652   -0.013652
     39          8           0       -5.710205   -5.550832   -0.286852
     40          6           0       -4.592845   -3.375923    0.461364
     41          6           0       -4.093593   -3.923801    1.838614
     42          8           0       -4.340543   -3.539459    2.933741
     43          8           0       -3.172510   -4.913124    1.664046
     44          6           0       -2.596772   -5.479448    2.749410
     45          6           0        2.654954   -0.999935   -1.259554
     46          6           0        3.931206   -0.669775   -0.704692
     47          6           0        4.986303    0.034462   -1.155028
     48          6           0        4.802339    0.717435   -2.467944
     49          6           0        6.280270    0.143210   -0.452416
     50          6           0        7.575663   -0.405951   -1.063633
     51          6           0        8.822161   -0.222020   -0.227980
     52          6           0       10.093184   -0.792129   -0.866324
     53          6           0       10.050560   -2.279002   -0.942427
     54          6           0       11.390710   -0.275198    0.018669
     55          6           0       12.686317   -0.584981   -0.649317
     56          6           0       13.895855   -0.028877    0.098674
     57          6           0       15.336981   -0.139713   -0.439500
     58          6           0       15.644792   -1.613744   -0.655577
     59          6           0       16.259096    0.539874    0.583884
     60          6           0       17.740849    0.738244   -0.030766
     61          6           0       18.536166    1.731488    0.671017
     62          6           0       20.051509    1.574536    0.311730
     63          6           0       20.305650    1.979150   -1.267561
     64          6           0       20.999801    2.558018    1.142783
     65          1           0       -4.042963    3.439057    1.969746
     66          1           0      -10.072769    4.116717   -0.349074
     67          1           0      -10.545551   -1.969520   -1.377624
     68          1           0       -2.693234   -1.316717    2.259238
     69          1           0       -2.201528    1.315120    1.343843
     70          1           0       -2.019443    0.553775    4.017735
     71          1           0       -2.487870    2.149859    3.865349
     72          1           0       -3.757004    0.494996    4.009684
     73          1           0       -2.278415   -1.838085   -0.228349
     74          1           0       -2.282575   -0.105432   -0.626739
     75          1           0       -0.398594    0.531233    0.879093
     76          1           0       -0.490277   -1.289413    1.224869
     77          1           0       -4.153443    5.430358    1.311029
     78          1           0       -5.626121    6.844580    1.327502
     79          1           0       -5.433834    5.705004    3.003280
     80          1           0       -7.805052    7.098522    0.913719
     81          1           0       -9.340872    5.888411   -1.556443
     82          1           0       -9.449966    7.689956   -0.685263
     83          1           0      -12.253161    3.734537   -0.486095
     84          1           0      -11.589928    3.611256   -2.324957
     85          1           0      -13.223811    2.635161   -1.658601
     86          1           0      -12.837246   -1.226666   -1.272253
     87          1           0      -13.548528    0.552008   -1.505217
     88          1           0      -12.538931    0.411886   -3.887178
     89          1           0      -11.620705   -0.989442   -3.451910
     90          1           0      -13.492110   -0.990471   -3.542275
     91          1           0       -9.835450   -4.831715   -0.361700
     92          1           0       -9.663135   -4.434195   -1.976117
     93          1           0       -8.341056   -5.358885   -1.178905
     94          1           0       -3.557894   -3.364070   -0.194557
     95          1           0       -1.732052   -6.156911    2.564014
     96          1           0       -2.161486   -4.818091    3.362153
     97          1           0       -3.371676   -5.805235    3.351934
     98          1           0        2.504588   -2.072851   -1.307413
     99          1           0        2.550499   -0.576835   -2.398139
    100          1           0        4.249171   -1.267192    0.315336
    101          1           0        5.356438    1.612845   -2.460213
    102          1           0        5.419592    0.236166   -3.238425
    103          1           0        3.758298    0.861937   -2.642337
    104          1           0        6.454767    1.295691   -0.098420
    105          1           0        5.924506   -0.261893    0.692975
    106          1           0        7.434883   -1.432292   -1.292010
    107          1           0        7.793112    0.079915   -2.110207
    108          1           0        9.002578    0.776397   -0.067511
    109          1           0        8.623588   -0.821638    0.740358
    110          1           0       10.256811   -0.484976   -1.969893
    111          1           0        9.272400   -2.872613   -1.315615
    112          1           0       10.892751   -2.811632   -1.380231
    113          1           0       10.227546   -2.837215    0.079201
    114          1           0       11.260826    0.997820    0.192376
    115          1           0       11.290104   -0.670636    0.933175
    116          1           0       13.022959   -1.735344   -0.753651
    117          1           0       12.830173   -0.249860   -1.688039
    118          1           0       13.588090    1.116328    0.308961
    119          1           0       13.759381   -0.341040    1.197550
    120          1           0       15.618303    0.383793   -1.647190
    121          1           0       14.839911   -2.103657   -1.215629
    122          1           0       16.419983   -1.705614   -1.574964
    123          1           0       15.864006   -2.133388    0.389064
    124          1           0       15.819057    1.665765    0.749930
    125          1           0       16.282580    0.116921    1.529032
    126          1           0       18.239865   -0.352120    0.146944
    127          1           0       17.808496    0.896327   -1.301889
    128          1           0       18.338592    2.893789    0.357882
    129          1           0       18.519081    1.398191    1.883199
    130          1           0       20.358730    0.429284    0.398358
    131          1           0       19.827125    2.944982   -1.425412
    132          1           0       21.357492    2.053973   -1.545612
    133          1           0       19.757265    1.207660   -1.963966
    134          1           0       20.944904    2.315523    2.259075
    135          1           0       22.139463    2.397094    0.770364
    136          1           0       20.838482    3.688538    0.992162
    137          1           0       -7.152368    1.809209    0.263733
    138          1           0       -7.660068   -0.214079   -0.238536
 ---------------------------------------------------------------------

 SCF Done:  E(RB3LYP) =  -2732.99469219     A.U. after   17 cycles

 Excitation energies and oscillator strengths:

 Excited State   1:      Singlet-A      2.0414 eV  607.34 nm  f=0.2441  <S**2>=0.000
     235 -> 238       -0.26585
     236 -> 237        0.64594
 This state for optimization and/or second-order correction.
 Total Energy, E(TD-HF/TD-KS) =  -2732.91967141
 Copying the excited state density for this state as the 1-particle RhoCI density.

 The electronic state is 1-A.
 Alpha  occ. eigenvalues --  -19.18752 -19.16982 -19.13018 -19.13013 -19.09841
 Alpha  occ. eigenvalues --  -14.37008 -14.36206 -14.32147 -14.29661 -10.32157
 Alpha  occ. eigenvalues --  -10.30415 -10.28863 -10.26667 -10.23778 -10.23648
 Alpha  occ. eigenvalues --  -10.23624 -10.23536 -10.23430 -10.23428 -10.23113
 Alpha  occ. eigenvalues --  -10.22439 -10.22298 -10.22267 -10.21966 -10.21442
 Alpha  occ. eigenvalues --  -10.21424 -10.21416 -10.21106 -10.20952 -10.20917
 Alpha  occ. eigenvalues --  -10.20907 -10.20792 -10.20772 -10.20765 -10.20744
 Alpha  occ. eigenvalues --  -10.20735 -10.20709 -10.20653 -10.20361 -10.20311
 Alpha  occ. eigenvalues --  -10.20208 -10.20176 -10.20009 -10.20008 -10.19979
 Alpha  occ. eigenvalues --  -10.19932 -10.19903 -10.19777 -10.19719 -10.19659
 Alpha  occ. eigenvalues --  -10.19575 -10.19398 -10.19342 -10.19262 -10.19233
 Alpha  occ. eigenvalues --  -10.19169 -10.19128 -10.18735 -10.18666 -10.18610
 Alpha  occ. eigenvalues --  -10.18559 -10.18489 -10.18441 -10.17944  -1.12513
 Alpha  occ. eigenvalues --   -1.10934  -1.02034  -1.01959  -0.99088  -0.97763
 Alpha  occ. eigenvalues --   -0.97637  -0.96111  -0.93557  -0.86856  -0.83899
 Alpha  occ. eigenvalues --   -0.82113  -0.81727  -0.81060  -0.80722  -0.80460
 Alpha  occ. eigenvalues --   -0.80026  -0.79489  -0.79196  -0.78572  -0.78181
 Alpha  occ. eigenvalues --   -0.77032  -0.76306  -0.75966  -0.74926  -0.74176
 Alpha  occ. eigenvalues --   -0.73853  -0.73495  -0.72617  -0.72026  -0.70841
 Alpha  occ. eigenvalues --   -0.70141  -0.69420  -0.69090  -0.67907  -0.67234
 Alpha  occ. eigenvalues --   -0.66962  -0.66700  -0.65902  -0.65712  -0.65537
 Alpha  occ. eigenvalues --   -0.64558  -0.62974  -0.62371  -0.61778  -0.61604
 Alpha  occ. eigenvalues --   -0.60919  -0.59140  -0.58353  -0.58005  -0.57408
 Alpha  occ. eigenvalues --   -0.56863  -0.56754  -0.56310  -0.56057  -0.55670
 Alpha  occ. eigenvalues --   -0.55397  -0.53808  -0.53528  -0.53045  -0.52925
 Alpha  occ. eigenvalues --   -0.52518  -0.52004  -0.51556  -0.51418  -0.50907
 Alpha  occ. eigenvalues --   -0.50319  -0.49919  -0.49278  -0.49090  -0.48825
 Alpha  occ. eigenvalues --   -0.47888  -0.47632  -0.47519  -0.47119  -0.46832
 Alpha  occ. eigenvalues --   -0.46784  -0.46489  -0.45761  -0.45686  -0.45546
 Alpha  occ. eigenvalues --   -0.45335  -0.45117  -0.44721  -0.44636  -0.44594
 Alpha  occ. eigenvalues --   -0.44364  -0.44297  -0.43904  -0.43659  -0.43515
 Alpha  occ. eigenvalues --   -0.43277  -0.43133  -0.43024  -0.42757  -0.42376
 Alpha  occ. eigenvalues --   -0.42266  -0.42092  -0.41774  -0.41620  -0.41613
 Alpha  occ. eigenvalues --   -0.41497  -0.41230  -0.41073  -0.40360  -0.40317
 Alpha  occ. eigenvalues --   -0.40200  -0.39997  -0.39756  -0.39703  -0.39462
 Alpha  occ. eigenvalues --   -0.39062  -0.38853  -0.38721  -0.38619  -0.38329
 Alpha  occ. eigenvalues --   -0.38224  -0.38157  -0.37883  -0.37846  -0.37745
 Alpha  occ. eigenvalues --   -0.37558  -0.37184  -0.37120  -0.37107  -0.36418
 Alpha  occ. eigenvalues --   -0.35905  -0.35850  -0.35560  -0.35432  -0.35290
 Alpha  occ. eigenvalues --   -0.35211  -0.35093  -0.34968  -0.34909  -0.34665
 Alpha  occ. eigenvalues --   -0.34400  -0.34113  -0.33721  -0.33457  -0.33220
 Alpha  occ. eigenvalues --   -0.33089  -0.32858  -0.32743  -0.32681  -0.32186
 Alpha  occ. eigenvalues --   -0.32100  -0.31895  -0.31654  -0.31415  -0.31331
 Alpha  occ. eigenvalues --   -0.31316  -0.30955  -0.30682  -0.29854  -0.29823
 Alpha  occ. eigenvalues --   -0.29778  -0.29211  -0.29003  -0.28176  -0.28068
 Alpha  occ. eigenvalues --   -0.26900  -0.26799  -0.26403  -0.26335  -0.25966
 Alpha  occ. eigenvalues --   -0.25287  -0.25114  -0.23798  -0.22877  -0.20150
 Alpha  occ. eigenvalues --   -0.18430
 Alpha virt. eigenvalues --   -0.10098  -0.07584  -0.05037  -0.01713  -0.01552
 Alpha virt. eigenvalues --    0.00066   0.00677   0.01187   0.02209   0.02352
 Alpha virt. eigenvalues --    0.03252   0.03384   0.03963   0.04098   0.04157

 Mulliken charges:
               1
     1  C    0.055488
     2  C   -0.059335
     3  C   -0.061759
     4  C   -0.079589
     5  N   -0.187830
     6  C   -0.072198
     7  C   -0.100412
     8  C    0.014224
     9  C    0.015652
    10  C   -0.015716
    11  C    0.045247
    12  C    0.075240
    13  C    0.133908
    14  O   -0.304648
    15  O   -0.225971
    16  N    0.013327
    17  C    0.071052
    18  C   -0.138754
    19  C    0.104472
    20  C    0.033577
    21  C   -0.043312
    22  C   -0.042502
    23  C   -0.113086
    24  N   -0.155877
    25  C   -0.001740
    26  C   -0.125512
    27  C   -0.076586
    28  C    0.044893
    29  C    0.037257
    30  C   -0.018944
    31  C   -0.001989
    32  N   -0.020251
    33  C    0.014014
    34  C   -0.140488
    35  C   -0.041835
    36  C    0.140768
    37  C    0.121641
    38  C    0.132273
    39  O   -0.178976
    40  C   -0.126258
    41  C    0.189935
    42  O   -0.192624
    43  O   -0.291382
    44  C    0.282449
    45  C    0.262246
    46  C   -0.116823
    47  C   -0.174083
    48  C    0.145001
    49  C   -0.012025
    50  C    0.043502
    51  C    0.100325
    52  C   -0.072566
    53  C    0.022320
    54  C    0.035722
    55  C    0.044570
    56  C   -0.051512
    57  C   -0.100982
    58  C    0.007127
    59  C    0.050097
    60  C   -0.065611
    61  C    0.013297
    62  C   -0.147966
    63  C   -0.017120
    64  C   -0.021696
    65  H   -0.011255
    66  H   -0.001686
    67  H   -0.048859
    68  H    0.029059
    69  H    0.012825
    70  H    0.009958
    71  H    0.027863
    72  H    0.042605
    73  H    0.020766
    74  H   -0.007527
    75  H    0.048424
    76  H   -0.014686
    77  H    0.072055
    78  H    0.052453
    79  H    0.075131
    80  H    0.000231
    81  H    0.047324
    82  H    0.044066
    83  H    0.043734
    84  H    0.060444
    85  H    0.025444
    86  H    0.021536
    87  H    0.023464
    88  H    0.003922
    89  H    0.013564
    90  H    0.015963
    91  H    0.007177
    92  H    0.021378
    93  H    0.055965
    94  H    0.107257
    95  H    0.030196
    96  H   -0.044201
    97  H   -0.015222
    98  H    0.021098
    99  H    0.059656
   100  H    0.006882
   101  H   -0.023197
   102  H    0.014783
   103  H    0.024182
   104  H    0.024340
   105  H    0.014065
   106  H   -0.009166
   107  H    0.003901
   108  H   -0.031431
   109  H    0.007611
   110  H    0.006390
   111  H   -0.007642
   112  H   -0.011548
   113  H   -0.015574
   114  H    0.018932
   115  H   -0.030189
   116  H    0.017766
   117  H   -0.006799
   118  H   -0.009777
   119  H   -0.006753
   120  H    0.017897
   121  H    0.003693
   122  H    0.017249
   123  H    0.032724
   124  H    0.012757
   125  H   -0.012900
   126  H    0.015408
   127  H    0.029734
   128  H    0.030414
   129  H    0.020202
   130  H    0.018213
   131  H    0.002689
   132  H    0.015475
   133  H    0.025968
   134  H    0.022120
   135  H    0.022719
   136  H    0.025094
   137  H    0.049707
   138  H    0.162278
 Sum of Mulliken charges =   0.00000

 Dipole moment (field-independent basis, Debye):
    X=              4.3064    Y=              3.0476    Z=              0.1431  Tot=              5.2777
 Quadrupole moment (field-independent basis, Debye-Ang):
   XX=           -350.0423   YY=           -392.5419   ZZ=           -396.2308
   XY=            -21.5269   XZ=             11.7215   YZ=             -2.6890

 Normal termination of Gaussian 09 at Sun Aug  4 01:04:53 2019.
