 Gaussian 09, Revision D.01,
 Gaussian 09:  ES64L-G09RevD.01 24-Apr-2013

 --------------------------
 # td=(NStates=1) B3LYP/SVP
 --------------------------

 --
 TD
 --
 Symbolic Z-matrix:
 Charge =  0 Multiplicity = 1

                         Standard orientation:
 ---------------------------------------------------------------------
 Center     Atomic      Atomic             Coordinates (Angstroms)
 Number     Number       Type             X           Y           Z
 ---------------------------------------------------------------------
      1          6           0       -5.118106   -1.858177    0.460278
      2          6           0       -4.617915    2.760710    1.290149
      3          6           0       -9.258436    3.388984   -0.288048
      4          6           0       -9.780160   -1.409696   -0.841399
      5          7           0       -5.194005    0.559605    0.783437
      6          6           0       -4.536351   -0.650955    0.806881
      7          6           0       -3.131543   -0.487103    1.276140
      8          6           0       -3.040113    0.869060    1.762598
      9          6           0       -4.317604    1.438571    1.274744
     10          6           0       -3.042234    0.907510    3.336209
     11          6           0       -2.100097   -0.896654    0.144240
     12          6           0       -0.644947   -0.792211    0.575956
     13          6           0        0.359151   -1.089653   -0.553261
     14          8           0        0.107827   -1.314830   -1.731848
     15          8           0        1.626358   -1.128844   -0.165901
     16          7           0       -6.965617    2.738730    0.310752
     17          6           0       -5.785796    3.370277    0.859437
     18          6           0       -6.101256    4.775945    1.048447
     19          6           0       -7.419338    4.989641    0.519444
     20          6           0       -7.965923    3.681358    0.151555
     21          6           0       -5.230055    5.863717    1.482931
     22          6           0       -7.938640    6.389760    0.298058
     23          6           0       -8.972884    6.663402   -0.561069
     24          7           0       -9.187542    0.997664   -0.460385
     25          6           0       -9.821665    2.157346   -0.514395
     26          6           0      -11.097449    1.963481   -0.975876
     27          6           0      -11.327844    0.624645   -1.151520
     28          6           0      -10.039965   -0.087571   -0.704512
     29          6           0      -12.161147    3.000320   -1.268055
     30          6           0      -12.502873    0.002283   -1.645812
     31          6           0      -12.526714   -0.329098   -3.158992
     32          7           0       -7.497185   -1.251676   -0.092298
     33          6           0       -8.573373   -1.971533   -0.506787
     34          6           0       -8.239901   -3.348302   -0.534334
     35          6           0       -6.882804   -3.364225   -0.192156
     36          6           0       -6.412325   -2.036561    0.090870
     37          6           0       -9.130795   -4.510997   -1.011501
     38          6           0       -5.766278   -4.283933    0.051948
     39          8           0       -5.839313   -5.514007    0.058518
     40          6           0       -4.507680   -3.357821    0.456862
     41          6           0       -4.029287   -3.744597    1.756916
     42          8           0       -4.416999   -3.445542    2.870673
     43          8           0       -3.035779   -4.645419    1.597737
     44          6           0       -2.538460   -5.364690    2.748611
     45          6           0        2.631224   -1.323711   -1.231343
     46          6           0        3.919306   -1.078033   -0.646187
     47          6           0        4.913056   -0.295974   -1.117886
     48          6           0        4.859771    0.452677   -2.466172
     49          6           0        6.280664   -0.107009   -0.283933
     50          6           0        7.510767   -0.661217   -0.995636
     51          6           0        8.710242   -0.603967   -0.003659
     52          6           0       10.054602   -0.912084   -0.727251
     53          6           0       10.185357   -2.433044   -1.219266
     54          6           0       11.274564   -0.390845    0.152879
     55          6           0       12.627039   -0.542076   -0.563698
     56          6           0       13.807918   -0.020054    0.233818
     57          6           0       15.156870   -0.047427   -0.527315
     58          6           0       15.576776   -1.510831   -0.939891
     59          6           0       16.140019    0.682850    0.457217
     60          6           0       17.563197    0.799905   -0.135151
     61          6           0       18.500691    1.685199    0.722809
     62          6           0       20.017731    1.908968    0.243290
     63          6           0       20.234276    2.461329   -1.182583
     64          6           0       20.784147    2.776821    1.365494
     65          1           0       -3.822705    3.602234    1.452432
     66          1           0       -9.933487    4.261255   -0.301630
     67          1           0      -10.595334   -1.952668   -1.209895
     68          1           0       -2.883896   -1.249755    2.158193
     69          1           0       -2.369595    1.418302    1.270233
     70          1           0       -1.964262    0.587751    3.630097
     71          1           0       -3.314777    1.872092    3.653072
     72          1           0       -3.912494    0.287061    3.583810
     73          1           0       -2.299305   -1.867571   -0.217304
     74          1           0       -2.259293   -0.359281   -0.653947
     75          1           0       -0.361471    0.390191    0.855883
     76          1           0       -0.222585   -1.386017    1.320742
     77          1           0       -4.093462    5.688775    1.126972
     78          1           0       -5.565338    6.836127    1.362206
     79          1           0       -4.954130    5.717983    2.653534
     80          1           0       -7.645895    7.226854    1.048484
     81          1           0       -9.513114    5.765404   -1.047683
     82          1           0       -9.333636    7.680084   -0.521014
     83          1           0      -12.125204    3.611964   -0.507786
     84          1           0      -12.030375    3.571221   -2.053612
     85          1           0      -13.134168    2.741034   -1.299896
     86          1           0      -12.727113   -1.070423   -1.295033
     87          1           0      -13.422646    0.486900   -1.480977
     88          1           0      -12.132515    0.396764   -3.961697
     89          1           0      -11.785421   -1.218093   -3.315637
     90          1           0      -13.599909   -0.569430   -3.444796
     91          1           0       -9.880930   -4.676018   -0.168279
     92          1           0       -9.485185   -4.408836   -2.029473
     93          1           0       -8.477836   -5.490696   -0.979582
     94          1           0       -3.889522   -3.465819   -0.417229
     95          1           0       -1.985463   -6.193971    2.372888
     96          1           0       -2.106857   -4.475259    3.235104
     97          1           0       -3.503980   -5.889191    3.348010
     98          1           0        2.634738   -2.388627   -1.815706
     99          1           0        2.388784   -0.813048   -2.149885
    100          1           0        4.116680   -1.582185    0.453021
    101          1           0        5.514966    1.395385   -2.472050
    102          1           0        5.277870   -0.295584   -3.250315
    103          1           0        3.652785    0.977703   -2.513295
    104          1           0        6.377957    1.004017   -0.211785
    105          1           0        6.170117   -0.324363    0.871784
    106          1           0        7.225044   -1.896543   -1.131172
    107          1           0        7.464184   -0.204985   -1.941755
    108          1           0        8.656841    0.447997    0.442715
    109          1           0        8.329075   -1.535034    0.890930
    110          1           0        9.987865   -0.299104   -1.525292
    111          1           0        9.285575   -2.390772   -1.731747
    112          1           0       10.968395   -2.900760   -1.900466
    113          1           0       10.164701   -3.247462   -0.434250
    114          1           0       11.112997    0.514882    0.485901
    115          1           0       11.362905   -1.017339    1.224469
    116          1           0       12.748400   -1.595471   -0.819139
    117          1           0       12.556887   -0.193306   -1.560666
    118          1           0       13.812329    1.047426    0.278833
    119          1           0       13.911370   -0.380717    1.375094
    120          1           0       15.122416    0.527137   -1.366958
    121          1           0       15.002997   -2.085506   -1.607709
    122          1           0       16.538966   -1.547618   -1.395393
    123          1           0       15.729880   -2.108042    0.103996
    124          1           0       15.731334    1.673503    0.500584
    125          1           0       16.208131    0.072109    1.532076
    126          1           0       17.925263   -0.192404   -0.427018
    127          1           0       17.567676    1.291483   -1.103632
    128          1           0       18.123802    2.698019    0.692818
    129          1           0       18.523731    1.237239    1.748860
    130          1           0       20.494240    0.882839   -0.069303
    131          1           0       19.835616    3.354702   -1.374146
    132          1           0       21.407052    2.436333   -1.522035
    133          1           0       19.879935    1.751759   -1.899122
    134          1           0       20.842060    2.268750    2.297558
    135          1           0       21.890538    2.836706    0.929873
    136          1           0       20.214996    3.669556    1.507414
    137          1           0       -6.994236    1.708380    0.281592
    138          1           0       -7.343735   -0.215427   -0.105380
 ---------------------------------------------------------------------

 SCF Done:  E(RB3LYP) =  -2733.04840776     A.U. after   17 cycles

 Excitation energies and oscillator strengths:

 Excited State   1:      Singlet-A      2.0809 eV  595.81 nm  f=0.1787  <S**2>=0.000
     235 -> 238        0.29316
     236 -> 237        0.63172
 This state for optimization and/or second-order correction.
 Total Energy, E(TD-HF/TD-KS) =  -2732.97193503
 Copying the excited state density for this state as the 1-particle RhoCI density.

 The electronic state is 1-A.
 Alpha  occ. eigenvalues --  -19.18213 -19.16508 -19.12523 -19.11875 -19.11564
 Alpha  occ. eigenvalues --  -14.37013 -14.36743 -14.33087 -14.28782 -10.31384
 Alpha  occ. eigenvalues --  -10.31109 -10.28260 -10.25490 -10.25228 -10.24243
 Alpha  occ. eigenvalues --  -10.24218 -10.23273 -10.23058 -10.22712 -10.22546
 Alpha  occ. eigenvalues --  -10.22507 -10.22147 -10.22040 -10.21796 -10.21714
 Alpha  occ. eigenvalues --  -10.21410 -10.21329 -10.21285 -10.21030 -10.20987
 Alpha  occ. eigenvalues --  -10.20792 -10.20676 -10.20556 -10.20499 -10.20245
 Alpha  occ. eigenvalues --  -10.20197 -10.20117 -10.20070 -10.19886 -10.19803
 Alpha  occ. eigenvalues --  -10.19719 -10.19648 -10.19630 -10.19579 -10.19490
 Alpha  occ. eigenvalues --  -10.19352 -10.19197 -10.18930 -10.18926 -10.18786
 Alpha  occ. eigenvalues --  -10.18523 -10.18393 -10.18389 -10.18364 -10.18292
 Alpha  occ. eigenvalues --  -10.18087 -10.17833 -10.17764 -10.17639 -10.17583
 Alpha  occ. eigenvalues --  -10.17495 -10.17163 -10.17019 -10.15257  -1.09829
 Alpha  occ. eigenvalues --   -1.08781  -1.01813  -0.99495  -0.99174  -0.99015
 Alpha  occ. eigenvalues --   -0.96721  -0.95650  -0.93152  -0.85018  -0.82656
 Alpha  occ. eigenvalues --   -0.81850  -0.81599  -0.81317  -0.81117  -0.80357
 Alpha  occ. eigenvalues --   -0.80231  -0.80029  -0.79591  -0.78690  -0.78361
 Alpha  occ. eigenvalues --   -0.77136  -0.76572  -0.76065  -0.74824  -0.74680
 Alpha  occ. eigenvalues --   -0.74367  -0.73217  -0.72500  -0.71484  -0.70628
 Alpha  occ. eigenvalues --   -0.70313  -0.69128  -0.68724  -0.68631  -0.67802
 Alpha  occ. eigenvalues --   -0.67488  -0.66719  -0.66552  -0.66198  -0.65498
 Alpha  occ. eigenvalues --   -0.65225  -0.63718  -0.62259  -0.61617  -0.61293
 Alpha  occ. eigenvalues --   -0.61200  -0.59268  -0.58602  -0.58302  -0.57686
 Alpha  occ. eigenvalues --   -0.57151  -0.56884  -0.56287  -0.56200  -0.55378
 Alpha  occ. eigenvalues --   -0.55106  -0.54662  -0.54467  -0.53811  -0.53238
 Alpha  occ. eigenvalues --   -0.52861  -0.52183  -0.51847  -0.51401  -0.50799
 Alpha  occ. eigenvalues --   -0.49773  -0.49647  -0.49008  -0.48442  -0.48055
 Alpha  occ. eigenvalues --   -0.48029  -0.47822  -0.47385  -0.46973  -0.46772
 Alpha  occ. eigenvalues --   -0.46464  -0.46282  -0.46078  -0.45914  -0.45780
 Alpha  occ. eigenvalues --   -0.45554  -0.45275  -0.45079  -0.44967  -0.44804
 Alpha  occ. eigenvalues --   -0.44317  -0.44089  -0.43946  -0.43801  -0.43568
 Alpha  occ. eigenvalues --   -0.43378  -0.43188  -0.43064  -0.42800  -0.42459
 Alpha  occ. eigenvalues --   -0.42299  -0.42242  -0.41952  -0.41769  -0.41671
 Alpha  occ. eigenvalues --   -0.41617  -0.41178  -0.41085  -0.40936  -0.40773
 Alpha  occ. eigenvalues --   -0.40507  -0.40358  -0.40208  -0.39730  -0.39235
 Alpha  occ. eigenvalues --   -0.39184  -0.39122  -0.38777  -0.38535  -0.38483
 Alpha  occ. eigenvalues --   -0.38145  -0.38044  -0.37911  -0.37785  -0.37734
 Alpha  occ. eigenvalues --   -0.37393  -0.37087  -0.36779  -0.36730  -0.36548
 Alpha  occ. eigenvalues --   -0.36448  -0.36316  -0.36031  -0.35871  -0.35780
 Alpha  occ. eigenvalues --   -0.35682  -0.35332  -0.35185  -0.35098  -0.34909
 Alpha  occ. eigenvalues --   -0.34800  -0.34469  -0.34260  -0.34062  -0.34002
 Alpha  occ. eigenvalues --   -0.33770  -0.33656  -0.33117  -0.32801  -0.32557
 Alpha  occ. eigenvalues --   -0.32487  -0.31965  -0.31697  -0.31683  -0.31445
 Alpha  occ. eigenvalues --   -0.31194  -0.30524  -0.30447  -0.30342  -0.30260
 Alpha  occ. eigenvalues --   -0.29534  -0.29323  -0.29095  -0.28171  -0.27774
 Alpha  occ. eigenvalues --   -0.27653  -0.27302  -0.27133  -0.26431  -0.25076
 Alpha  occ. eigenvalues --   -0.24684  -0.24349  -0.23478  -0.21753  -0.20060
 Alpha  occ. eigenvalues --   -0.19225
 Alpha virt. eigenvalues --   -0.10498  -0.07757  -0.04652  -0.02067  -0.00349
 Alpha virt. eigenvalues --   -0.00231   0.00329   0.00632   0.01795   0.02912
 Alpha virt. eigenvalues --    0.03309   0.03587   0.04027   0.04295   0.04348

 Mulliken charges:
               1
     1  C   -0.027782
     2  C   -0.099980
     3  C   -0.131880
     4  C   -0.090885
     5  N   -0.188613
     6  C   -0.052846
     7  C   -0.131073
     8  C    0.156310
     9  C   -0.060832
    10  C    0.107052
    11  C    0.191627
    12  C    0.020537
    13  C    0.146540
    14  O   -0.265701
    15  O   -0.296485
    16  N   -0.113248
    17  C    0.093823
    18  C   -0.102235
    19  C    0.004104
    20  C    0.112802
    21  C    0.058347
    22  C   -0.077351
    23  C   -0.035863
    24  N   -0.241799
    25  C    0.097136
    26  C   -0.168456
    27  C   -0.040037
    28  C    0.081562
    29  C    0.322761
    30  C    0.048674
    31  C   -0.068428
    32  N   -0.025000
    33  C    0.139739
    34  C   -0.165060
    35  C    0.019712
    36  C    0.053556
    37  C    0.073663
    38  C    0.037937
    39  O   -0.185040
    40  C    0.005783
    41  C    0.230094
    42  O   -0.232908
    43  O   -0.329808
    44  C    0.157221
    45  C    0.243397
    46  C   -0.081888
    47  C   -0.156774
    48  C   -0.041792
    49  C    0.023137
    50  C   -0.023401
    51  C   -0.055538
    52  C    0.024282
    53  C    0.011903
    54  C    0.067059
    55  C    0.095874
    56  C    0.052115
    57  C   -0.064678
    58  C    0.030928
    59  C    0.000326
    60  C    0.031833
    61  C    0.043284
    62  C   -0.142423
    63  C    0.036311
    64  C    0.047019
    65  H   -0.003947
    66  H   -0.017738
    67  H   -0.046905
    68  H    0.034379
    69  H   -0.068021
    70  H    0.042138
    71  H   -0.008069
    72  H    0.033558
    73  H   -0.007703
    74  H   -0.051671
    75  H    0.053245
    76  H    0.013637
    77  H    0.037359
    78  H    0.007184
    79  H    0.029843
    80  H    0.039657
    81  H    0.048874
    82  H    0.020806
    83  H   -0.048902
    84  H   -0.041327
    85  H   -0.046462
    86  H    0.002862
    87  H   -0.018841
    88  H    0.021369
    89  H    0.011663
    90  H    0.021496
    91  H    0.043311
    92  H    0.042276
    93  H    0.050047
    94  H    0.054999
    95  H    0.039344
    96  H    0.045342
    97  H    0.057658
    98  H    0.039536
    99  H    0.007968
   100  H    0.026129
   101  H    0.032795
   102  H    0.065109
   103  H    0.064344
   104  H   -0.003679
   105  H    0.012213
   106  H    0.032621
   107  H   -0.007014
   108  H    0.020309
   109  H    0.032915
   110  H   -0.040576
   111  H   -0.013986
   112  H    0.025568
   113  H    0.016336
   114  H   -0.062921
   115  H   -0.005303
   116  H   -0.017676
   117  H   -0.039797
   118  H   -0.031974
   119  H    0.013413
   120  H   -0.038988
   121  H    0.001646
   122  H   -0.011013
   123  H    0.009306
   124  H   -0.009446
   125  H    0.023112
   126  H   -0.007983
   127  H   -0.026281
   128  H   -0.009314
   129  H    0.005622
   130  H   -0.001509
   131  H   -0.023517
   132  H    0.012405
   133  H   -0.001179
   134  H    0.003685
   135  H    0.027036
   136  H    0.008969
   137  H    0.146828
   138  H    0.164191
 Sum of Mulliken charges =   0.00000

 Dipole moment (field-independent basis, Debye):
    X=              2.5465    Y=              4.8130    Z=             -0.3400  Tot=              5.4558
 Quadrupole moment (field-independent basis, Debye-Ang):
   XX=           -376.1085   YY=           -381.9723   ZZ=           -397.8260
   XY=            -21.4658   XZ=             -2.2809   YZ=              5.7138

 Normal termination of Gaussian 09 at Sat Aug  3 14:34:25 2019.
