 Gaussian 09, Revision D.01,
 Gaussian 09:  ES64L-G09RevD.01 24-Apr-2013

 --------------------------
 # td=(NStates=1) B3LYP/SVP
 --------------------------

 --
 TD
 --
 Symbolic Z-matrix:
 Charge =  0 Multiplicity = 1

                         Standard orientation:
 ---------------------------------------------------------------------
 Center     Atomic      Atomic             Coordinates (Angstroms)
 Number     Number       Type             X           Y           Z
 ---------------------------------------------------------------------
      1          6           0       -5.116557   -1.930497    0.439457
      2          6           0       -4.796636    2.745664    1.475261
      3          6           0       -9.338898    3.356717   -0.449328
      4          6           0       -9.708250   -1.474410   -1.092565
      5          7           0       -5.235158    0.451284    0.826549
      6          6           0       -4.515221   -0.723833    0.806813
      7          6           0       -3.057209   -0.509075    1.249782
      8          6           0       -3.090856    0.858491    1.859717
      9          6           0       -4.513730    1.374610    1.349166
     10          6           0       -2.926754    0.988387    3.399559
     11          6           0       -1.989572   -0.686638    0.060908
     12          6           0       -0.548447   -0.749896    0.617580
     13          6           0        0.376966   -1.084398   -0.457783
     14          8           0        0.106011   -1.606696   -1.442926
     15          8           0        1.686417   -0.784926   -0.111596
     16          7           0       -7.056839    2.743026    0.530837
     17          6           0       -5.936673    3.356485    1.046660
     18          6           0       -6.352807    4.814870    1.132514
     19          6           0       -7.628341    4.946541    0.593253
     20          6           0       -8.027999    3.613952    0.153066
     21          6           0       -5.490515    5.866897    1.815077
     22          6           0       -8.312599    6.197438    0.363680
     23          6           0       -9.135209    6.676473   -0.530354
     24          7           0       -9.189303    0.830300   -0.634288
     25          6           0       -9.899531    2.029925   -0.720083
     26          6           0      -11.291291    1.754469   -1.219222
     27          6           0      -11.313887    0.426566   -1.273634
     28          6           0      -10.070847   -0.088422   -0.923357
     29          6           0      -12.255919    2.838285   -1.505294
     30          6           0      -12.560609   -0.350795   -1.718244
     31          6           0      -12.422642   -0.634739   -3.203036
     32          7           0       -7.345847   -1.237911   -0.318730
     33          6           0       -8.476237   -1.975587   -0.708399
     34          6           0       -8.134663   -3.387662   -0.616181
     35          6           0       -6.790974   -3.369122   -0.310992
     36          6           0       -6.379705   -2.065974   -0.030428
     37          6           0       -8.912261   -4.600085   -1.016768
     38          6           0       -5.706473   -4.340095    0.141232
     39          8           0       -5.533308   -5.516968   -0.044902
     40          6           0       -4.493728   -3.410922    0.505569
     41          6           0       -3.981986   -3.725970    1.892508
     42          8           0       -4.289542   -3.267755    2.998965
     43          8           0       -3.103172   -4.799129    1.739868
     44          6           0       -2.575168   -5.375800    2.923231
     45          6           0        2.655760   -1.015428   -1.205731
     46          6           0        4.064919   -0.708362   -0.542422
     47          6           0        5.017208    0.128667   -0.934385
     48          6           0        4.748543    1.072742   -2.128038
     49          6           0        6.241488    0.164726   -0.168671
     50          6           0        7.485549   -0.556440   -0.789987
     51          6           0        8.767055   -0.265116   -0.069864
     52          6           0       10.098556   -0.570487   -0.911631
     53          6           0        9.920897   -2.133332   -1.295810
     54          6           0       11.234676   -0.498239    0.008271
     55          6           0       12.622115   -0.394965   -0.793658
     56          6           0       13.801094   -0.113833    0.175829
     57          6           0       15.199239   -0.114174   -0.587782
     58          6           0       15.660027   -1.613713   -0.973989
     59          6           0       16.334714    0.544754    0.396290
     60          6           0       17.726614    0.776037   -0.179205
     61          6           0       18.538779    1.517894    0.670765
     62          6           0       20.049824    1.648901    0.097446
     63          6           0       20.021872    2.451155   -1.131647
     64          6           0       21.024273    2.216696    1.108653
     65          1           0       -3.887745    3.461041    1.657881
     66          1           0      -10.000464    4.251948   -0.596937
     67          1           0      -10.432526   -2.268965   -1.458794
     68          1           0       -2.858851   -1.236194    2.120382
     69          1           0       -2.248593    1.598323    1.533283
     70          1           0       -2.063333    0.623954    3.741971
     71          1           0       -3.078939    1.992682    3.824962
     72          1           0       -3.563033    0.299422    3.869041
     73          1           0       -2.250208   -1.511625   -0.641201
     74          1           0       -2.135443    0.274207   -0.455994
     75          1           0       -0.068519    0.187714    1.152595
     76          1           0       -0.641617   -1.558084    1.361504
     77          1           0       -4.558989    6.111784    1.483889
     78          1           0       -6.079999    6.861431    1.933097
     79          1           0       -5.508607    5.649462    2.833873
     80          1           0       -8.199087    7.116652    1.153386
     81          1           0       -9.489411    6.090787   -1.392293
     82          1           0       -9.467098    7.807576   -0.623940
     83          1           0      -12.313425    3.502415   -0.703626
     84          1           0      -11.806448    3.600840   -2.237900
     85          1           0      -13.245307    2.445444   -1.826279
     86          1           0      -12.538611   -1.337222   -1.243717
     87          1           0      -13.407095    0.164899   -1.322477
     88          1           0      -12.337000    0.272608   -3.811942
     89          1           0      -11.376408   -1.124052   -3.319373
     90          1           0      -13.231861   -0.983750   -3.722226
     91          1           0       -9.765116   -4.858163   -0.384385
     92          1           0       -9.635207   -4.177581   -1.948098
     93          1           0       -8.477781   -5.641835   -1.072265
     94          1           0       -3.611920   -3.774567   -0.222083
     95          1           0       -1.855559   -6.164728    2.860697
     96          1           0       -2.032750   -4.552514    3.304304
     97          1           0       -3.456550   -5.576450    3.622181
     98          1           0        2.625252   -2.133348   -1.519385
     99          1           0        2.679173   -0.613155   -2.105130
    100          1           0        4.311703   -1.245415    0.268226
    101          1           0        4.933029    2.342122   -1.740686
    102          1           0        5.494967    0.780651   -3.078313
    103          1           0        3.652733    1.058654   -2.523626
    104          1           0        6.296422    1.300450   -0.248750
    105          1           0        6.493763   -0.155052    0.793987
    106          1           0        7.225638   -1.531091   -0.737843
    107          1           0        7.503472   -0.255020   -1.784639
    108          1           0        8.807066    0.825768    0.404812
    109          1           0        8.519807   -1.119700    0.921419
    110          1           0       10.247532   -0.030458   -1.765154
    111          1           0        9.168769   -2.228392   -2.050174
    112          1           0       10.888208   -2.720812   -1.533158
    113          1           0        9.482076   -2.662842   -0.345469
    114          1           0       11.287951    0.479787    0.524742
    115          1           0       11.185093   -1.182263    0.776085
    116          1           0       12.763541   -1.449919   -1.283610
    117          1           0       12.705115    0.318101   -1.641468
    118          1           0       13.678285    0.910214    0.530592
    119          1           0       13.886866   -0.953201    1.070899
    120          1           0       15.072830    0.415103   -1.307811
    121          1           0       15.061526   -2.345737   -1.720645
    122          1           0       16.698751   -1.558090   -1.420132
    123          1           0       15.687097   -2.619975   -0.196471
    124          1           0       15.985228    1.520582    0.828452
    125          1           0       16.575852   -0.182704    1.305647
    126          1           0       18.014199   -0.272149   -0.309292
    127          1           0       17.626785    1.114464   -1.137193
    128          1           0       18.206705    2.612600    0.859559
    129          1           0       18.666871    1.404753    1.957983
    130          1           0       20.411839    0.537205   -0.092866
    131          1           0       19.994981    3.699041   -0.775069
    132          1           0       21.054825    2.397523   -1.507707
    133          1           0       19.448548    2.104006   -2.028961
    134          1           0       20.996496    1.708436    2.178498
    135          1           0       22.054336    2.143280    0.640523
    136          1           0       20.795904    3.406359    1.271415
    137          1           0       -7.128997    1.766804    0.478328
    138          1           0       -7.605785   -0.233115   -0.135771
 ---------------------------------------------------------------------

 SCF Done:  E(RB3LYP) =  -2732.97716690     A.U. after   17 cycles

 Excitation energies and oscillator strengths:

 Excited State   1:      Singlet-A      2.0735 eV  597.94 nm  f=0.1854  <S**2>=0.000
     235 -> 237       -0.15525
     235 -> 238       -0.26683
     236 -> 237        0.61373
     236 -> 238       -0.16214
 This state for optimization and/or second-order correction.
 Total Energy, E(TD-HF/TD-KS) =  -2732.90096588
 Copying the excited state density for this state as the 1-particle RhoCI density.

 The electronic state is 1-A.
 Alpha  occ. eigenvalues --  -19.17114 -19.16987 -19.13134 -19.12982 -19.12829
 Alpha  occ. eigenvalues --  -14.37368 -14.36958 -14.32629 -14.30013 -10.32205
 Alpha  occ. eigenvalues --  -10.30637 -10.28606 -10.24550 -10.24385 -10.24217
 Alpha  occ. eigenvalues --  -10.23691 -10.23547 -10.23266 -10.23155 -10.22938
 Alpha  occ. eigenvalues --  -10.22883 -10.22738 -10.21961 -10.21689 -10.21465
 Alpha  occ. eigenvalues --  -10.21440 -10.21381 -10.21219 -10.21121 -10.20999
 Alpha  occ. eigenvalues --  -10.20947 -10.20819 -10.20763 -10.20719 -10.20639
 Alpha  occ. eigenvalues --  -10.20621 -10.20549 -10.20520 -10.19887 -10.19869
 Alpha  occ. eigenvalues --  -10.19857 -10.19683 -10.19645 -10.19379 -10.19373
 Alpha  occ. eigenvalues --  -10.19199 -10.19198 -10.19185 -10.19142 -10.19089
 Alpha  occ. eigenvalues --  -10.19072 -10.19012 -10.18961 -10.18803 -10.18621
 Alpha  occ. eigenvalues --  -10.18123 -10.18099 -10.17723 -10.17309 -10.17269
 Alpha  occ. eigenvalues --  -10.17239 -10.17027 -10.16936 -10.16641  -1.10390
 Alpha  occ. eigenvalues --   -1.07877  -1.03759  -1.01223  -0.99769  -0.99622
 Alpha  occ. eigenvalues --   -0.98631  -0.95740  -0.94614  -0.84642  -0.83072
 Alpha  occ. eigenvalues --   -0.82137  -0.82034  -0.81295  -0.81188  -0.81017
 Alpha  occ. eigenvalues --   -0.80124  -0.79854  -0.78954  -0.78602  -0.77781
 Alpha  occ. eigenvalues --   -0.76844  -0.76534  -0.75888  -0.75542  -0.74807
 Alpha  occ. eigenvalues --   -0.73427  -0.73029  -0.72309  -0.71445  -0.70974
 Alpha  occ. eigenvalues --   -0.70104  -0.69698  -0.68934  -0.68040  -0.66582
 Alpha  occ. eigenvalues --   -0.66302  -0.65978  -0.65473  -0.64912  -0.64841
 Alpha  occ. eigenvalues --   -0.64375  -0.63158  -0.62805  -0.62200  -0.62057
 Alpha  occ. eigenvalues --   -0.61544  -0.58909  -0.58525  -0.57902  -0.57298
 Alpha  occ. eigenvalues --   -0.57046  -0.56860  -0.56390  -0.56149  -0.55919
 Alpha  occ. eigenvalues --   -0.55838  -0.55019  -0.53988  -0.53817  -0.53078
 Alpha  occ. eigenvalues --   -0.52803  -0.52088  -0.51707  -0.51226  -0.49811
 Alpha  occ. eigenvalues --   -0.49603  -0.49409  -0.49048  -0.48621  -0.48333
 Alpha  occ. eigenvalues --   -0.47682  -0.47514  -0.47350  -0.47216  -0.46897
 Alpha  occ. eigenvalues --   -0.46605  -0.46541  -0.46442  -0.46299  -0.45959
 Alpha  occ. eigenvalues --   -0.45757  -0.45699  -0.45246  -0.45051  -0.44960
 Alpha  occ. eigenvalues --   -0.44888  -0.44281  -0.44099  -0.43961  -0.43646
 Alpha  occ. eigenvalues --   -0.43352  -0.43131  -0.43113  -0.42794  -0.42666
 Alpha  occ. eigenvalues --   -0.42395  -0.42152  -0.41978  -0.41881  -0.41849
 Alpha  occ. eigenvalues --   -0.41566  -0.41331  -0.41110  -0.40799  -0.40558
 Alpha  occ. eigenvalues --   -0.40170  -0.39829  -0.39715  -0.39362  -0.39276
 Alpha  occ. eigenvalues --   -0.39043  -0.38825  -0.38554  -0.38351  -0.38227
 Alpha  occ. eigenvalues --   -0.38128  -0.37969  -0.37785  -0.37713  -0.37611
 Alpha  occ. eigenvalues --   -0.37596  -0.37285  -0.37173  -0.36616  -0.36492
 Alpha  occ. eigenvalues --   -0.36195  -0.36106  -0.35894  -0.35627  -0.35532
 Alpha  occ. eigenvalues --   -0.35172  -0.35077  -0.34948  -0.34743  -0.34548
 Alpha  occ. eigenvalues --   -0.34358  -0.34301  -0.34092  -0.33821  -0.33669
 Alpha  occ. eigenvalues --   -0.33322  -0.33295  -0.33174  -0.32921  -0.32811
 Alpha  occ. eigenvalues --   -0.32030  -0.31929  -0.31706  -0.31481  -0.31150
 Alpha  occ. eigenvalues --   -0.30779  -0.30707  -0.30400  -0.30272  -0.29658
 Alpha  occ. eigenvalues --   -0.29102  -0.28820  -0.28499  -0.28459  -0.28083
 Alpha  occ. eigenvalues --   -0.27710  -0.27434  -0.27245  -0.26593  -0.26413
 Alpha  occ. eigenvalues --   -0.25317  -0.24487  -0.24327  -0.23141  -0.20486
 Alpha  occ. eigenvalues --   -0.18424
 Alpha virt. eigenvalues --   -0.09897  -0.07963  -0.04810  -0.01831  -0.00863
 Alpha virt. eigenvalues --    0.00184   0.00350   0.00617   0.02350   0.03297
 Alpha virt. eigenvalues --    0.03379   0.03597   0.03689   0.04200   0.04279

 Mulliken charges:
               1
     1  C    0.028049
     2  C   -0.099678
     3  C   -0.078725
     4  C   -0.113925
     5  N   -0.130998
     6  C   -0.114646
     7  C   -0.014351
     8  C   -0.127223
     9  C    0.000837
    10  C    0.137735
    11  C    0.050572
    12  C    0.023385
    13  C    0.153353
    14  O   -0.165049
    15  O   -0.348305
    16  N   -0.018791
    17  C    0.087826
    18  C   -0.140729
    19  C    0.071208
    20  C    0.072755
    21  C    0.155217
    22  C   -0.058036
    23  C   -0.122047
    24  N   -0.233770
    25  C    0.030259
    26  C   -0.122402
    27  C   -0.178661
    28  C    0.084291
    29  C    0.152592
    30  C    0.120541
    31  C    0.052258
    32  N    0.000499
    33  C    0.051798
    34  C   -0.091694
    35  C   -0.070185
    36  C    0.100288
    37  C    0.047736
    38  C    0.116246
    39  O   -0.153708
    40  C   -0.094533
    41  C    0.223636
    42  O   -0.241702
    43  O   -0.336616
    44  C    0.215782
    45  C    0.340757
    46  C   -0.060609
    47  C   -0.099837
    48  C   -0.081038
    49  C    0.076924
    50  C    0.120813
    51  C   -0.092950
    52  C    0.005197
    53  C   -0.024530
    54  C    0.108497
    55  C   -0.025926
    56  C   -0.005881
    57  C    0.118476
    58  C   -0.100864
    59  C   -0.060528
    60  C    0.166238
    61  C   -0.048195
    62  C   -0.117496
    63  C    0.007937
    64  C   -0.033117
    65  H    0.020600
    66  H   -0.006671
    67  H   -0.000522
    68  H    0.024881
    69  H    0.008542
    70  H   -0.031632
    71  H    0.013885
    72  H   -0.006969
    73  H    0.044715
    74  H    0.007311
    75  H    0.056186
    76  H    0.037181
    77  H    0.013814
    78  H   -0.000479
    79  H    0.002456
    80  H    0.032220
    81  H    0.015419
    82  H    0.045039
    83  H   -0.004351
    84  H    0.014994
    85  H    0.021636
    86  H   -0.014664
    87  H   -0.006285
    88  H   -0.013673
    89  H    0.022017
    90  H   -0.014403
    91  H    0.013196
    92  H    0.036559
    93  H    0.059249
    94  H    0.096301
    95  H    0.031514
    96  H   -0.005559
    97  H    0.038466
    98  H    0.019003
    99  H   -0.042007
   100  H   -0.059543
   101  H    0.044031
   102  H    0.055411
   103  H    0.049876
   104  H   -0.008202
   105  H   -0.021067
   106  H   -0.027669
   107  H   -0.035552
   108  H    0.025342
   109  H    0.015109
   110  H   -0.027985
   111  H    0.012937
   112  H    0.028735
   113  H    0.011682
   114  H   -0.022302
   115  H   -0.031189
   116  H    0.001033
   117  H    0.001435
   118  H   -0.003605
   119  H    0.023644
   120  H   -0.103631
   121  H    0.021858
   122  H    0.022595
   123  H    0.023567
   124  H   -0.004309
   125  H    0.013152
   126  H   -0.010507
   127  H   -0.036612
   128  H   -0.011523
   129  H    0.001975
   130  H    0.011458
   131  H    0.023828
   132  H   -0.007595
   133  H    0.030113
   134  H    0.034919
   135  H    0.020707
   136  H    0.016737
   137  H    0.113515
   138  H    0.164707
 Sum of Mulliken charges =   0.00000

 Dipole moment (field-independent basis, Debye):
    X=              1.5062    Y=              3.7626    Z=             -0.0625  Tot=              4.0533
 Quadrupole moment (field-independent basis, Debye-Ang):
   XX=           -351.4039   YY=           -382.2570   ZZ=           -395.8825
   XY=            -19.7953   XZ=             -3.9487   YZ=             -1.5907

 Normal termination of Gaussian 09 at Wed Jul 31 11:20:57 2019.
