 Gaussian 09, Revision D.01,
 Gaussian 09:  ES64L-G09RevD.01 24-Apr-2013

 --------------------------
 # td=(NStates=1) B3LYP/SVP
 --------------------------

 --
 TD
 --
 Symbolic Z-matrix:
 Charge =  0 Multiplicity = 1

                         Standard orientation:
 ---------------------------------------------------------------------
 Center     Atomic      Atomic             Coordinates (Angstroms)
 Number     Number       Type             X           Y           Z
 ---------------------------------------------------------------------
      1          6           0       -5.062847   -1.950807    0.267830
      2          6           0       -4.667956    2.725218    1.438421
      3          6           0       -9.234141    3.334132   -0.065174
      4          6           0       -9.978166   -1.492301   -0.922925
      5          7           0       -5.014267    0.466000    0.626341
      6          6           0       -4.396678   -0.833767    0.728149
      7          6           0       -3.010933   -0.580789    1.240826
      8          6           0       -2.973124    0.775705    1.860210
      9          6           0       -4.255209    1.312891    1.282457
     10          6           0       -2.938876    0.930220    3.391207
     11          6           0       -2.000160   -0.871645    0.017502
     12          6           0       -0.635344   -0.916113    0.561974
     13          6           0        0.423316   -1.121488   -0.499016
     14          8           0        0.165347   -1.707646   -1.542507
     15          8           0        1.686505   -0.786930   -0.028730
     16          7           0       -6.924507    2.727556    0.423080
     17          6           0       -5.854093    3.335294    0.992272
     18          6           0       -6.127246    4.783141    1.033988
     19          6           0       -7.451275    4.872672    0.573656
     20          6           0       -7.928665    3.546971    0.255725
     21          6           0       -5.124571    5.860139    1.542590
     22          6           0       -8.075431    6.160238    0.386791
     23          6           0       -8.992549    6.648341   -0.482752
     24          7           0       -9.259609    0.901696   -0.408720
     25          6           0       -9.801355    2.061561   -0.394910
     26          6           0      -11.217159    1.947782   -1.005799
     27          6           0      -11.434362    0.643031   -1.215560
     28          6           0      -10.132588   -0.086568   -0.846158
     29          6           0      -12.268522    3.045316   -1.189734
     30          6           0      -12.622478   -0.077167   -1.660191
     31          6           0      -12.678029   -0.346217   -3.119645
     32          7           0       -7.512533   -1.240572   -0.240930
     33          6           0       -8.613082   -2.017185   -0.683690
     34          6           0       -8.327536   -3.384032   -0.656179
     35          6           0       -6.877864   -3.383410   -0.164307
     36          6           0       -6.472040   -2.074136    0.032467
     37          6           0       -9.157347   -4.563226   -1.048897
     38          6           0       -5.762942   -4.350204    0.051370
     39          8           0       -5.698456   -5.512522   -0.160814
     40          6           0       -4.619826   -3.394506    0.367805
     41          6           0       -3.947772   -3.856002    1.723252
     42          8           0       -4.321725   -3.559978    2.869648
     43          8           0       -3.014503   -4.828112    1.346618
     44          6           0       -2.423262   -5.449513    2.594351
     45          6           0        2.780592   -0.995484   -1.031670
     46          6           0        4.005793   -0.580708   -0.494224
     47          6           0        4.909806    0.304402   -1.038172
     48          6           0        4.860416    1.014120   -2.434389
     49          6           0        6.216264    0.478144   -0.243846
     50          6           0        7.376958   -0.103464   -0.868410
     51          6           0        8.674695    0.061466   -0.065691
     52          6           0        9.914706   -0.584657   -0.730668
     53          6           0        9.926908   -2.108098   -0.857968
     54          6           0       11.285027   -0.085292   -0.048590
     55          6           0       12.591972   -0.578838   -0.734127
     56          6           0       13.748456   -0.016576    0.013680
     57          6           0       15.205908   -0.321818   -0.414080
     58          6           0       15.554133   -1.807953   -0.339086
     59          6           0       16.249686    0.563141    0.394859
     60          6           0       17.749299    0.609422   -0.174449
     61          6           0       18.614101    1.505306    0.511402
     62          6           0       20.090207    1.522705    0.051296
     63          6           0       20.250013    2.109092   -1.361374
     64          6           0       20.953669    2.257412    1.046440
     65          1           0       -3.942586    3.359119    1.748199
     66          1           0       -9.900562    4.135141   -0.153180
     67          1           0      -10.609849   -2.178757   -1.225907
     68          1           0       -2.772349   -1.309469    1.867505
     69          1           0       -2.273982    1.388958    1.565188
     70          1           0       -2.051204    0.463840    3.764172
     71          1           0       -3.017559    2.077571    3.516724
     72          1           0       -3.782562    0.310023    3.837462
     73          1           0       -2.247839   -1.818566   -0.510616
     74          1           0       -2.198665    0.048233   -0.739369
     75          1           0       -0.511571   -0.126297    1.333947
     76          1           0       -0.452999   -1.775483    1.198890
     77          1           0       -4.180254    5.763184    1.064969
     78          1           0       -5.636015    6.865128    1.387497
     79          1           0       -5.019655    5.888944    2.738564
     80          1           0       -7.834336    6.764774    1.352656
     81          1           0       -9.597157    6.051444   -1.108021
     82          1           0       -9.282747    7.644425   -0.378588
     83          1           0      -12.517923    3.537450   -0.349835
     84          1           0      -12.013391    3.897309   -1.889796
     85          1           0      -13.254044    2.506976   -1.559303
     86          1           0      -12.575883   -0.980514   -1.321366
     87          1           0      -13.384277    0.563174   -1.115567
     88          1           0      -12.977394    0.397039   -3.924330
     89          1           0      -11.703435   -0.764799   -3.486974
     90          1           0      -13.368238   -1.005278   -3.273965
     91          1           0       -9.886904   -4.984108   -0.200396
     92          1           0       -9.884717   -4.400753   -1.993383
     93          1           0       -8.353540   -5.483963   -1.440091
     94          1           0       -4.000888   -3.877690   -0.473235
     95          1           0       -1.698223   -6.349088    2.157707
     96          1           0       -1.884058   -4.650120    3.110142
     97          1           0       -3.182831   -5.935688    3.230637
     98          1           0        2.560440   -2.141717   -0.978382
     99          1           0        2.485407   -0.815750   -2.073398
    100          1           0        4.081033   -0.982493    0.606648
    101          1           0        4.861166    2.039195   -2.187131
    102          1           0        5.322342    0.562052   -3.377275
    103          1           0        3.746571    1.005663   -2.596607
    104          1           0        6.445478    1.507043   -0.485691
    105          1           0        5.930101    0.144349    0.780586
    106          1           0        7.146299   -1.126738   -0.932753
    107          1           0        7.421925    0.132838   -1.860963
    108          1           0        8.898757    0.967185    0.172804
    109          1           0        8.547249   -0.538922    0.889632
    110          1           0       10.058192   -0.116139   -1.689373
    111          1           0        9.054797   -2.533560   -1.277068
    112          1           0       10.933117   -2.568680   -1.393865
    113          1           0        9.542428   -2.259505    0.142139
    114          1           0       10.987235    0.894439    0.293224
    115          1           0       11.107151   -0.338347    0.998236
    116          1           0       12.479611   -1.731004   -0.668172
    117          1           0       12.643659    0.020278   -1.611199
    118          1           0       13.835574    1.121892   -0.090239
    119          1           0       13.796604   -0.432805    1.057689
    120          1           0       15.104146    0.022408   -1.404691
    121          1           0       14.897215   -2.541543   -0.981052
    122          1           0       16.477743   -2.029433   -0.752761
    123          1           0       15.280897   -2.199597    0.869071
    124          1           0       15.718280    1.651801    0.103217
    125          1           0       16.148410    0.530591    1.646081
    126          1           0       18.229652   -0.520401   -0.087469
    127          1           0       17.711877    0.724058   -1.265752
    128          1           0       18.247865    2.407542    0.527550
    129          1           0       18.759416    1.071532    1.567015
    130          1           0       20.372442    0.500879    0.123909
    131          1           0       19.846647    3.123048   -1.066104
    132          1           0       21.368367    1.954556   -1.611134
    133          1           0       19.487321    1.694755   -1.957051
    134          1           0       21.091681    1.891919    2.075577
    135          1           0       21.848649    2.436769    0.698167
    136          1           0       20.491288    3.317482    1.086240
    137          1           0       -6.842584    1.782003    0.200657
    138          1           0       -7.598716   -0.326447   -0.305790
 ---------------------------------------------------------------------

 SCF Done:  E(RB3LYP) =  -2732.95531511     A.U. after   16 cycles

 Excitation energies and oscillator strengths:

 Excited State   1:      Singlet-A      2.1640 eV  572.93 nm  f=0.1869  <S**2>=0.000
     235 -> 237        0.10901
     235 -> 238       -0.25572
     236 -> 237        0.64482
 This state for optimization and/or second-order correction.
 Total Energy, E(TD-HF/TD-KS) =  -2732.87578815
 Copying the excited state density for this state as the 1-particle RhoCI density.

 The electronic state is 1-A.
 Alpha  occ. eigenvalues --  -19.18213 -19.17320 -19.13343 -19.12893 -19.11238
 Alpha  occ. eigenvalues --  -14.37046 -14.35818 -14.32418 -14.29994 -10.32281
 Alpha  occ. eigenvalues --  -10.31761 -10.26633 -10.25800 -10.24514 -10.24461
 Alpha  occ. eigenvalues --  -10.23854 -10.23450 -10.22984 -10.22940 -10.22639
 Alpha  occ. eigenvalues --  -10.22179 -10.22041 -10.22025 -10.21954 -10.21691
 Alpha  occ. eigenvalues --  -10.21590 -10.21432 -10.21343 -10.20984 -10.20782
 Alpha  occ. eigenvalues --  -10.20660 -10.20630 -10.20624 -10.20571 -10.20540
 Alpha  occ. eigenvalues --  -10.20213 -10.20196 -10.19868 -10.19447 -10.19407
 Alpha  occ. eigenvalues --  -10.19407 -10.19367 -10.19325 -10.19306 -10.19228
 Alpha  occ. eigenvalues --  -10.19100 -10.19065 -10.18714 -10.18383 -10.18339
 Alpha  occ. eigenvalues --  -10.18255 -10.18202 -10.18125 -10.18053 -10.17948
 Alpha  occ. eigenvalues --  -10.17862 -10.17861 -10.17638 -10.17541 -10.17523
 Alpha  occ. eigenvalues --  -10.17152 -10.17018 -10.16692 -10.16465  -1.07345
 Alpha  occ. eigenvalues --   -1.06593  -1.03526  -1.00906  -0.99938  -0.99190
 Alpha  occ. eigenvalues --   -0.97281  -0.94493  -0.93801  -0.84722  -0.83657
 Alpha  occ. eigenvalues --   -0.82612  -0.82377  -0.82137  -0.81534  -0.81489
 Alpha  occ. eigenvalues --   -0.80566  -0.80244  -0.79250  -0.78994  -0.78033
 Alpha  occ. eigenvalues --   -0.77230  -0.76027  -0.75669  -0.75270  -0.74877
 Alpha  occ. eigenvalues --   -0.73979  -0.73246  -0.72624  -0.72438  -0.70926
 Alpha  occ. eigenvalues --   -0.70111  -0.68965  -0.68856  -0.68198  -0.67995
 Alpha  occ. eigenvalues --   -0.67238  -0.67044  -0.66114  -0.65678  -0.65501
 Alpha  occ. eigenvalues --   -0.64651  -0.64210  -0.63216  -0.62676  -0.61606
 Alpha  occ. eigenvalues --   -0.61505  -0.60134  -0.59264  -0.58343  -0.57403
 Alpha  occ. eigenvalues --   -0.57270  -0.56656  -0.56121  -0.55925  -0.55830
 Alpha  occ. eigenvalues --   -0.55557  -0.54869  -0.54179  -0.53878  -0.53682
 Alpha  occ. eigenvalues --   -0.52693  -0.52100  -0.51437  -0.50994  -0.50194
 Alpha  occ. eigenvalues --   -0.50063  -0.49425  -0.49337  -0.49177  -0.48951
 Alpha  occ. eigenvalues --   -0.48135  -0.48082  -0.47720  -0.47568  -0.47376
 Alpha  occ. eigenvalues --   -0.47032  -0.46768  -0.46536  -0.46031  -0.45807
 Alpha  occ. eigenvalues --   -0.45780  -0.45479  -0.45291  -0.45174  -0.45021
 Alpha  occ. eigenvalues --   -0.44727  -0.44590  -0.44433  -0.44032  -0.43879
 Alpha  occ. eigenvalues --   -0.43715  -0.43633  -0.43265  -0.43080  -0.42929
 Alpha  occ. eigenvalues --   -0.42615  -0.42237  -0.42094  -0.42084  -0.41759
 Alpha  occ. eigenvalues --   -0.41643  -0.41559  -0.41201  -0.41099  -0.40783
 Alpha  occ. eigenvalues --   -0.40523  -0.40080  -0.39853  -0.39803  -0.39631
 Alpha  occ. eigenvalues --   -0.39516  -0.39205  -0.38858  -0.38635  -0.38485
 Alpha  occ. eigenvalues --   -0.38332  -0.38155  -0.38007  -0.37791  -0.37578
 Alpha  occ. eigenvalues --   -0.37427  -0.37339  -0.37264  -0.37191  -0.36733
 Alpha  occ. eigenvalues --   -0.36647  -0.36616  -0.36534  -0.36241  -0.36184
 Alpha  occ. eigenvalues --   -0.35967  -0.35444  -0.35412  -0.35294  -0.34991
 Alpha  occ. eigenvalues --   -0.34642  -0.34581  -0.34237  -0.33978  -0.33608
 Alpha  occ. eigenvalues --   -0.33423  -0.33237  -0.33031  -0.32793  -0.32262
 Alpha  occ. eigenvalues --   -0.32065  -0.31781  -0.31524  -0.31427  -0.31342
 Alpha  occ. eigenvalues --   -0.30846  -0.30623  -0.30186  -0.29803  -0.29581
 Alpha  occ. eigenvalues --   -0.29496  -0.28962  -0.28575  -0.28460  -0.27844
 Alpha  occ. eigenvalues --   -0.27756  -0.27438  -0.26202  -0.25199  -0.24767
 Alpha  occ. eigenvalues --   -0.24694  -0.24270  -0.24098  -0.23053  -0.19881
 Alpha  occ. eigenvalues --   -0.19239
 Alpha virt. eigenvalues --   -0.10200  -0.06939  -0.04176  -0.02140  -0.02042
 Alpha virt. eigenvalues --   -0.00852  -0.00296   0.00690   0.02441   0.03910
 Alpha virt. eigenvalues --    0.03938   0.04270   0.04439   0.04625   0.04799

 Mulliken charges:
               1
     1  C    0.043491
     2  C   -0.016758
     3  C   -0.098446
     4  C    0.031172
     5  N   -0.203244
     6  C   -0.039750
     7  C    0.117499
     8  C    0.061900
     9  C   -0.055104
    10  C    0.066165
    11  C   -0.000667
    12  C    0.073760
    13  C    0.206086
    14  O   -0.246891
    15  O   -0.363656
    16  N    0.064008
    17  C    0.054643
    18  C   -0.119793
    19  C   -0.015722
    20  C    0.161500
    21  C    0.071834
    22  C   -0.088346
    23  C    0.012417
    24  N   -0.171143
    25  C    0.010235
    26  C   -0.169164
    27  C   -0.122118
    28  C    0.096045
    29  C    0.094037
    30  C    0.194455
    31  C    0.058411
    32  N    0.020302
    33  C    0.016333
    34  C   -0.068387
    35  C   -0.110507
    36  C    0.112433
    37  C   -0.066609
    38  C    0.060033
    39  O   -0.141270
    40  C   -0.105354
    41  C    0.238783
    42  O   -0.248981
    43  O   -0.341992
    44  C    0.144452
    45  C    0.224550
    46  C   -0.050063
    47  C   -0.216652
    48  C    0.095118
    49  C    0.134078
    50  C    0.106093
    51  C    0.100167
    52  C   -0.095531
    53  C    0.055167
    54  C    0.001669
    55  C    0.181872
    56  C   -0.063081
    57  C   -0.010176
    58  C    0.003738
    59  C   -0.070395
    60  C    0.012065
    61  C    0.093304
    62  C   -0.111868
    63  C    0.056122
    64  C    0.108363
    65  H   -0.074573
    66  H   -0.061817
    67  H   -0.090909
    68  H   -0.090853
    69  H   -0.064120
    70  H    0.008721
    71  H    0.033951
    72  H    0.036645
    73  H    0.039094
    74  H    0.027583
    75  H    0.005919
    76  H    0.018672
    77  H    0.037093
    78  H    0.024205
    79  H    0.047571
    80  H    0.035763
    81  H    0.016103
    82  H    0.011300
    83  H   -0.011807
    84  H    0.015897
    85  H    0.022560
    86  H   -0.074182
    87  H    0.016751
    88  H    0.007073
    89  H    0.011919
    90  H   -0.044664
    91  H    0.059154
    92  H    0.041245
    93  H    0.077289
    94  H    0.071537
    95  H    0.060140
    96  H    0.039517
    97  H    0.056128
    98  H    0.015729
    99  H    0.026936
   100  H    0.020883
   101  H    0.006214
   102  H    0.077135
   103  H   -0.004436
   104  H   -0.032928
   105  H    0.005393
   106  H   -0.049946
   107  H   -0.042113
   108  H   -0.065796
   109  H   -0.005992
   110  H   -0.031184
   111  H   -0.019623
   112  H    0.057742
   113  H   -0.025531
   114  H   -0.048721
   115  H   -0.052474
   116  H    0.041016
   117  H   -0.014804
   118  H    0.002731
   119  H   -0.009170
   120  H   -0.036672
   121  H    0.006624
   122  H   -0.001963
   123  H    0.021720
   124  H    0.003304
   125  H    0.031805
   126  H    0.005134
   127  H   -0.006679
   128  H   -0.061784
   129  H    0.000803
   130  H   -0.032467
   131  H    0.000117
   132  H    0.043222
   133  H   -0.009258
   134  H    0.009894
   135  H   -0.052580
   136  H   -0.012025
   137  H    0.109121
   138  H    0.051089
 Sum of Mulliken charges =   0.00000

 Dipole moment (field-independent basis, Debye):
    X=              2.9387    Y=              5.7803    Z=              0.5741  Tot=              6.5098
 Quadrupole moment (field-independent basis, Debye-Ang):
   XX=           -357.3260   YY=           -386.8525   ZZ=           -393.8364
   XY=            -29.0827   XZ=              0.2320   YZ=              0.2446

 Normal termination of Gaussian 09 at Sat Aug  3 12:48:17 2019.
