 Gaussian 09, Revision D.01,
 Gaussian 09:  ES64L-G09RevD.01 24-Apr-2013

 --------------------------
 # td=(NStates=1) B3LYP/SVP
 --------------------------

 --
 TD
 --
 Symbolic Z-matrix:
 Charge =  0 Multiplicity = 1

                         Standard orientation:
 ---------------------------------------------------------------------
 Center     Atomic      Atomic             Coordinates (Angstroms)
 Number     Number       Type             X           Y           Z
 ---------------------------------------------------------------------
      1          6           0       -5.196841   -1.920967    0.420619
      2          6           0       -4.708394    2.666315    1.428088
      3          6           0       -9.265069    3.364272   -0.201750
      4          6           0       -9.838842   -1.496521   -0.845513
      5          7           0       -5.145988    0.428590    0.849276
      6          6           0       -4.504868   -0.761751    0.738692
      7          6           0       -3.085994   -0.613496    1.205356
      8          6           0       -3.024212    0.783145    1.797810
      9          6           0       -4.376644    1.399275    1.337091
     10          6           0       -2.973250    0.707936    3.292508
     11          6           0       -2.141827   -0.942140    0.011752
     12          6           0       -0.714732   -0.639159    0.476842
     13          6           0        0.342559   -0.966516   -0.653356
     14          8           0       -0.004057   -1.301844   -1.729023
     15          8           0        1.598434   -0.586115   -0.281002
     16          7           0       -6.970603    2.694190    0.451157
     17          6           0       -5.906197    3.229210    1.017300
     18          6           0       -6.155676    4.675731    1.057274
     19          6           0       -7.321724    4.974164    0.508155
     20          6           0       -8.011382    3.618565    0.201638
     21          6           0       -5.100605    5.671945    1.584796
     22          6           0       -8.081045    6.302231    0.439082
     23          6           0       -8.863475    6.665654   -0.595347
     24          7           0       -9.213241    0.894487   -0.432102
     25          6           0       -9.779154    2.099808   -0.537351
     26          6           0      -11.223926    1.919497   -0.908869
     27          6           0      -11.433847    0.601137   -1.103219
     28          6           0      -10.162966   -0.071604   -0.783914
     29          6           0      -12.193504    3.026478   -0.955601
     30          6           0      -12.698771   -0.184872   -1.497929
     31          6           0      -12.840296   -0.511008   -2.977587
     32          7           0       -7.561800   -1.244029   -0.231016
     33          6           0       -8.693858   -2.083987   -0.545746
     34          6           0       -8.264948   -3.440145   -0.605257
     35          6           0       -6.840181   -3.418986   -0.256842
     36          6           0       -6.503329   -2.116998   -0.009838
     37          6           0       -9.235168   -4.560202   -0.953584
     38          6           0       -5.721636   -4.300670   -0.016179
     39          8           0       -5.755663   -5.558997   -0.061363
     40          6           0       -4.549419   -3.439028    0.370611
     41          6           0       -3.846392   -3.873582    1.692478
     42          8           0       -4.085322   -3.307153    2.793384
     43          8           0       -3.036184   -4.804971    1.490806
     44          6           0       -2.375500   -5.485775    2.587972
     45          6           0        2.654619   -0.717400   -1.216154
     46          6           0        3.905354   -0.421777   -0.691436
     47          6           0        4.979514    0.232273   -1.149966
     48          6           0        4.855559    0.892206   -2.484765
     49          6           0        6.199722    0.321385   -0.388230
     50          6           0        7.479233   -0.249427   -1.093057
     51          6           0        8.775939    0.004371   -0.294799
     52          6           0        9.984622   -0.595767   -0.962963
     53          6           0        9.922660   -2.182283   -1.003496
     54          6           0       11.256998   -0.233694   -0.188637
     55          6           0       12.619173   -0.630773   -0.698729
     56          6           0       13.846829   -0.022837    0.203497
     57          6           0       15.285494   -0.335665   -0.325692
     58          6           0       15.529949   -1.904192   -0.265454
     59          6           0       16.350131    0.434654    0.522088
     60          6           0       17.742367    0.532955   -0.124237
     61          6           0       18.597638    1.534408    0.651698
     62          6           0       20.088412    1.617329    0.235600
     63          6           0       20.313555    2.241866   -1.066388
     64          6           0       21.072660    2.185742    1.238628
     65          1           0       -4.116746    3.403228    2.031374
     66          1           0       -9.802194    4.113337   -0.505089
     67          1           0      -10.706793   -2.076024   -1.021931
     68          1           0       -2.743938   -1.296029    1.936220
     69          1           0       -2.212858    1.196818    1.413217
     70          1           0       -2.045589    0.221784    3.639122
     71          1           0       -2.808183    1.833269    3.672150
     72          1           0       -3.975993    0.259963    3.705618
     73          1           0       -2.090519   -1.988054   -0.388747
     74          1           0       -2.195696   -0.355391   -0.980285
     75          1           0       -0.464155    0.220139    0.949282
     76          1           0       -0.421879   -1.215354    1.458541
     77          1           0       -4.196075    5.680282    0.846357
     78          1           0       -5.529896    6.687109    1.784959
     79          1           0       -4.523521    5.160358    2.572009
     80          1           0       -7.867932    7.106576    1.207117
     81          1           0       -9.310505    6.133045   -1.471051
     82          1           0       -9.463999    7.520827   -0.402152
     83          1           0      -12.083026    3.703213   -0.004334
     84          1           0      -11.998851    3.642439   -1.811037
     85          1           0      -13.228291    2.708431   -1.199973
     86          1           0      -12.850761   -1.020489   -0.853188
     87          1           0      -13.566364    0.323526   -1.043104
     88          1           0      -12.633299    0.426455   -3.554893
     89          1           0      -12.117169   -1.448539   -3.283265
     90          1           0      -13.751586   -0.968519   -3.296248
     91          1           0       -9.803465   -4.856114    0.121479
     92          1           0       -9.924145   -4.051884   -1.816936
     93          1           0       -8.476697   -5.245276   -1.314956
     94          1           0       -3.839583   -3.441506   -0.335548
     95          1           0       -1.652281   -6.123715    2.069689
     96          1           0       -2.128766   -4.864489    3.303643
     97          1           0       -3.179265   -5.901403    3.188652
     98          1           0        2.495067   -1.707944   -1.702234
     99          1           0        2.290836   -0.020229   -2.132474
    100          1           0        4.189669   -0.979916    0.279114
    101          1           0        5.263023    1.935623   -2.363529
    102          1           0        5.531030    0.329815   -3.169018
    103          1           0        3.798543    1.056122   -3.069532
    104          1           0        6.366408    1.326063   -0.267812
    105          1           0        6.092232    0.054445    0.640708
    106          1           0        7.328995   -1.502705   -1.065613
    107          1           0        7.395932    0.155872   -2.215976
    108          1           0        8.949790    1.182095   -0.451611
    109          1           0        8.746093   -0.316405    0.750830
    110          1           0       10.049302   -0.379395   -2.088663
    111          1           0        9.200936   -2.432918   -1.611837
    112          1           0       10.738121   -2.888806   -1.518204
    113          1           0        9.756884   -2.616803   -0.015126
    114          1           0       11.030970    0.922045   -0.168335
    115          1           0       11.132285   -0.533674    0.861524
    116          1           0       12.971785   -1.710493   -0.593401
    117          1           0       12.706463   -0.573023   -1.846869
    118          1           0       13.487474    1.087675    0.267705
    119          1           0       13.600245   -0.340860    1.233247
    120          1           0       15.364368   -0.242419   -1.345307
    121          1           0       14.753723   -2.313504   -0.842203
    122          1           0       16.700446   -2.163059   -0.423045
    123          1           0       15.370969   -2.107244    0.783440
    124          1           0       15.760416    1.544493    0.867250
    125          1           0       16.462464   -0.036466    1.696620
    126          1           0       18.289476   -0.400567   -0.295996
    127          1           0       17.616677    1.112579   -1.067233
    128          1           0       18.027700    2.557244    0.459627
    129          1           0       18.676677    1.411124    1.757032
    130          1           0       20.417549    0.561550    0.206050
    131          1           0       20.106994    3.267793   -0.888327
    132          1           0       21.576425    2.273738   -1.279730
    133          1           0       19.719134    1.846947   -2.135263
    134          1           0       20.794512    1.919742    2.278006
    135          1           0       22.070622    1.930014    0.707687
    136          1           0       20.916321    3.319439    1.110072
    137          1           0       -6.881628    1.757407    0.158698
    138          1           0       -7.667042   -0.201415    0.013273
 ---------------------------------------------------------------------

 SCF Done:  E(RB3LYP) =  -2733.05027042     A.U. after   16 cycles

 Excitation energies and oscillator strengths:

 Excited State   1:      Singlet-A      2.1221 eV  584.25 nm  f=0.1411  <S**2>=0.000
     235 -> 238       -0.34203
     236 -> 237        0.61660
 This state for optimization and/or second-order correction.
 Total Energy, E(TD-HF/TD-KS) =  -2732.97228488
 Copying the excited state density for this state as the 1-particle RhoCI density.

 The electronic state is 1-A.
 Alpha  occ. eigenvalues --  -19.19482 -19.17250 -19.13129 -19.10954 -19.10886
 Alpha  occ. eigenvalues --  -14.37132 -14.35166 -14.31039 -14.29661 -10.31575
 Alpha  occ. eigenvalues --  -10.31541 -10.26865 -10.24951 -10.24816 -10.24064
 Alpha  occ. eigenvalues --  -10.23733 -10.22486 -10.22327 -10.22323 -10.22134
 Alpha  occ. eigenvalues --  -10.21896 -10.21849 -10.21778 -10.21647 -10.21538
 Alpha  occ. eigenvalues --  -10.21492 -10.21204 -10.21049 -10.20734 -10.20525
 Alpha  occ. eigenvalues --  -10.20490 -10.20446 -10.20258 -10.20092 -10.20066
 Alpha  occ. eigenvalues --  -10.19999 -10.19966 -10.19944 -10.19858 -10.19852
 Alpha  occ. eigenvalues --  -10.19736 -10.19482 -10.19416 -10.19416 -10.19147
 Alpha  occ. eigenvalues --  -10.19118 -10.19027 -10.19000 -10.18933 -10.18907
 Alpha  occ. eigenvalues --  -10.18853 -10.18826 -10.18796 -10.18460 -10.18458
 Alpha  occ. eigenvalues --  -10.18428 -10.18423 -10.18341 -10.18335 -10.18287
 Alpha  occ. eigenvalues --  -10.18254 -10.17867 -10.17767 -10.17142  -1.12534
 Alpha  occ. eigenvalues --   -1.09788  -1.02416  -0.99326  -0.98931  -0.97999
 Alpha  occ. eigenvalues --   -0.95475  -0.94302  -0.92317  -0.84234  -0.84037
 Alpha  occ. eigenvalues --   -0.81974  -0.81898  -0.81683  -0.81481  -0.81064
 Alpha  occ. eigenvalues --   -0.79778  -0.79309  -0.79248  -0.78691  -0.77941
 Alpha  occ. eigenvalues --   -0.77746  -0.76504  -0.76161  -0.75486  -0.75267
 Alpha  occ. eigenvalues --   -0.74556  -0.73773  -0.72675  -0.71633  -0.70330
 Alpha  occ. eigenvalues --   -0.69835  -0.69266  -0.68697  -0.68384  -0.67114
 Alpha  occ. eigenvalues --   -0.66817  -0.66251  -0.65918  -0.65475  -0.65291
 Alpha  occ. eigenvalues --   -0.64030  -0.62589  -0.62153  -0.61732  -0.61675
 Alpha  occ. eigenvalues --   -0.61229  -0.59507  -0.58925  -0.58423  -0.57888
 Alpha  occ. eigenvalues --   -0.57189  -0.56628  -0.56156  -0.55948  -0.55806
 Alpha  occ. eigenvalues --   -0.55188  -0.54453  -0.54048  -0.53947  -0.53166
 Alpha  occ. eigenvalues --   -0.52912  -0.52328  -0.51501  -0.51345  -0.50425
 Alpha  occ. eigenvalues --   -0.49984  -0.49714  -0.49487  -0.49136  -0.48534
 Alpha  occ. eigenvalues --   -0.48014  -0.47648  -0.47494  -0.47388  -0.47152
 Alpha  occ. eigenvalues --   -0.46774  -0.46269  -0.46258  -0.45881  -0.45756
 Alpha  occ. eigenvalues --   -0.45461  -0.45262  -0.45206  -0.44625  -0.44506
 Alpha  occ. eigenvalues --   -0.44193  -0.44151  -0.43972  -0.43926  -0.43743
 Alpha  occ. eigenvalues --   -0.43377  -0.43200  -0.43029  -0.42947  -0.42760
 Alpha  occ. eigenvalues --   -0.42670  -0.42487  -0.41962  -0.41784  -0.41278
 Alpha  occ. eigenvalues --   -0.41073  -0.40835  -0.40581  -0.40461  -0.40162
 Alpha  occ. eigenvalues --   -0.39927  -0.39664  -0.39484  -0.39353  -0.39325
 Alpha  occ. eigenvalues --   -0.38926  -0.38765  -0.38560  -0.38417  -0.38033
 Alpha  occ. eigenvalues --   -0.38001  -0.37878  -0.37749  -0.37538  -0.37066
 Alpha  occ. eigenvalues --   -0.36907  -0.36853  -0.36709  -0.36581  -0.36337
 Alpha  occ. eigenvalues --   -0.36170  -0.36044  -0.35900  -0.35677  -0.35565
 Alpha  occ. eigenvalues --   -0.35432  -0.35251  -0.35031  -0.34973  -0.34804
 Alpha  occ. eigenvalues --   -0.34591  -0.34534  -0.33983  -0.33963  -0.33743
 Alpha  occ. eigenvalues --   -0.33618  -0.33403  -0.33143  -0.33071  -0.32558
 Alpha  occ. eigenvalues --   -0.32215  -0.32129  -0.31767  -0.31581  -0.31469
 Alpha  occ. eigenvalues --   -0.30742  -0.30621  -0.30239  -0.30001  -0.29783
 Alpha  occ. eigenvalues --   -0.29710  -0.29019  -0.28563  -0.28320  -0.27565
 Alpha  occ. eigenvalues --   -0.26659  -0.26585  -0.25810  -0.25555  -0.25279
 Alpha  occ. eigenvalues --   -0.24729  -0.24544  -0.24232  -0.22549  -0.19815
 Alpha  occ. eigenvalues --   -0.18639
 Alpha virt. eigenvalues --   -0.09573  -0.07740  -0.03958  -0.02004  -0.00267
 Alpha virt. eigenvalues --    0.00546   0.00888   0.01360   0.03033   0.03355
 Alpha virt. eigenvalues --    0.03468   0.03567   0.03931   0.04388   0.04698

 Mulliken charges:
               1
     1  C    0.004840
     2  C   -0.071287
     3  C    0.010234
     4  C   -0.077236
     5  N   -0.182432
     6  C   -0.056460
     7  C   -0.026551
     8  C    0.102928
     9  C   -0.002794
    10  C    0.022793
    11  C    0.045213
    12  C   -0.011036
    13  C    0.189101
    14  O   -0.199188
    15  O   -0.316414
    16  N   -0.004271
    17  C    0.056972
    18  C   -0.135082
    19  C    0.035040
    20  C    0.114694
    21  C    0.019561
    22  C   -0.056321
    23  C   -0.030017
    24  N   -0.240600
    25  C    0.052598
    26  C   -0.175244
    27  C   -0.069042
    28  C    0.000864
    29  C    0.117880
    30  C    0.079748
    31  C    0.010557
    32  N   -0.147190
    33  C    0.185690
    34  C   -0.146263
    35  C   -0.003222
    36  C    0.142467
    37  C    0.025283
    38  C    0.047143
    39  O   -0.228318
    40  C    0.052645
    41  C    0.160944
    42  O   -0.295585
    43  O   -0.223340
    44  C    0.285436
    45  C    0.247429
    46  C   -0.085895
    47  C   -0.143068
    48  C    0.003507
    49  C    0.200938
    50  C   -0.109055
    51  C    0.038404
    52  C   -0.097624
    53  C    0.039744
    54  C    0.058021
    55  C   -0.007787
    56  C   -0.027360
    57  C    0.019285
    58  C    0.003639
    59  C   -0.087993
    60  C    0.079069
    61  C   -0.013687
    62  C   -0.077109
    63  C   -0.046855
    64  C    0.013839
    65  H   -0.027882
    66  H   -0.123411
    67  H   -0.041078
    68  H   -0.011294
    69  H   -0.072220
    70  H    0.014077
    71  H    0.012244
    72  H    0.060946
    73  H    0.027164
    74  H    0.024500
    75  H   -0.019126
    76  H    0.005712
    77  H    0.047834
    78  H    0.036972
    79  H    0.046065
    80  H    0.029099
    81  H    0.045581
    82  H    0.012617
    83  H    0.038126
    84  H    0.000671
    85  H    0.004002
    86  H   -0.020005
    87  H   -0.016203
    88  H    0.029040
    89  H    0.015680
    90  H    0.004056
    91  H    0.081370
    92  H    0.058345
    93  H    0.053353
    94  H    0.000492
    95  H    0.062560
    96  H   -0.023209
    97  H    0.016164
    98  H    0.023561
    99  H    0.010185
   100  H   -0.010194
   101  H    0.014886
   102  H    0.036823
   103  H    0.049003
   104  H   -0.038572
   105  H   -0.025404
   106  H    0.027385
   107  H    0.031936
   108  H    0.019230
   109  H    0.010481
   110  H    0.001423
   111  H   -0.040430
   112  H    0.013862
   113  H   -0.003644
   114  H   -0.005998
   115  H   -0.012520
   116  H    0.001444
   117  H    0.002251
   118  H    0.005038
   119  H   -0.000373
   120  H   -0.025416
   121  H    0.015842
   122  H    0.032476
   123  H   -0.006868
   124  H    0.024210
   125  H    0.011889
   126  H    0.009951
   127  H    0.005760
   128  H   -0.000101
   129  H   -0.011787
   130  H   -0.013859
   131  H   -0.004425
   132  H    0.010752
   133  H    0.046032
   134  H    0.022830
   135  H    0.031535
   136  H    0.000527
   137  H    0.120345
   138  H    0.175513
 Sum of Mulliken charges =   0.00000

 Dipole moment (field-independent basis, Debye):
    X=              3.4424    Y=              4.0768    Z=              0.8034  Tot=              5.3959
 Quadrupole moment (field-independent basis, Debye-Ang):
   XX=           -366.5958   YY=           -382.4182   ZZ=           -394.5305
   XY=            -36.4409   XZ=              7.0846   YZ=             -4.1568

 Normal termination of Gaussian 09 at Sat Aug  3 17:44:35 2019.
