 Gaussian 09, Revision D.01,
 Gaussian 09:  ES64L-G09RevD.01 24-Apr-2013

 --------------------------
 # td=(NStates=1) B3LYP/SVP
 --------------------------

 --
 TD
 --
 Symbolic Z-matrix:
 Charge =  0 Multiplicity = 1

                         Standard orientation:
 ---------------------------------------------------------------------
 Center     Atomic      Atomic             Coordinates (Angstroms)
 Number     Number       Type             X           Y           Z
 ---------------------------------------------------------------------
      1          6           0       -5.105518   -1.989082    0.485809
      2          6           0       -4.918123    2.662151    1.531146
      3          6           0       -9.430540    3.231541   -0.105449
      4          6           0       -9.773286   -1.474883   -1.122569
      5          7           0       -5.155462    0.291225    0.957654
      6          6           0       -4.390582   -0.804631    0.853060
      7          6           0       -2.973363   -0.531864    1.467041
      8          6           0       -3.196912    0.810924    2.145154
      9          6           0       -4.359570    1.318787    1.486340
     10          6           0       -3.139448    0.840194    3.653626
     11          6           0       -1.998203   -0.843375    0.343729
     12          6           0       -0.596915   -0.745836    0.765910
     13          6           0        0.407943   -0.765043   -0.443642
     14          8           0        0.103572   -1.052956   -1.632340
     15          8           0        1.649673   -0.557683   -0.127116
     16          7           0       -7.244455    2.611397    0.548672
     17          6           0       -6.162581    3.203053    1.122153
     18          6           0       -6.462902    4.670301    1.258980
     19          6           0       -7.705174    4.935397    0.820438
     20          6           0       -8.227267    3.560869    0.295215
     21          6           0       -5.550726    5.667622    1.862715
     22          6           0       -8.415898    6.157440    0.612875
     23          6           0       -8.997288    6.575701   -0.514119
     24          7           0       -9.154175    0.813758   -0.660113
     25          6           0       -9.869896    1.985797   -0.639842
     26          6           0      -11.243776    1.767233   -1.123517
     27          6           0      -11.336113    0.560104   -1.419621
     28          6           0      -10.156478   -0.081018   -1.081063
     29          6           0      -12.142011    2.916675   -1.593397
     30          6           0      -12.390274   -0.292514   -2.053777
     31          6           0      -12.250624   -0.379444   -3.592427
     32          7           0       -7.492671   -1.286763   -0.352973
     33          6           0       -8.500799   -2.137544   -0.770632
     34          6           0       -8.068323   -3.541781   -0.749027
     35          6           0       -6.748799   -3.457523   -0.308539
     36          6           0       -6.416224   -2.103706   -0.038788
     37          6           0       -8.772013   -4.698607   -1.123878
     38          6           0       -5.645551   -4.291988   -0.054826
     39          8           0       -5.536584   -5.541974   -0.131412
     40          6           0       -4.480872   -3.446906    0.392174
     41          6           0       -3.971868   -3.850802    1.810641
     42          8           0       -4.335286   -3.460033    2.909275
     43          8           0       -2.957056   -4.817446    1.683012
     44          6           0       -2.564328   -5.487404    2.967569
     45          6           0        2.707604   -0.620850   -1.149494
     46          6           0        3.884927   -0.254786   -0.490847
     47          6           0        4.940606    0.430030   -1.046003
     48          6           0        5.000169    1.073796   -2.324819
     49          6           0        6.243553    0.541447   -0.247806
     50          6           0        7.435429   -0.170343   -0.957752
     51          6           0        8.771557    0.143126   -0.246720
     52          6           0        9.998540   -0.592610   -0.858703
     53          6           0        9.922328   -2.147916   -1.014281
     54          6           0       11.220216   -0.222557   -0.005185
     55          6           0       12.636564   -0.606211   -0.616330
     56          6           0       13.826147   -0.038061    0.144981
     57          6           0       15.205505   -0.208911   -0.501885
     58          6           0       15.576856   -1.744729   -0.653439
     59          6           0       16.261855    0.499641    0.347789
     60          6           0       17.602988    0.611631   -0.362649
     61          6           0       18.656164    1.344274    0.662619
     62          6           0       20.136450    1.465666    0.098619
     63          6           0       20.165945    2.135542   -1.322736
     64          6           0       21.037083    2.196130    1.104702
     65          1           0       -4.111348    3.170432    2.074186
     66          1           0      -10.152993    3.979130   -0.156806
     67          1           0      -10.548560   -2.267293   -1.470445
     68          1           0       -2.971636   -1.502279    2.288277
     69          1           0       -2.102534    1.363416    1.906514
     70          1           0       -2.023824    0.375113    3.789812
     71          1           0       -3.173584    1.617633    4.094026
     72          1           0       -3.823108    0.218420    3.951800
     73          1           0       -2.261238   -1.938841   -0.116470
     74          1           0       -2.121925   -0.199153   -0.454600
     75          1           0       -0.348724    0.117219    1.405801
     76          1           0       -0.245206   -1.607720    1.400057
     77          1           0       -4.585476    5.773819    1.097658
     78          1           0       -5.772433    6.728891    2.006636
     79          1           0       -5.371716    5.232726    2.884434
     80          1           0       -8.238630    7.069370    1.305105
     81          1           0       -8.996749    5.957843   -1.360177
     82          1           0       -9.529389    7.440206   -0.652160
     83          1           0      -12.332647    3.753124   -0.777440
     84          1           0      -11.698211    3.576745   -2.391076
     85          1           0      -13.186102    2.699447   -1.848158
     86          1           0      -12.562605   -1.409487   -1.774510
     87          1           0      -13.367820    0.223880   -1.952311
     88          1           0      -11.617780    0.626575   -3.979357
     89          1           0      -11.632073   -1.006426   -3.864373
     90          1           0      -13.366071   -0.281747   -4.279284
     91          1           0       -9.393447   -5.054072   -0.353384
     92          1           0       -9.372791   -4.431849   -2.152478
     93          1           0       -7.885207   -5.422070   -1.333817
     94          1           0       -3.571246   -3.605006   -0.337709
     95          1           0       -1.817173   -6.109530    2.571987
     96          1           0       -2.270836   -4.762084    3.675967
     97          1           0       -3.539759   -6.182063    3.111313
     98          1           0        2.537029   -1.520461   -1.619238
     99          1           0        2.277442   -0.017382   -2.017424
    100          1           0        3.853715   -0.384600    0.703207
    101          1           0        5.649834    1.939862   -2.388106
    102          1           0        5.846325    0.577239   -2.964328
    103          1           0        4.049394    1.140265   -2.752357
    104          1           0        6.494394    1.772652   -0.312866
    105          1           0        6.136046    0.286873    0.854457
    106          1           0        7.348789   -1.181031   -0.875349
    107          1           0        7.821277    0.018050   -1.917860
    108          1           0        9.012986    1.162356   -0.140534
    109          1           0        8.685665   -0.406723    0.775231
    110          1           0       10.016879   -0.032252   -1.965665
    111          1           0        8.987963   -2.561128   -1.495880
    112          1           0       10.894724   -2.620528   -1.575770
    113          1           0       10.037709   -2.493316   -0.111707
    114          1           0       10.989475    1.007120   -0.009014
    115          1           0       11.026039   -0.704798    1.040115
    116          1           0       12.440792   -1.727728   -0.694483
    117          1           0       12.931645   -0.171108   -1.627820
    118          1           0       13.654224    1.042209    0.390024
    119          1           0       13.835143   -0.346777    1.179983
    120          1           0       15.091236    0.165804   -1.525088
    121          1           0       14.734838   -2.339042   -1.138778
    122          1           0       16.600900   -2.035032   -1.215541
    123          1           0       15.626698   -2.126571    0.393403
    124          1           0       15.952254    1.612060    0.684536
    125          1           0       16.454396   -0.234352    1.175450
    126          1           0       18.093109   -0.258832   -0.791627
    127          1           0       17.352640    1.117050   -1.228904
    128          1           0       18.456838    2.352913    0.810229
    129          1           0       18.762281    0.627912    1.612770
    130          1           0       20.490854    0.387679   -0.038289
    131          1           0       19.747144    3.146247   -1.375050
    132          1           0       21.212820    2.110825   -1.509781
    133          1           0       19.474740    1.607881   -2.021387
    134          1           0       21.192896    1.789875    2.190541
    135          1           0       22.059668    2.358978    0.574793
    136          1           0       20.685326    3.276892    1.239265
    137          1           0       -7.251890    1.612661    0.569403
    138          1           0       -7.395695   -0.307559   -0.450754
 ---------------------------------------------------------------------

 SCF Done:  E(RB3LYP) =  -2732.94962585     A.U. after   17 cycles

 Excitation energies and oscillator strengths:

 Excited State   1:      Singlet-A      2.0570 eV  602.74 nm  f=0.1187  <S**2>=0.000
     235 -> 237       -0.17980
     235 -> 238       -0.32295
     236 -> 237        0.57635
     236 -> 238       -0.17096
 This state for optimization and/or second-order correction.
 Total Energy, E(TD-HF/TD-KS) =  -2732.87403193
 Copying the excited state density for this state as the 1-particle RhoCI density.

 The electronic state is 1-A.
 Alpha  occ. eigenvalues --  -19.17686 -19.16243 -19.12853 -19.10997 -19.10880
 Alpha  occ. eigenvalues --  -14.37742 -14.36847 -14.31951 -14.29960 -10.31714
 Alpha  occ. eigenvalues --  -10.31209 -10.26610 -10.25227 -10.24458 -10.24382
 Alpha  occ. eigenvalues --  -10.23989 -10.23827 -10.23360 -10.23042 -10.22739
 Alpha  occ. eigenvalues --  -10.22090 -10.21827 -10.21815 -10.21529 -10.21429
 Alpha  occ. eigenvalues --  -10.21272 -10.21247 -10.21237 -10.21181 -10.21103
 Alpha  occ. eigenvalues --  -10.21044 -10.20903 -10.20849 -10.20737 -10.20712
 Alpha  occ. eigenvalues --  -10.20625 -10.20526 -10.20073 -10.20017 -10.19828
 Alpha  occ. eigenvalues --  -10.19824 -10.19660 -10.19518 -10.19502 -10.19439
 Alpha  occ. eigenvalues --  -10.19384 -10.19318 -10.19160 -10.19136 -10.19134
 Alpha  occ. eigenvalues --  -10.19064 -10.18987 -10.18761 -10.18703 -10.18652
 Alpha  occ. eigenvalues --  -10.18316 -10.18255 -10.18148 -10.17908 -10.17848
 Alpha  occ. eigenvalues --  -10.17725 -10.17593 -10.17574 -10.17058  -1.09782
 Alpha  occ. eigenvalues --   -1.06487  -0.99746  -0.98566  -0.98394  -0.97587
 Alpha  occ. eigenvalues --   -0.97461  -0.94304  -0.93695  -0.84642  -0.83436
 Alpha  occ. eigenvalues --   -0.82961  -0.81967  -0.81768  -0.81543  -0.81012
 Alpha  occ. eigenvalues --   -0.80893  -0.79944  -0.79531  -0.78937  -0.77859
 Alpha  occ. eigenvalues --   -0.77388  -0.76436  -0.75831  -0.75111  -0.74333
 Alpha  occ. eigenvalues --   -0.74070  -0.72745  -0.71734  -0.71299  -0.70925
 Alpha  occ. eigenvalues --   -0.70674  -0.69498  -0.69216  -0.68669  -0.67552
 Alpha  occ. eigenvalues --   -0.67284  -0.66948  -0.66142  -0.65680  -0.65354
 Alpha  occ. eigenvalues --   -0.64371  -0.64015  -0.62708  -0.62163  -0.61633
 Alpha  occ. eigenvalues --   -0.61188  -0.59479  -0.58819  -0.57992  -0.57043
 Alpha  occ. eigenvalues --   -0.56787  -0.56565  -0.56078  -0.55857  -0.55626
 Alpha  occ. eigenvalues --   -0.54460  -0.54443  -0.54152  -0.53898  -0.53385
 Alpha  occ. eigenvalues --   -0.52682  -0.52193  -0.51324  -0.50804  -0.49940
 Alpha  occ. eigenvalues --   -0.49677  -0.49586  -0.49440  -0.49103  -0.48361
 Alpha  occ. eigenvalues --   -0.48135  -0.47729  -0.47510  -0.47440  -0.46790
 Alpha  occ. eigenvalues --   -0.46667  -0.46614  -0.46378  -0.46067  -0.45984
 Alpha  occ. eigenvalues --   -0.45694  -0.45505  -0.45346  -0.45181  -0.44797
 Alpha  occ. eigenvalues --   -0.44587  -0.44246  -0.44152  -0.44094  -0.43857
 Alpha  occ. eigenvalues --   -0.43653  -0.43341  -0.43140  -0.42966  -0.42870
 Alpha  occ. eigenvalues --   -0.42555  -0.42136  -0.41612  -0.41555  -0.41413
 Alpha  occ. eigenvalues --   -0.41156  -0.40853  -0.40721  -0.40529  -0.40414
 Alpha  occ. eigenvalues --   -0.40295  -0.39929  -0.39859  -0.39707  -0.39465
 Alpha  occ. eigenvalues --   -0.39201  -0.39016  -0.38760  -0.38597  -0.38059
 Alpha  occ. eigenvalues --   -0.38001  -0.37737  -0.37570  -0.37511  -0.36988
 Alpha  occ. eigenvalues --   -0.36822  -0.36651  -0.36477  -0.36431  -0.36331
 Alpha  occ. eigenvalues --   -0.36183  -0.36090  -0.35820  -0.35776  -0.35679
 Alpha  occ. eigenvalues --   -0.35582  -0.35252  -0.35117  -0.34916  -0.34790
 Alpha  occ. eigenvalues --   -0.34523  -0.34347  -0.34222  -0.33910  -0.33513
 Alpha  occ. eigenvalues --   -0.33249  -0.32877  -0.32831  -0.32652  -0.32147
 Alpha  occ. eigenvalues --   -0.32017  -0.31760  -0.31698  -0.31585  -0.31533
 Alpha  occ. eigenvalues --   -0.31023  -0.30934  -0.30495  -0.30303  -0.29709
 Alpha  occ. eigenvalues --   -0.29335  -0.29270  -0.28464  -0.28110  -0.27581
 Alpha  occ. eigenvalues --   -0.27543  -0.27402  -0.26465  -0.25885  -0.25789
 Alpha  occ. eigenvalues --   -0.24737  -0.24302  -0.23842  -0.23500  -0.19766
 Alpha  occ. eigenvalues --   -0.18295
 Alpha virt. eigenvalues --   -0.09503  -0.08094  -0.04700  -0.02666  -0.01439
 Alpha virt. eigenvalues --   -0.00561   0.00068   0.00689   0.01846   0.03279
 Alpha virt. eigenvalues --    0.03371   0.03625   0.04036   0.04333   0.04773

 Mulliken charges:
               1
     1  C   -0.038066
     2  C   -0.066733
     3  C   -0.050850
     4  C   -0.072947
     5  N   -0.213274
     6  C   -0.064148
     7  C   -0.132023
     8  C   -0.057830
     9  C   -0.055666
    10  C    0.266719
    11  C    0.093508
    12  C    0.051534
    13  C    0.157651
    14  O   -0.307447
    15  O   -0.289301
    16  N   -0.029332
    17  C    0.151371
    18  C   -0.114977
    19  C    0.093633
    20  C    0.121676
    21  C    0.037561
    22  C   -0.096131
    23  C    0.011275
    24  N   -0.270341
    25  C    0.018983
    26  C   -0.111379
    27  C    0.013810
    28  C    0.045836
    29  C    0.023699
    30  C    0.066815
    31  C   -0.006336
    32  N   -0.017199
    33  C    0.030642
    34  C   -0.095811
    35  C    0.023773
    36  C    0.124032
    37  C    0.037270
    38  C    0.033758
    39  O   -0.226550
    40  C   -0.055606
    41  C    0.229027
    42  O   -0.230165
    43  O   -0.373697
    44  C    0.193493
    45  C    0.279349
    46  C   -0.096901
    47  C   -0.125071
    48  C    0.151345
    49  C    0.016750
    50  C    0.110083
    51  C   -0.008657
    52  C   -0.142917
    53  C    0.053122
    54  C   -0.057362
    55  C    0.043110
    56  C    0.057187
    57  C   -0.058669
    58  C   -0.040619
    59  C    0.020955
    60  C    0.035259
    61  C    0.027768
    62  C   -0.123907
    63  C    0.033208
    64  C   -0.016949
    65  H   -0.029677
    66  H   -0.064367
    67  H   -0.009231
    68  H    0.060705
    69  H    0.008171
    70  H    0.015624
    71  H   -0.082137
    72  H   -0.016891
    73  H    0.046115
    74  H   -0.014187
    75  H    0.016589
    76  H    0.029676
    77  H    0.047411
    78  H    0.018619
    79  H    0.044725
    80  H    0.020564
    81  H    0.010601
    82  H    0.005014
    83  H    0.014781
    84  H    0.033722
    85  H    0.013054
    86  H    0.030210
    87  H   -0.009259
    88  H    0.013211
    89  H   -0.053210
    90  H    0.040330
    91  H    0.034354
    92  H    0.046327
    93  H    0.063177
    94  H    0.090098
    95  H    0.022265
    96  H    0.043873
    97  H    0.064342
    98  H   -0.004017
    99  H    0.024258
   100  H    0.039656
   101  H   -0.008258
   102  H    0.014998
   103  H    0.006280
   104  H    0.011408
   105  H    0.015932
   106  H   -0.027498
   107  H   -0.017759
   108  H   -0.008768
   109  H   -0.014829
   110  H    0.001388
   111  H    0.028879
   112  H    0.034079
   113  H   -0.039820
   114  H    0.011943
   115  H    0.025128
   116  H    0.013535
   117  H    0.004194
   118  H   -0.015273
   119  H   -0.036893
   120  H   -0.013883
   121  H    0.019273
   122  H    0.036668
   123  H    0.007030
   124  H    0.021986
   125  H   -0.001557
   126  H   -0.008079
   127  H   -0.032452
   128  H   -0.016346
   129  H    0.019833
   130  H    0.000098
   131  H    0.000427
   132  H    0.009826
   133  H    0.015286
   134  H    0.033226
   135  H    0.010970
   136  H    0.007341
   137  H    0.137858
   138  H    0.131993
 Sum of Mulliken charges =   0.00000

 Dipole moment (field-independent basis, Debye):
    X=              3.2908    Y=              5.4605    Z=              1.1770  Tot=              6.4832
 Quadrupole moment (field-independent basis, Debye-Ang):
   XX=           -364.7574   YY=           -381.3955   ZZ=           -393.1984
   XY=            -34.0991   XZ=              3.8264   YZ=             -2.1345

 Normal termination of Gaussian 09 at Mon Aug  5 02:03:58 2019.
