 Gaussian 09, Revision D.01,
 Gaussian 09:  ES64L-G09RevD.01 24-Apr-2013

 --------------------------
 # td=(NStates=1) B3LYP/SVP
 --------------------------

 --
 TD
 --
 Symbolic Z-matrix:
 Charge =  0 Multiplicity = 1

                         Standard orientation:
 ---------------------------------------------------------------------
 Center     Atomic      Atomic             Coordinates (Angstroms)
 Number     Number       Type             X           Y           Z
 ---------------------------------------------------------------------
      1          6           0       -5.102444   -1.947453    0.468443
      2          6           0       -4.799262    2.745689    1.485446
      3          6           0       -9.410393    3.175727   -0.277511
      4          6           0       -9.702502   -1.561906   -1.072902
      5          7           0       -5.110732    0.401161    0.950182
      6          6           0       -4.476407   -0.752487    0.868273
      7          6           0       -3.048429   -0.601661    1.253849
      8          6           0       -3.184622    0.808363    1.967089
      9          6           0       -4.470522    1.283290    1.468462
     10          6           0       -3.089307    0.671292    3.524882
     11          6           0       -1.944187   -0.550425    0.167215
     12          6           0       -0.622140   -0.524445    0.642854
     13          6           0        0.320458   -0.839062   -0.603229
     14          8           0        0.055892   -1.221120   -1.690405
     15          8           0        1.683104   -0.555286   -0.196471
     16          7           0       -7.133630    2.653804    0.645827
     17          6           0       -5.990911    3.313282    1.202060
     18          6           0       -6.445722    4.765141    1.210530
     19          6           0       -7.627181    4.887320    0.643811
     20          6           0       -8.142414    3.526803    0.300717
     21          6           0       -5.371224    5.750472    1.614251
     22          6           0       -8.405935    6.151293    0.465228
     23          6           0       -9.026069    6.569389   -0.566401
     24          7           0       -9.135789    0.806421   -0.593448
     25          6           0       -9.828524    1.905597   -0.547424
     26          6           0      -11.307229    1.685658   -0.937845
     27          6           0      -11.361731    0.349655   -1.302110
     28          6           0      -10.008760   -0.164973   -0.970430
     29          6           0      -12.357299    2.784901   -1.177697
     30          6           0      -12.483981   -0.422039   -1.861258
     31          6           0      -12.407472   -0.407894   -3.432699
     32          7           0       -7.408242   -1.230338   -0.235431
     33          6           0       -8.453735   -2.028080   -0.686501
     34          6           0       -8.014133   -3.458414   -0.646560
     35          6           0       -6.612968   -3.432095   -0.284011
     36          6           0       -6.367322   -2.003264    0.007061
     37          6           0       -8.828833   -4.739154   -0.825065
     38          6           0       -5.546343   -4.308303   -0.010504
     39          8           0       -5.499617   -5.570643    0.006609
     40          6           0       -4.394512   -3.292260    0.509854
     41          6           0       -3.888731   -3.782953    1.854557
     42          8           0       -4.140227   -3.254939    2.930143
     43          8           0       -3.119345   -4.845030    1.701524
     44          6           0       -2.552114   -5.469120    2.867638
     45          6           0        2.651053   -0.724456   -1.307760
     46          6           0        4.001832   -0.480366   -0.709462
     47          6           0        4.953016    0.356677   -1.209724
     48          6           0        4.838003    1.426916   -2.432517
     49          6           0        6.326750    0.502009   -0.520825
     50          6           0        7.400990   -0.134955   -1.240288
     51          6           0        8.762600   -0.141666   -0.363104
     52          6           0        9.980579   -0.665848   -1.053411
     53          6           0        9.955823   -2.150993   -1.242007
     54          6           0       11.220005   -0.234937   -0.254001
     55          6           0       12.618285   -0.524194   -0.947474
     56          6           0       13.804594   -0.082601    0.084838
     57          6           0       15.178332   -0.266803   -0.475893
     58          6           0       15.435731   -1.754596   -0.765561
     59          6           0       16.248774    0.337048    0.487459
     60          6           0       17.612214    0.591203   -0.050210
     61          6           0       18.601903    1.437740    0.853438
     62          6           0       20.054470    1.482809    0.427691
     63          6           0       20.162344    2.165883   -0.946880
     64          6           0       21.004158    2.071244    1.469156
     65          1           0       -4.156186    3.349001    2.063638
     66          1           0      -10.010369    4.067972   -0.522401
     67          1           0      -10.358983   -2.486545   -1.636846
     68          1           0       -2.738855   -1.275044    2.197764
     69          1           0       -2.520661    1.335981    1.507695
     70          1           0       -2.088204    0.521271    3.777457
     71          1           0       -3.427180    1.686959    4.051618
     72          1           0       -3.787028   -0.110756    3.601629
     73          1           0       -2.132849   -1.615350   -0.303536
     74          1           0       -2.127779    0.306847   -0.526817
     75          1           0       -0.334929    0.328324    1.060123
     76          1           0       -0.487806   -1.477983    1.367593
     77          1           0       -4.343951    5.641503    1.168932
     78          1           0       -5.679559    6.756618    1.593686
     79          1           0       -5.189957    5.636328    2.723212
     80          1           0       -8.331545    6.763412    1.269236
     81          1           0       -8.942462    5.795847   -1.408709
     82          1           0       -9.489535    7.584566   -0.335957
     83          1           0      -12.601231    3.318892   -0.294350
     84          1           0      -11.984173    3.537083   -1.772024
     85          1           0      -13.246267    2.571262   -1.904504
     86          1           0      -12.537343   -1.442926   -1.559670
     87          1           0      -13.478513    0.065457   -1.611776
     88          1           0      -12.707991    0.566769   -3.777904
     89          1           0      -11.460359   -0.747693   -4.054612
     90          1           0      -13.310860   -1.037754   -3.824009
     91          1           0       -9.436810   -4.627422   -0.013828
     92          1           0       -9.398806   -4.482059   -1.882837
     93          1           0       -8.237983   -5.569249   -0.791154
     94          1           0       -3.672409   -3.300981   -0.152367
     95          1           0       -1.861242   -6.372970    2.591781
     96          1           0       -2.023115   -4.781847    3.530590
     97          1           0       -3.328534   -5.758341    3.492407
     98          1           0        2.724559   -1.719144   -1.628074
     99          1           0        2.362213    0.077654   -2.250269
    100          1           0        4.225797   -0.780894    0.318563
    101          1           0        5.286053    2.327727   -1.983010
    102          1           0        5.474244    1.070155   -3.280612
    103          1           0        3.752514    1.740757   -2.717430
    104          1           0        6.511537    1.503414   -0.241026
    105          1           0        6.117502   -0.023276    0.455386
    106          1           0        7.271053   -1.035448   -1.631377
    107          1           0        7.860828    0.623566   -2.127567
    108          1           0        8.661751    0.856124   -0.218615
    109          1           0        8.557698   -0.772630    0.674902
    110          1           0       10.250483   -0.324272   -2.160338
    111          1           0        9.038648   -2.389318   -1.775004
    112          1           0       10.758619   -2.756621   -1.605859
    113          1           0        9.877524   -2.656090   -0.209615
    114          1           0       11.145810    0.839813    0.000715
    115          1           0       11.267717   -0.720108    0.816885
    116          1           0       12.789671   -1.610056   -1.058312
    117          1           0       12.911130    0.078493   -1.738806
    118          1           0       13.348738    1.001335    0.150049
    119          1           0       13.773233   -0.555915    1.010886
    120          1           0       15.251239    0.413094   -1.510644
    121          1           0       14.815431   -1.912724   -1.765173
    122          1           0       16.461756   -1.977733   -1.246130
    123          1           0       15.328271   -2.540237    0.156044
    124          1           0       15.841716    1.410459    0.837565
    125          1           0       16.150997   -0.252394    1.418899
    126          1           0       18.124483   -0.469363   -0.142904
    127          1           0       17.451294    1.192793   -0.976216
    128          1           0       18.366693    2.666176    0.792662
    129          1           0       18.363695    0.971043    1.895443
    130          1           0       20.494294    0.613775    0.315381
    131          1           0       19.549351    3.226542   -1.032205
    132          1           0       21.098384    2.500071   -1.210709
    133          1           0       19.677423    1.664775   -1.842628
    134          1           0       20.922724    1.472308    2.576153
    135          1           0       22.007241    2.121789    1.222160
    136          1           0       20.761417    3.333297    1.531215
    137          1           0       -7.194615    1.669629    0.531826
    138          1           0       -7.476682   -0.254899   -0.098622
 ---------------------------------------------------------------------

 SCF Done:  E(RB3LYP) =  -2732.99729064     A.U. after   17 cycles

 Excitation energies and oscillator strengths:

 Excited State   1:      Singlet-A      2.0795 eV  596.21 nm  f=0.1978  <S**2>=0.000
     235 -> 238       -0.27313
     236 -> 237        0.63380
     236 -> 238       -0.12938
 This state for optimization and/or second-order correction.
 Total Energy, E(TD-HF/TD-KS) =  -2732.92086960
 Copying the excited state density for this state as the 1-particle RhoCI density.

 The electronic state is 1-A.
 Alpha  occ. eigenvalues --  -19.18323 -19.16591 -19.14524 -19.11929 -19.11759
 Alpha  occ. eigenvalues --  -14.37797 -14.36738 -14.31360 -14.30248 -10.32190
 Alpha  occ. eigenvalues --  -10.31697 -10.27582 -10.25283 -10.24860 -10.24452
 Alpha  occ. eigenvalues --  -10.24178 -10.23667 -10.23275 -10.22318 -10.22307
 Alpha  occ. eigenvalues --  -10.22219 -10.21774 -10.21504 -10.21301 -10.21010
 Alpha  occ. eigenvalues --  -10.20780 -10.20485 -10.20433 -10.20343 -10.20297
 Alpha  occ. eigenvalues --  -10.20292 -10.20273 -10.20238 -10.20106 -10.20101
 Alpha  occ. eigenvalues --  -10.20100 -10.19942 -10.19770 -10.19735 -10.19593
 Alpha  occ. eigenvalues --  -10.19592 -10.19397 -10.19381 -10.19299 -10.19236
 Alpha  occ. eigenvalues --  -10.19101 -10.19064 -10.18978 -10.18939 -10.18842
 Alpha  occ. eigenvalues --  -10.18827 -10.18824 -10.18793 -10.18667 -10.18654
 Alpha  occ. eigenvalues --  -10.18623 -10.18498 -10.18459 -10.18281 -10.18263
 Alpha  occ. eigenvalues --  -10.17955 -10.17881 -10.17641 -10.17467  -1.09979
 Alpha  occ. eigenvalues --   -1.08377  -1.00075  -0.99903  -0.99868  -0.99451
 Alpha  occ. eigenvalues --   -0.98887  -0.96639  -0.94497  -0.85662  -0.83112
 Alpha  occ. eigenvalues --   -0.82611  -0.82574  -0.81481  -0.80984  -0.80584
 Alpha  occ. eigenvalues --   -0.79962  -0.79847  -0.79381  -0.78660  -0.78196
 Alpha  occ. eigenvalues --   -0.77466  -0.76488  -0.76235  -0.74989  -0.74471
 Alpha  occ. eigenvalues --   -0.73947  -0.73302  -0.72073  -0.71258  -0.71060
 Alpha  occ. eigenvalues --   -0.70449  -0.70007  -0.68897  -0.67873  -0.67524
 Alpha  occ. eigenvalues --   -0.66800  -0.66181  -0.66123  -0.65873  -0.64924
 Alpha  occ. eigenvalues --   -0.64587  -0.63040  -0.62777  -0.61592  -0.61467
 Alpha  occ. eigenvalues --   -0.61088  -0.59110  -0.58631  -0.58304  -0.57595
 Alpha  occ. eigenvalues --   -0.57142  -0.57114  -0.55940  -0.55495  -0.55352
 Alpha  occ. eigenvalues --   -0.54941  -0.54913  -0.54629  -0.53522  -0.53050
 Alpha  occ. eigenvalues --   -0.52952  -0.52188  -0.51843  -0.51335  -0.51198
 Alpha  occ. eigenvalues --   -0.50671  -0.49903  -0.49058  -0.48955  -0.48845
 Alpha  occ. eigenvalues --   -0.48289  -0.48110  -0.47920  -0.47496  -0.47465
 Alpha  occ. eigenvalues --   -0.47261  -0.46863  -0.46184  -0.45951  -0.45701
 Alpha  occ. eigenvalues --   -0.45350  -0.45161  -0.44872  -0.44632  -0.44188
 Alpha  occ. eigenvalues --   -0.44027  -0.44002  -0.43925  -0.43840  -0.43660
 Alpha  occ. eigenvalues --   -0.43188  -0.43160  -0.42847  -0.42479  -0.42342
 Alpha  occ. eigenvalues --   -0.42220  -0.42174  -0.41877  -0.41820  -0.41706
 Alpha  occ. eigenvalues --   -0.41533  -0.41517  -0.41298  -0.40726  -0.40419
 Alpha  occ. eigenvalues --   -0.40264  -0.40027  -0.39793  -0.39759  -0.39714
 Alpha  occ. eigenvalues --   -0.39548  -0.39230  -0.38938  -0.38888  -0.38721
 Alpha  occ. eigenvalues --   -0.38210  -0.38100  -0.37916  -0.37760  -0.37521
 Alpha  occ. eigenvalues --   -0.37222  -0.36963  -0.36818  -0.36704  -0.36579
 Alpha  occ. eigenvalues --   -0.36423  -0.36248  -0.36107  -0.35633  -0.35588
 Alpha  occ. eigenvalues --   -0.35438  -0.35419  -0.35130  -0.34879  -0.34870
 Alpha  occ. eigenvalues --   -0.34790  -0.34439  -0.34264  -0.33981  -0.33885
 Alpha  occ. eigenvalues --   -0.33365  -0.33132  -0.33087  -0.32760  -0.32345
 Alpha  occ. eigenvalues --   -0.32005  -0.31650  -0.31376  -0.31208  -0.31203
 Alpha  occ. eigenvalues --   -0.30682  -0.30655  -0.30458  -0.30354  -0.30032
 Alpha  occ. eigenvalues --   -0.29533  -0.29051  -0.28741  -0.28446  -0.27734
 Alpha  occ. eigenvalues --   -0.27468  -0.27248  -0.27062  -0.26257  -0.25709
 Alpha  occ. eigenvalues --   -0.25372  -0.24558  -0.24536  -0.22853  -0.20532
 Alpha  occ. eigenvalues --   -0.17887
 Alpha virt. eigenvalues --   -0.09380  -0.07715  -0.05050  -0.00632  -0.00560
 Alpha virt. eigenvalues --    0.00372   0.00447   0.01138   0.02566   0.03074
 Alpha virt. eigenvalues --    0.03787   0.04000   0.04168   0.04395   0.04817

 Mulliken charges:
               1
     1  C   -0.075005
     2  C   -0.022221
     3  C   -0.113886
     4  C   -0.151361
     5  N   -0.001988
     6  C   -0.085684
     7  C   -0.191022
     8  C    0.071935
     9  C   -0.148459
    10  C    0.102587
    11  C    0.067064
    12  C    0.082356
    13  C    0.182006
    14  O   -0.176463
    15  O   -0.391568
    16  N   -0.100309
    17  C    0.103740
    18  C   -0.097113
    19  C   -0.000678
    20  C    0.058098
    21  C    0.108962
    22  C   -0.043560
    23  C   -0.001809
    24  N   -0.189519
    25  C    0.109612
    26  C   -0.162021
    27  C   -0.086220
    28  C    0.068571
    29  C    0.137230
    30  C    0.101685
    31  C   -0.049603
    32  N    0.052627
    33  C    0.058857
    34  C   -0.194585
    35  C   -0.009757
    36  C    0.133736
    37  C    0.173182
    38  C    0.043005
    39  O   -0.222327
    40  C    0.078341
    41  C    0.190561
    42  O   -0.248703
    43  O   -0.275075
    44  C    0.208139
    45  C    0.276886
    46  C   -0.088662
    47  C   -0.178771
    48  C    0.028835
    49  C    0.094150
    50  C    0.037719
    51  C    0.026374
    52  C   -0.043671
    53  C    0.041854
    54  C   -0.005603
    55  C    0.050853
    56  C   -0.018525
    57  C   -0.087932
    58  C   -0.036400
    59  C   -0.004091
    60  C    0.048265
    61  C   -0.035991
    62  C    0.039488
    63  C   -0.011854
    64  C   -0.035655
    65  H   -0.036920
    66  H   -0.025340
    67  H    0.048644
    68  H    0.037150
    69  H   -0.098103
    70  H    0.008132
    71  H    0.021507
    72  H    0.037427
    73  H    0.030402
    74  H    0.019439
    75  H   -0.011354
    76  H    0.051528
    77  H    0.043824
    78  H   -0.011109
    79  H    0.014347
    80  H   -0.033743
    81  H    0.045967
    82  H    0.041945
    83  H    0.002218
    84  H   -0.013784
    85  H    0.021294
    86  H   -0.006234
    87  H    0.009748
    88  H    0.000410
    89  H    0.043522
    90  H    0.006751
    91  H    0.018312
    92  H    0.047948
    93  H    0.016678
    94  H   -0.010223
    95  H    0.059522
    96  H    0.016852
    97  H    0.008094
    98  H    0.017262
    99  H    0.051858
   100  H    0.002302
   101  H    0.014373
   102  H    0.042722
   103  H    0.032593
   104  H   -0.007734
   105  H   -0.013373
   106  H   -0.041099
   107  H    0.005207
   108  H   -0.032192
   109  H    0.018857
   110  H    0.006555
   111  H   -0.001932
   112  H    0.007211
   113  H   -0.014964
   114  H   -0.012884
   115  H   -0.001838
   116  H    0.014743
   117  H   -0.015987
   118  H    0.006809
   119  H   -0.021536
   120  H    0.001406
   121  H    0.029566
   122  H    0.015560
   123  H    0.042983
   124  H   -0.003820
   125  H   -0.014645
   126  H    0.012055
   127  H    0.005098
   128  H    0.016317
   129  H    0.008705
   130  H   -0.047357
   131  H   -0.002530
   132  H   -0.014346
   133  H    0.025809
   134  H    0.035293
   135  H   -0.002363
   136  H    0.006583
   137  H    0.117690
   138  H    0.115568
 Sum of Mulliken charges =   0.00000

 Dipole moment (field-independent basis, Debye):
    X=              2.0639    Y=              4.3086    Z=              0.6445  Tot=              4.8207
 Quadrupole moment (field-independent basis, Debye-Ang):
   XX=           -356.8932   YY=           -382.0318   ZZ=           -395.6255
   XY=            -38.0500   XZ=              0.1802   YZ=             -3.3592

 Normal termination of Gaussian 09 at Mon Jul 29 16:30:34 2019.
