 Gaussian 09, Revision D.01,
 Gaussian 09:  ES64L-G09RevD.01 24-Apr-2013

 --------------------------
 # td=(NStates=1) B3LYP/SVP
 --------------------------

 --
 TD
 --
 Symbolic Z-matrix:
 Charge =  0 Multiplicity = 1

                         Standard orientation:
 ---------------------------------------------------------------------
 Center     Atomic      Atomic             Coordinates (Angstroms)
 Number     Number       Type             X           Y           Z
 ---------------------------------------------------------------------
      1          6           0       -5.023495   -1.951118    0.473799
      2          6           0       -4.806313    2.780264    1.344211
      3          6           0       -9.433151    3.316977   -0.228078
      4          6           0       -9.853395   -1.544007   -0.897182
      5          7           0       -5.106116    0.429926    0.734615
      6          6           0       -4.430432   -0.793494    0.783721
      7          6           0       -3.068663   -0.539008    1.220482
      8          6           0       -3.008474    0.883086    1.796474
      9          6           0       -4.486001    1.382530    1.264284
     10          6           0       -2.939545    1.014804    3.446146
     11          6           0       -2.118630   -0.676193   -0.023353
     12          6           0       -0.690600   -0.705205    0.330821
     13          6           0        0.319430   -0.955795   -0.717582
     14          8           0        0.046934   -1.227739   -1.854731
     15          8           0        1.572894   -0.717266   -0.286478
     16          7           0       -7.096263    2.754086    0.464931
     17          6           0       -6.038135    3.324720    0.994455
     18          6           0       -6.398751    4.833302    1.121166
     19          6           0       -7.653426    4.962584    0.635025
     20          6           0       -8.085511    3.653901    0.138408
     21          6           0       -5.430127    5.908653    1.539045
     22          6           0       -8.285892    6.166380    0.274027
     23          6           0       -9.286146    6.514575   -0.613674
     24          7           0       -9.232229    0.853021   -0.457063
     25          6           0       -9.926906    2.016306   -0.489876
     26          6           0      -11.290241    1.806779   -0.919354
     27          6           0      -11.494212    0.381782   -1.035718
     28          6           0      -10.171339   -0.151560   -0.797932
     29          6           0      -12.419636    2.826210   -1.176422
     30          6           0      -12.599503   -0.374595   -1.597805
     31          6           0      -12.718895   -0.444804   -3.031442
     32          7           0       -7.537653   -1.354265   -0.237318
     33          6           0       -8.576284   -2.133577   -0.661887
     34          6           0       -8.181533   -3.496704   -0.461063
     35          6           0       -6.821179   -3.395399   -0.055266
     36          6           0       -6.427239   -2.093669    0.105060
     37          6           0       -9.062684   -4.707799   -0.969641
     38          6           0       -5.630420   -4.262348    0.143647
     39          8           0       -5.573178   -5.480960    0.142041
     40          6           0       -4.418685   -3.386420    0.393497
     41          6           0       -3.779708   -3.791030    1.684788
     42          8           0       -4.023884   -3.289371    2.786088
     43          8           0       -2.911406   -4.828971    1.462187
     44          6           0       -2.338336   -5.375948    2.639688
     45          6           0        2.691085   -0.909626   -1.295729
     46          6           0        3.976965   -0.756771   -0.618880
     47          6           0        4.927804    0.214689   -0.968979
     48          6           0        4.950826    1.094599   -2.166741
     49          6           0        6.227517    0.167575   -0.134409
     50          6           0        7.557115   -0.355005   -0.969288
     51          6           0        8.710829   -0.219912   -0.104185
     52          6           0       10.096163   -0.617905   -0.795879
     53          6           0       10.019898   -2.096521   -1.244228
     54          6           0       11.371967   -0.279534    0.018550
     55          6           0       12.770439   -0.579942   -0.747816
     56          6           0       13.848490   -0.094803    0.274964
     57          6           0       15.293060   -0.246425   -0.330079
     58          6           0       15.686604   -1.582323   -0.668576
     59          6           0       16.353831    0.468764    0.562221
     60          6           0       17.770912    0.626402   -0.055224
     61          6           0       18.728579    1.509625    0.716871
     62          6           0       20.102935    1.595731    0.124633
     63          6           0       20.101082    2.285007   -1.254920
     64          6           0       21.088279    2.334368    1.171205
     65          1           0       -3.959769    3.352903    1.989517
     66          1           0      -10.123047    4.057194   -0.315237
     67          1           0      -10.609627   -2.325322   -1.548498
     68          1           0       -2.596253   -1.363394    1.867021
     69          1           0       -2.340567    1.602377    1.268277
     70          1           0       -1.867926    0.602888    3.686308
     71          1           0       -3.125365    1.984913    3.818714
     72          1           0       -3.745439    0.500025    3.855342
     73          1           0       -2.285402   -1.598917   -0.517311
     74          1           0       -2.470132   -0.017638   -0.751612
     75          1           0       -0.442264    0.202438    0.949284
     76          1           0       -0.476899   -1.667951    0.891275
     77          1           0       -4.864719    6.048434    0.805297
     78          1           0       -5.935689    6.726285    1.626156
     79          1           0       -4.883180    5.545598    2.462405
     80          1           0       -8.059672    6.941668    1.012355
     81          1           0       -9.538948    5.772500   -1.370578
     82          1           0       -9.696648    7.450610   -0.811830
     83          1           0      -12.171178    3.531061   -0.443890
     84          1           0      -12.242868    3.142047   -2.425658
     85          1           0      -13.371630    2.331531   -1.114673
     86          1           0      -12.670692   -1.366824   -1.150824
     87          1           0      -13.438551    0.271889   -1.170949
     88          1           0      -12.750314    0.681807   -3.288581
     89          1           0      -11.675096   -0.744569   -3.627342
     90          1           0      -13.495816   -1.155167   -3.292668
     91          1           0       -9.708227   -5.087756   -0.041267
     92          1           0       -9.560318   -4.472855   -1.801837
     93          1           0       -8.395396   -5.515825   -1.215139
     94          1           0       -3.695486   -3.508858   -0.389158
     95          1           0       -1.221709   -5.887336    2.185395
     96          1           0       -2.343232   -4.341805    3.438816
     97          1           0       -2.989550   -6.315029    3.138169
     98          1           0        2.480315   -2.037699   -1.827371
     99          1           0        2.653929   -0.199983   -2.177749
    100          1           0        4.055001   -1.385607    0.262410
    101          1           0        5.079850    2.341589   -1.975254
    102          1           0        5.835039    0.739067   -2.850297
    103          1           0        3.903775    1.131128   -2.583219
    104          1           0        6.413083    1.207161    0.301214
    105          1           0        6.278277   -0.510105    0.845909
    106          1           0        7.465694   -1.652814   -1.366611
    107          1           0        7.558651    0.328403   -1.922502
    108          1           0        8.967143    0.794358    0.436597
    109          1           0        8.511229   -0.970428    0.956341
    110          1           0       10.155625   -0.053258   -1.777321
    111          1           0        9.266247   -2.367183   -1.769308
    112          1           0       10.977852   -2.349135   -1.643994
    113          1           0       10.004336   -2.786750   -0.290512
    114          1           0       11.158625    0.820311    0.192894
    115          1           0       11.572354   -0.754658    0.922970
    116          1           0       12.706591   -1.627479   -0.767539
    117          1           0       12.722934   -0.152639   -1.764528
    118          1           0       13.520684    0.962497    0.589845
    119          1           0       13.538845   -0.625367    1.165892
    120          1           0       15.202929    0.676550   -1.171238
    121          1           0       14.952685   -1.923803   -1.593668
    122          1           0       16.573564   -1.673548   -1.266128
    123          1           0       15.621822   -2.169290    0.192637
    124          1           0       15.956286    1.502099    0.760239
    125          1           0       16.692935   -0.063477    1.512728
    126          1           0       18.201257   -0.357406   -0.299184
    127          1           0       17.320768    1.286588   -0.856493
    128          1           0       18.300264    2.569962    0.619447
    129          1           0       19.069038    1.120108    1.755686
    130          1           0       20.266576    0.421225   -0.040230
    131          1           0       19.809238    3.327892   -1.331321
    132          1           0       21.137824    2.330808   -1.663580
    133          1           0       19.432757    1.520188   -1.840843
    134          1           0       21.122555    2.015226    2.267599
    135          1           0       22.150293    2.474031    0.648725
    136          1           0       20.558449    3.404712    1.235049
    137          1           0       -7.268677    1.835735    0.100706
    138          1           0       -7.462018   -0.263899   -0.230172
 ---------------------------------------------------------------------

 SCF Done:  E(RB3LYP) =  -2732.96916821     A.U. after   17 cycles

 Excitation energies and oscillator strengths:

 Excited State   1:      Singlet-A      2.1869 eV  566.94 nm  f=0.1798  <S**2>=0.000
     235 -> 237       -0.25368
     235 -> 238        0.23477
     236 -> 237        0.58377
     236 -> 238        0.18184
 This state for optimization and/or second-order correction.
 Total Energy, E(TD-HF/TD-KS) =  -2732.88880062
 Copying the excited state density for this state as the 1-particle RhoCI density.

 The electronic state is 1-A.
 Alpha  occ. eigenvalues --  -19.18614 -19.17205 -19.13464 -19.11623 -19.11451
 Alpha  occ. eigenvalues --  -14.37969 -14.36984 -14.31540 -14.30089 -10.32408
 Alpha  occ. eigenvalues --  -10.30617 -10.27887 -10.27463 -10.26090 -10.25378
 Alpha  occ. eigenvalues --  -10.24357 -10.23097 -10.23077 -10.22927 -10.22522
 Alpha  occ. eigenvalues --  -10.22338 -10.22326 -10.22285 -10.21890 -10.21662
 Alpha  occ. eigenvalues --  -10.21641 -10.21611 -10.21521 -10.21325 -10.21029
 Alpha  occ. eigenvalues --  -10.21009 -10.20942 -10.20899 -10.20859 -10.20638
 Alpha  occ. eigenvalues --  -10.20562 -10.20511 -10.20396 -10.20252 -10.20241
 Alpha  occ. eigenvalues --  -10.20087 -10.19938 -10.19756 -10.19742 -10.19731
 Alpha  occ. eigenvalues --  -10.19635 -10.19539 -10.19492 -10.19267 -10.19050
 Alpha  occ. eigenvalues --  -10.18963 -10.18668 -10.18499 -10.18495 -10.18385
 Alpha  occ. eigenvalues --  -10.18339 -10.18310 -10.18285 -10.18273 -10.18253
 Alpha  occ. eigenvalues --  -10.18247 -10.18232 -10.18188 -10.16595  -1.09367
 Alpha  occ. eigenvalues --   -1.08225  -1.02077  -1.00707  -1.00133  -0.99615
 Alpha  occ. eigenvalues --   -0.97929  -0.95468  -0.92279  -0.85197  -0.83650
 Alpha  occ. eigenvalues --   -0.82288  -0.82174  -0.81696  -0.81131  -0.80712
 Alpha  occ. eigenvalues --   -0.80176  -0.79793  -0.78780  -0.78337  -0.77047
 Alpha  occ. eigenvalues --   -0.76767  -0.76199  -0.75981  -0.74991  -0.74346
 Alpha  occ. eigenvalues --   -0.73468  -0.73222  -0.73013  -0.72626  -0.72011
 Alpha  occ. eigenvalues --   -0.70186  -0.69156  -0.68402  -0.67559  -0.67234
 Alpha  occ. eigenvalues --   -0.67041  -0.66726  -0.66349  -0.65923  -0.64885
 Alpha  occ. eigenvalues --   -0.64167  -0.63084  -0.62500  -0.61251  -0.61153
 Alpha  occ. eigenvalues --   -0.60767  -0.59033  -0.58092  -0.57916  -0.57528
 Alpha  occ. eigenvalues --   -0.56946  -0.56617  -0.55132  -0.54831  -0.54673
 Alpha  occ. eigenvalues --   -0.54217  -0.53929  -0.53592  -0.53462  -0.52920
 Alpha  occ. eigenvalues --   -0.52608  -0.52067  -0.51590  -0.51509  -0.50715
 Alpha  occ. eigenvalues --   -0.49683  -0.49634  -0.49037  -0.48766  -0.48651
 Alpha  occ. eigenvalues --   -0.48044  -0.47699  -0.47467  -0.47408  -0.46728
 Alpha  occ. eigenvalues --   -0.46511  -0.46300  -0.46200  -0.46027  -0.45739
 Alpha  occ. eigenvalues --   -0.45348  -0.45130  -0.45053  -0.44846  -0.44705
 Alpha  occ. eigenvalues --   -0.44685  -0.44510  -0.44246  -0.43976  -0.43704
 Alpha  occ. eigenvalues --   -0.43510  -0.43253  -0.43215  -0.43018  -0.42741
 Alpha  occ. eigenvalues --   -0.42573  -0.42457  -0.42340  -0.42241  -0.41932
 Alpha  occ. eigenvalues --   -0.41606  -0.41344  -0.41231  -0.41015  -0.40789
 Alpha  occ. eigenvalues --   -0.40431  -0.40266  -0.40071  -0.39727  -0.39479
 Alpha  occ. eigenvalues --   -0.39158  -0.38947  -0.38695  -0.38663  -0.38421
 Alpha  occ. eigenvalues --   -0.38119  -0.38058  -0.37884  -0.37869  -0.37592
 Alpha  occ. eigenvalues --   -0.37167  -0.37067  -0.37012  -0.36873  -0.36670
 Alpha  occ. eigenvalues --   -0.36501  -0.36157  -0.35956  -0.35777  -0.35591
 Alpha  occ. eigenvalues --   -0.35220  -0.35075  -0.34973  -0.34765  -0.34620
 Alpha  occ. eigenvalues --   -0.34248  -0.34152  -0.34028  -0.33793  -0.33682
 Alpha  occ. eigenvalues --   -0.33589  -0.33294  -0.33091  -0.33034  -0.32669
 Alpha  occ. eigenvalues --   -0.32493  -0.32138  -0.31620  -0.31187  -0.31066
 Alpha  occ. eigenvalues --   -0.30946  -0.30412  -0.30288  -0.30221  -0.30050
 Alpha  occ. eigenvalues --   -0.29556  -0.28576  -0.28421  -0.27924  -0.27468
 Alpha  occ. eigenvalues --   -0.27277  -0.26896  -0.26575  -0.25419  -0.25302
 Alpha  occ. eigenvalues --   -0.24802  -0.24373  -0.24295  -0.21727  -0.20362
 Alpha  occ. eigenvalues --   -0.19232
 Alpha virt. eigenvalues --   -0.10311  -0.07807  -0.04283  -0.02654  -0.02530
 Alpha virt. eigenvalues --   -0.01001   0.00109   0.01362   0.02498   0.02885
 Alpha virt. eigenvalues --    0.02939   0.03372   0.03494   0.03763   0.04108

 Mulliken charges:
               1
     1  C   -0.030879
     2  C   -0.114494
     3  C   -0.019752
     4  C   -0.100697
     5  N   -0.114961
     6  C   -0.032110
     7  C   -0.050965
     8  C   -0.065188
     9  C   -0.108519
    10  C    0.084227
    11  C    0.080039
    12  C    0.070108
    13  C    0.152665
    14  O   -0.229264
    15  O   -0.338340
    16  N    0.015906
    17  C    0.130829
    18  C   -0.227384
    19  C    0.070136
    20  C    0.020650
    21  C    0.345289
    22  C   -0.086743
    23  C   -0.004294
    24  N   -0.277424
    25  C    0.084869
    26  C   -0.197717
    27  C   -0.097479
    28  C    0.076219
    29  C    0.085362
    30  C    0.065817
    31  C    0.005721
    32  N   -0.089553
    33  C    0.035260
    34  C   -0.166151
    35  C   -0.010541
    36  C    0.096171
    37  C    0.134455
    38  C    0.037471
    39  O   -0.175840
    40  C    0.075758
    41  C    0.206666
    42  O   -0.238759
    43  O   -0.282086
    44  C    0.004435
    45  C    0.198572
    46  C   -0.053503
    47  C   -0.082326
    48  C   -0.020895
    49  C    0.001321
    50  C   -0.065129
    51  C   -0.045024
    52  C   -0.061796
    53  C    0.099451
    54  C    0.001744
    55  C    0.013028
    56  C    0.021794
    57  C   -0.079568
    58  C    0.092912
    59  C    0.005246
    60  C   -0.014052
    61  C    0.035701
    62  C   -0.132029
    63  C    0.005148
    64  C   -0.037676
    65  H    0.027522
    66  H   -0.081325
    67  H    0.052352
    68  H    0.007031
    69  H    0.011477
    70  H    0.041238
    71  H   -0.004437
    72  H    0.012654
    73  H   -0.020306
    74  H   -0.019913
    75  H    0.036424
    76  H    0.028469
    77  H   -0.042484
    78  H   -0.060944
    79  H    0.036529
    80  H    0.005353
    81  H    0.022551
    82  H    0.012118
    83  H    0.029743
    84  H    0.052549
    85  H    0.013578
    86  H   -0.005169
    87  H    0.005060
    88  H    0.013368
    89  H    0.021496
    90  H    0.025987
    91  H    0.049860
    92  H   -0.006766
    93  H    0.021946
    94  H    0.051125
    95  H    0.062381
    96  H    0.091773
    97  H    0.074124
    98  H    0.052100
    99  H    0.024757
   100  H   -0.000721
   101  H    0.043841
   102  H    0.070916
   103  H    0.028566
   104  H    0.018289
   105  H    0.018775
   106  H    0.048929
   107  H    0.024384
   108  H    0.013494
   109  H    0.010420
   110  H   -0.003976
   111  H   -0.044676
   112  H   -0.010178
   113  H   -0.007350
   114  H    0.001212
   115  H   -0.019509
   116  H    0.004020
   117  H    0.004904
   118  H   -0.000877
   119  H   -0.021578
   120  H    0.005267
   121  H    0.013049
   122  H    0.009627
   123  H    0.010798
   124  H   -0.003771
   125  H   -0.015097
   126  H    0.006675
   127  H   -0.000400
   128  H   -0.006750
   129  H    0.007679
   130  H   -0.000940
   131  H    0.006986
   132  H    0.006513
   133  H    0.032990
   134  H    0.033076
   135  H    0.034008
   136  H    0.014895
   137  H    0.134878
   138  H    0.187584
 Sum of Mulliken charges =   0.00000

 Dipole moment (field-independent basis, Debye):
    X=              2.4890    Y=              5.0632    Z=             -0.3787  Tot=              5.6546
 Quadrupole moment (field-independent basis, Debye-Ang):
   XX=           -359.9719   YY=           -383.0086   ZZ=           -399.6994
   XY=            -28.0601   XZ=              9.0557   YZ=              2.4033

 Normal termination of Gaussian 09 at Thu Aug  1 20:59:50 2019.
