 Gaussian 09, Revision D.01,
 Gaussian 09:  ES64L-G09RevD.01 24-Apr-2013

 --------------------------
 # td=(NStates=1) B3LYP/SVP
 --------------------------

 --
 TD
 --
 Symbolic Z-matrix:
 Charge =  0 Multiplicity = 1

                         Standard orientation:
 ---------------------------------------------------------------------
 Center     Atomic      Atomic             Coordinates (Angstroms)
 Number     Number       Type             X           Y           Z
 ---------------------------------------------------------------------
      1          6           0       -5.160922   -1.942310    0.517794
      2          6           0       -4.661104    2.663404    1.518935
      3          6           0       -9.377817    3.281971   -0.064276
      4          6           0       -9.907670   -1.346797   -0.868512
      5          7           0       -5.089048    0.417487    0.855346
      6          6           0       -4.543644   -0.809268    0.818602
      7          6           0       -3.024759   -0.676053    1.267439
      8          6           0       -2.981414    0.816257    1.746963
      9          6           0       -4.298059    1.371694    1.337736
     10          6           0       -2.773987    0.887719    3.270984
     11          6           0       -2.133086   -0.906494    0.033704
     12          6           0       -0.657103   -0.779302    0.482094
     13          6           0        0.404710   -1.015573   -0.728797
     14          8           0        0.042996   -1.389738   -1.792887
     15          8           0        1.605851   -0.778533   -0.270571
     16          7           0       -7.028575    2.665255    0.602860
     17          6           0       -5.922187    3.309620    1.042803
     18          6           0       -6.218301    4.602424    1.108610
     19          6           0       -7.438652    4.878776    0.529835
     20          6           0       -8.033677    3.611715    0.383130
     21          6           0       -5.183036    5.738810    1.410268
     22          6           0       -8.028846    6.228232    0.383638
     23          6           0       -9.005856    6.577992   -0.583480
     24          7           0       -9.256589    0.864641   -0.326160
     25          6           0       -9.947017    2.099849   -0.426940
     26          6           0      -11.268929    1.908760   -0.937724
     27          6           0      -11.460100    0.603709   -1.165251
     28          6           0      -10.107773   -0.035374   -0.751547
     29          6           0      -12.281178    3.111077   -1.196684
     30          6           0      -12.644881   -0.089072   -1.630425
     31          6           0      -12.747538   -0.185996   -3.233591
     32          7           0       -7.561908   -1.251978   -0.093602
     33          6           0       -8.676257   -1.915419   -0.574960
     34          6           0       -8.228584   -3.286909   -0.679568
     35          6           0       -6.846940   -3.330489   -0.267757
     36          6           0       -6.509503   -1.978810    0.075834
     37          6           0       -9.023759   -4.574553   -1.002535
     38          6           0       -5.785471   -4.178423    0.015616
     39          8           0       -5.773693   -5.469194   -0.092114
     40          6           0       -4.650530   -3.346347    0.464969
     41          6           0       -3.962037   -3.817382    1.799707
     42          8           0       -4.110551   -3.292990    2.844917
     43          8           0       -3.226929   -4.858518    1.586192
     44          6           0       -2.859722   -5.724233    2.662016
     45          6           0        2.725368   -1.134177   -1.259439
     46          6           0        4.031459   -0.751876   -0.557910
     47          6           0        4.978061    0.056920   -1.021676
     48          6           0        4.821885    0.771718   -2.390141
     49          6           0        6.227812    0.200193   -0.416700
     50          6           0        7.438033   -0.374025   -1.115428
     51          6           0        8.811610   -0.169744   -0.335410
     52          6           0       10.080329   -0.666424   -1.109799
     53          6           0       10.119225   -2.144706   -1.273275
     54          6           0       11.391574   -0.208775   -0.235292
     55          6           0       12.742789   -0.577214   -0.764886
     56          6           0       13.784867   -0.058778    0.249583
     57          6           0       15.295039   -0.223847   -0.339449
     58          6           0       15.683583   -1.630142   -0.559191
     59          6           0       16.354181    0.587340    0.570337
     60          6           0       17.737452    0.773555   -0.125801
     61          6           0       18.688037    1.489989    0.790618
     62          6           0       20.141725    1.642449    0.325723
     63          6           0       20.264276    2.243649   -1.091017
     64          6           0       20.987901    2.373301    1.448402
     65          1           0       -3.908573    3.414879    1.895440
     66          1           0      -10.192468    3.943768   -0.184478
     67          1           0      -10.767692   -2.035060   -1.155473
     68          1           0       -3.012461   -1.472528    2.040767
     69          1           0       -1.999019    1.494780    1.486675
     70          1           0       -1.739773    0.284773    3.361508
     71          1           0       -2.478769    1.845989    3.555797
     72          1           0       -3.755787    0.510764    3.833269
     73          1           0       -2.305905   -2.059735   -0.424227
     74          1           0       -2.222046   -0.268452   -0.907905
     75          1           0       -0.233226    0.330975    0.626594
     76          1           0       -0.394414   -1.481583    1.394805
     77          1           0       -4.210708    5.552349    0.860147
     78          1           0       -5.387992    6.883162    1.007791
     79          1           0       -4.801289    5.499358    2.379725
     80          1           0       -7.712921    7.098490    1.069862
     81          1           0       -9.592543    5.804879   -1.147203
     82          1           0       -9.151286    7.632956   -0.536098
     83          1           0      -12.272816    4.121135   -0.486225
     84          1           0      -12.065290    3.534193   -2.362205
     85          1           0      -13.306797    2.697615   -1.088778
     86          1           0      -12.810941   -1.109046   -1.090089
     87          1           0      -13.553991    0.509845   -1.120214
     88          1           0      -12.749483    0.772033   -3.525850
     89          1           0      -12.007502   -0.705028   -3.515292
     90          1           0      -13.541346   -0.818695   -3.535529
     91          1           0       -9.765497   -4.886350   -0.107453
     92          1           0       -9.561081   -4.477177   -2.034897
     93          1           0       -8.317357   -5.369276   -1.044736
     94          1           0       -3.800151   -3.535198   -0.204690
     95          1           0       -2.595101   -6.835620    2.204170
     96          1           0       -2.011246   -5.263436    3.267068
     97          1           0       -3.810615   -5.818655    3.387423
     98          1           0        2.678432   -2.262857   -1.321851
     99          1           0        2.428144   -0.517012   -2.054559
    100          1           0        4.166727   -1.338603    0.320122
    101          1           0        5.245944    1.841046   -2.366106
    102          1           0        5.353661    0.335694   -3.289880
    103          1           0        3.670099    1.126802   -2.819157
    104          1           0        6.272397    1.333116   -0.139957
    105          1           0        6.181018   -0.240854    0.571729
    106          1           0        7.128301   -1.500654   -1.267775
    107          1           0        7.543730    0.345453   -2.029888
    108          1           0        8.822176    1.197465   -0.230138
    109          1           0        8.894414   -0.516326    0.718389
    110          1           0       10.252459    0.065402   -2.027718
    111          1           0        9.476528   -2.407537   -2.238390
    112          1           0       11.216895   -2.361765   -1.564186
    113          1           0        9.575246   -2.881114   -0.447588
    114          1           0       11.327113    0.818587   -0.002360
    115          1           0       11.256398   -0.593999    0.792163
    116          1           0       12.837439   -1.705054   -0.809333
    117          1           0       12.778466   -0.204674   -1.892038
    118          1           0       13.475864    0.966756    0.477945
    119          1           0       13.844254   -0.690330    1.138795
    120          1           0       15.238277    0.240397   -1.469801
    121          1           0       15.081406   -2.098709   -1.397118
    122          1           0       16.763041   -1.988992   -0.855399
    123          1           0       15.615482   -2.366485    0.391649
    124          1           0       15.812981    1.612929    0.915906
    125          1           0       16.402275   -0.003510    1.546509
    126          1           0       18.191826   -0.156568   -0.395249
    127          1           0       17.717303    1.282132   -1.207473
    128          1           0       18.347262    2.528328    0.793302
    129          1           0       18.659475    1.221437    1.796070
    130          1           0       20.697381    0.681986    0.287640
    131          1           0       19.548649    3.169564   -1.192910
    132          1           0       21.339778    2.545032   -1.353273
    133          1           0       19.857379    1.715123   -1.885892
    134          1           0       20.707498    1.731305    2.354376
    135          1           0       21.993687    1.979860    1.425913
    136          1           0       20.892270    3.541155    1.442947
    137          1           0       -7.354895    1.595237    0.781332
    138          1           0       -7.806713   -0.107597   -0.157157
 ---------------------------------------------------------------------

 SCF Done:  E(RB3LYP) =  -2733.02647811     A.U. after   17 cycles

 Excitation energies and oscillator strengths:

 Excited State   1:      Singlet-A      2.0409 eV  607.49 nm  f=0.2215  <S**2>=0.000
     235 -> 237       -0.31009
     235 -> 238       -0.18949
     236 -> 237        0.58358
     236 -> 238       -0.14728
 This state for optimization and/or second-order correction.
 Total Energy, E(TD-HF/TD-KS) =  -2732.95147518
 Copying the excited state density for this state as the 1-particle RhoCI density.

 The electronic state is 1-A.
 Alpha  occ. eigenvalues --  -19.18250 -19.17188 -19.12323 -19.11433 -19.10183
 Alpha  occ. eigenvalues --  -14.36986 -14.36677 -14.31209 -14.30613 -10.31572
 Alpha  occ. eigenvalues --  -10.30177 -10.27294 -10.26134 -10.25443 -10.23620
 Alpha  occ. eigenvalues --  -10.23229 -10.23005 -10.22922 -10.22765 -10.21747
 Alpha  occ. eigenvalues --  -10.21678 -10.21659 -10.21644 -10.21555 -10.21516
 Alpha  occ. eigenvalues --  -10.21484 -10.21453 -10.21309 -10.21142 -10.20782
 Alpha  occ. eigenvalues --  -10.20751 -10.20673 -10.20667 -10.20631 -10.20524
 Alpha  occ. eigenvalues --  -10.20470 -10.20398 -10.20228 -10.20106 -10.20052
 Alpha  occ. eigenvalues --  -10.20001 -10.19859 -10.19810 -10.19675 -10.19662
 Alpha  occ. eigenvalues --  -10.19576 -10.19556 -10.19519 -10.19467 -10.19328
 Alpha  occ. eigenvalues --  -10.19149 -10.19129 -10.19116 -10.19083 -10.19055
 Alpha  occ. eigenvalues --  -10.19005 -10.18783 -10.18758 -10.18744 -10.18129
 Alpha  occ. eigenvalues --  -10.18036 -10.17651 -10.16854 -10.16850  -1.11900
 Alpha  occ. eigenvalues --   -1.09022  -1.02381  -1.00815  -0.99342  -0.98275
 Alpha  occ. eigenvalues --   -0.97019  -0.94666  -0.93966  -0.85866  -0.84164
 Alpha  occ. eigenvalues --   -0.81373  -0.81367  -0.80739  -0.80607  -0.80471
 Alpha  occ. eigenvalues --   -0.79470  -0.79139  -0.78874  -0.78713  -0.77105
 Alpha  occ. eigenvalues --   -0.76608  -0.75834  -0.75214  -0.74265  -0.74121
 Alpha  occ. eigenvalues --   -0.73688  -0.72916  -0.72515  -0.71507  -0.70131
 Alpha  occ. eigenvalues --   -0.69605  -0.68479  -0.68188  -0.67637  -0.67590
 Alpha  occ. eigenvalues --   -0.67216  -0.66446  -0.66203  -0.65819  -0.65017
 Alpha  occ. eigenvalues --   -0.64541  -0.63016  -0.62368  -0.61477  -0.61159
 Alpha  occ. eigenvalues --   -0.59832  -0.58923  -0.58051  -0.57531  -0.56946
 Alpha  occ. eigenvalues --   -0.56332  -0.55765  -0.55193  -0.55092  -0.54635
 Alpha  occ. eigenvalues --   -0.54593  -0.53649  -0.53400  -0.53139  -0.53107
 Alpha  occ. eigenvalues --   -0.52751  -0.51815  -0.51250  -0.50733  -0.50298
 Alpha  occ. eigenvalues --   -0.50168  -0.49521  -0.49153  -0.48347  -0.47978
 Alpha  occ. eigenvalues --   -0.47935  -0.47269  -0.47151  -0.47007  -0.46678
 Alpha  occ. eigenvalues --   -0.46281  -0.46157  -0.45885  -0.45684  -0.45361
 Alpha  occ. eigenvalues --   -0.45197  -0.45093  -0.44950  -0.44577  -0.44544
 Alpha  occ. eigenvalues --   -0.44091  -0.44074  -0.43708  -0.43597  -0.43334
 Alpha  occ. eigenvalues --   -0.43080  -0.42951  -0.42668  -0.42064  -0.41877
 Alpha  occ. eigenvalues --   -0.41772  -0.41550  -0.41437  -0.41257  -0.41189
 Alpha  occ. eigenvalues --   -0.40923  -0.40619  -0.40046  -0.39967  -0.39735
 Alpha  occ. eigenvalues --   -0.39578  -0.39438  -0.39209  -0.39031  -0.38867
 Alpha  occ. eigenvalues --   -0.38782  -0.38605  -0.38364  -0.38156  -0.38092
 Alpha  occ. eigenvalues --   -0.37909  -0.37801  -0.37617  -0.37599  -0.37446
 Alpha  occ. eigenvalues --   -0.37117  -0.36917  -0.36821  -0.36739  -0.36422
 Alpha  occ. eigenvalues --   -0.36150  -0.35995  -0.35702  -0.35450  -0.35393
 Alpha  occ. eigenvalues --   -0.35343  -0.35207  -0.35106  -0.34992  -0.34732
 Alpha  occ. eigenvalues --   -0.34448  -0.34297  -0.34088  -0.33936  -0.33853
 Alpha  occ. eigenvalues --   -0.33539  -0.33170  -0.33010  -0.32721  -0.32086
 Alpha  occ. eigenvalues --   -0.32043  -0.31706  -0.31684  -0.31550  -0.31292
 Alpha  occ. eigenvalues --   -0.31232  -0.30998  -0.30382  -0.30241  -0.29869
 Alpha  occ. eigenvalues --   -0.29797  -0.29725  -0.28163  -0.27790  -0.27705
 Alpha  occ. eigenvalues --   -0.27342  -0.26746  -0.26682  -0.25323  -0.25203
 Alpha  occ. eigenvalues --   -0.24178  -0.23942  -0.23811  -0.23315  -0.19798
 Alpha  occ. eigenvalues --   -0.19183
 Alpha virt. eigenvalues --   -0.11154  -0.06906  -0.04102  -0.02193  -0.01150
 Alpha virt. eigenvalues --    0.00230   0.01319   0.02572   0.02655   0.03047
 Alpha virt. eigenvalues --    0.03490   0.04115   0.04357   0.04554   0.04914

 Mulliken charges:
               1
     1  C    0.048818
     2  C   -0.077431
     3  C   -0.015451
     4  C   -0.136994
     5  N   -0.141301
     6  C   -0.174373
     7  C    0.016171
     8  C   -0.108768
     9  C    0.067380
    10  C    0.025823
    11  C    0.016776
    12  C   -0.073075
    13  C    0.152001
    14  O   -0.219060
    15  O   -0.326839
    16  N   -0.099606
    17  C    0.079693
    18  C   -0.131826
    19  C    0.051507
    20  C    0.109073
    21  C    0.047008
    22  C   -0.113287
    23  C   -0.020646
    24  N   -0.271217
    25  C    0.001050
    26  C   -0.058402
    27  C   -0.071747
    28  C    0.100480
    29  C   -0.034014
    30  C   -0.082700
    31  C    0.195659
    32  N   -0.048647
    33  C    0.070102
    34  C   -0.137568
    35  C    0.018248
    36  C    0.075851
    37  C    0.056627
    38  C    0.037199
    39  O   -0.266032
    40  C    0.023371
    41  C    0.143814
    42  O   -0.192847
    43  O   -0.247177
    44  C    0.095123
    45  C    0.314222
    46  C   -0.102313
    47  C   -0.066823
    48  C   -0.059288
    49  C    0.076526
    50  C    0.025763
    51  C   -0.076077
    52  C   -0.053929
    53  C   -0.020448
    54  C    0.001530
    55  C    0.002042
    56  C    0.050408
    57  C   -0.088855
    58  C   -0.051225
    59  C   -0.001477
    60  C    0.047064
    61  C    0.077828
    62  C   -0.110012
    63  C    0.017061
    64  C    0.022332
    65  H   -0.019208
    66  H   -0.072736
    67  H    0.006805
    68  H    0.033183
    69  H    0.020661
    70  H    0.024198
    71  H   -0.008524
    72  H    0.049929
    73  H    0.034020
    74  H    0.029082
    75  H    0.043684
    76  H    0.048409
    77  H    0.015858
    78  H    0.056831
    79  H    0.011589
    80  H    0.033432
    81  H    0.042902
    82  H    0.018250
    83  H    0.061810
    84  H    0.060215
    85  H    0.029450
    86  H    0.017732
    87  H    0.020229
    88  H   -0.003954
    89  H   -0.051859
    90  H   -0.002701
    91  H    0.050277
    92  H    0.036016
    93  H    0.026447
    94  H    0.050426
    95  H    0.077824
    96  H    0.050994
    97  H    0.058504
    98  H    0.044711
    99  H    0.009356
   100  H   -0.021970
   101  H    0.016866
   102  H    0.051765
   103  H    0.041047
   104  H    0.012307
   105  H   -0.023966
   106  H    0.028863
   107  H    0.023561
   108  H    0.000824
   109  H    0.012561
   110  H    0.018317
   111  H    0.019882
   112  H    0.029626
   113  H    0.046739
   114  H   -0.031291
   115  H   -0.027130
   116  H    0.021063
   117  H    0.011802
   118  H    0.003397
   119  H    0.002698
   120  H    0.006673
   121  H    0.021882
   122  H    0.024015
   123  H    0.006593
   124  H    0.012757
   125  H    0.005607
   126  H   -0.018595
   127  H    0.009099
   128  H   -0.019993
   129  H   -0.033629
   130  H   -0.013193
   131  H   -0.001818
   132  H    0.019326
   133  H   -0.004701
   134  H   -0.000092
   135  H   -0.009372
   136  H    0.044269
   137  H    0.205604
   138  H    0.217666
 Sum of Mulliken charges =   0.00000

 Dipole moment (field-independent basis, Debye):
    X=              2.9872    Y=              2.9358    Z=              0.2449  Tot=              4.1955
 Quadrupole moment (field-independent basis, Debye-Ang):
   XX=           -325.1330   YY=           -387.6258   ZZ=           -397.7801
   XY=            -32.0498   XZ=             10.3599   YZ=             -6.9623

 Normal termination of Gaussian 09 at Sat Jul 27 06:13:28 2019.
