 Gaussian 09, Revision D.01,
 Gaussian 09:  ES64L-G09RevD.01 24-Apr-2013

 --------------------------
 # td=(NStates=1) B3LYP/SVP
 --------------------------

 --
 TD
 --
 Symbolic Z-matrix:
 Charge =  0 Multiplicity = 1

                         Standard orientation:
 ---------------------------------------------------------------------
 Center     Atomic      Atomic             Coordinates (Angstroms)
 Number     Number       Type             X           Y           Z
 ---------------------------------------------------------------------
      1          6           0       -5.148734   -1.919217    0.469408
      2          6           0       -4.597701    2.692278    1.295384
      3          6           0       -9.344464    3.399866   -0.224213
      4          6           0       -9.838502   -1.399482   -0.893585
      5          7           0       -5.080794    0.422314    0.773453
      6          6           0       -4.496510   -0.782884    0.814050
      7          6           0       -3.124174   -0.604025    1.346628
      8          6           0       -3.100531    0.741817    1.913975
      9          6           0       -4.337624    1.322263    1.310758
     10          6           0       -3.103406    0.725204    3.566649
     11          6           0       -2.074204   -0.840359    0.200092
     12          6           0       -0.633720   -0.879543    0.644284
     13          6           0        0.346592   -1.255693   -0.430696
     14          8           0        0.103515   -1.842231   -1.509850
     15          8           0        1.676260   -0.834144   -0.158857
     16          7           0       -6.983754    2.807502    0.412613
     17          6           0       -5.854597    3.411796    0.901574
     18          6           0       -6.054857    4.823514    0.961757
     19          6           0       -7.435456    4.970323    0.426762
     20          6           0       -8.014482    3.662619    0.298706
     21          6           0       -5.237023    5.915243    1.423422
     22          6           0       -8.041671    6.256995    0.211252
     23          6           0       -8.901103    6.560983   -0.799990
     24          7           0       -9.146020    0.880456   -0.446356
     25          6           0       -9.819001    2.088388   -0.398569
     26          6           0      -11.333474    1.991737   -0.681366
     27          6           0      -11.431293    0.575700   -0.939242
     28          6           0      -10.150403    0.025462   -0.836785
     29          6           0      -12.360596    3.050830   -0.774271
     30          6           0      -12.670863   -0.110896   -1.368603
     31          6           0      -12.920723   -0.342856   -2.978078
     32          7           0       -7.485466   -1.240692   -0.394168
     33          6           0       -8.616699   -1.968960   -0.634378
     34          6           0       -8.224004   -3.366188   -0.735641
     35          6           0       -6.893031   -3.419323   -0.268819
     36          6           0       -6.512621   -2.103616   -0.073652
     37          6           0       -9.102451   -4.591430   -1.113198
     38          6           0       -5.709012   -4.216902   -0.075085
     39          8           0       -5.637524   -5.473164   -0.226081
     40          6           0       -4.541745   -3.353968    0.411099
     41          6           0       -3.850669   -3.878638    1.592288
     42          8           0       -4.167127   -3.427487    2.696721
     43          8           0       -3.044005   -4.982640    1.424768
     44          6           0       -2.522345   -5.515257    2.543673
     45          6           0        2.627424   -1.058542   -1.136791
     46          6           0        4.024096   -0.584032   -0.632526
     47          6           0        4.986768    0.067677   -1.342272
     48          6           0        4.796240    0.389420   -2.788431
     49          6           0        6.282722    0.464641   -0.654729
     50          6           0        7.422952   -0.350406   -1.164487
     51          6           0        8.720545    0.229301   -0.323478
     52          6           0        9.961060   -0.622790   -0.969165
     53          6           0        9.995289   -2.175011   -0.739114
     54          6           0       11.184445   -0.161072   -0.047102
     55          6           0       12.635499   -0.536707   -0.421627
     56          6           0       13.732286    0.120626    0.311212
     57          6           0       15.211925   -0.179450   -0.362943
     58          6           0       15.564560   -1.699335   -0.335588
     59          6           0       16.253316    0.750788    0.292356
     60          6           0       17.788734    0.493392   -0.026324
     61          6           0       18.622154    1.601780    0.678421
     62          6           0       20.214012    1.533130    0.239979
     63          6           0       20.441063    2.002671   -1.291262
     64          6           0       21.013555    2.449014    1.230419
     65          1           0       -3.824318    3.493137    1.679392
     66          1           0      -10.249325    4.095012    0.023417
     67          1           0      -10.711583   -2.247937   -1.129272
     68          1           0       -2.986240   -1.335124    2.150292
     69          1           0       -2.087228    1.376136    1.807781
     70          1           0       -1.965213    0.718991    4.007560
     71          1           0       -3.575224    1.815620    3.831927
     72          1           0       -3.761375   -0.061985    4.130141
     73          1           0       -2.526336   -1.600899   -0.206905
     74          1           0       -2.137795    0.186007   -0.504547
     75          1           0       -0.189199   -0.063234    1.252771
     76          1           0       -0.608824   -1.665733    1.334030
     77          1           0       -4.308984    6.232272    0.595270
     78          1           0       -5.859102    6.810629    1.539526
     79          1           0       -4.606643    5.523725    2.296405
     80          1           0       -7.642217    7.021731    0.804438
     81          1           0       -9.407995    5.776998   -1.487184
     82          1           0       -9.299664    7.634077   -1.073940
     83          1           0      -12.648832    3.626763    0.260487
     84          1           0      -11.981476    4.050794   -1.294988
     85          1           0      -13.315262    2.630328   -1.362112
     86          1           0      -12.752953   -1.017448   -0.653546
     87          1           0      -13.641692    0.481741   -0.947335
     88          1           0      -12.953129    0.658691   -3.607698
     89          1           0      -12.058215   -0.900252   -3.329151
     90          1           0      -13.836901   -0.930050   -3.012069
     91          1           0      -10.004473   -4.670070   -0.329618
     92          1           0       -9.620239   -4.206772   -1.997469
     93          1           0       -8.520668   -5.614101   -1.197692
     94          1           0       -3.884182   -3.300195   -0.385410
     95          1           0       -2.041040   -6.487285    2.304432
     96          1           0       -1.915810   -4.767628    3.346333
     97          1           0       -3.363278   -6.005216    3.275052
     98          1           0        2.845131   -2.185223   -1.249260
     99          1           0        2.213379   -0.407891   -1.973304
    100          1           0        4.290590   -0.832413    0.378571
    101          1           0        5.150530    1.424587   -2.868778
    102          1           0        5.510945   -0.274371   -3.369848
    103          1           0        3.829044    0.194686   -3.123748
    104          1           0        6.487863    1.576621   -0.666288
    105          1           0        6.273165    0.355537    0.386270
    106          1           0        7.340047   -1.546353   -0.971934
    107          1           0        7.719486   -0.061268   -2.293784
    108          1           0        8.783079    1.443274   -0.647808
    109          1           0        8.670626    0.316975    0.831923
    110          1           0       10.251583   -0.229042   -1.968983
    111          1           0        8.999017   -2.609689   -1.016780
    112          1           0       10.842066   -2.608549   -1.182703
    113          1           0       10.099625   -2.182631    0.472153
    114          1           0       11.152133    0.918699    0.064837
    115          1           0       11.087857   -0.476545    1.073426
    116          1           0       12.781482   -1.466597   -0.424440
    117          1           0       12.906568   -0.234530   -1.628189
    118          1           0       13.606096    1.004304    0.402954
    119          1           0       13.766608   -0.216220    1.322396
    120          1           0       15.179900   -0.015582   -1.532178
    121          1           0       14.717716   -2.260772   -0.930734
    122          1           0       16.592514   -1.921988   -0.849039
    123          1           0       15.668721   -2.262234    0.623124
    124          1           0       16.040756    1.913782    0.144686
    125          1           0       16.318091    0.692978    1.520317
    126          1           0       18.135944   -0.617972    0.456282
    127          1           0       17.817697    0.539123   -1.200183
    128          1           0       18.326977    2.671802    0.487526
    129          1           0       18.532246    1.542550    1.661176
    130          1           0       20.683420    0.504177    0.415229
    131          1           0       20.001447    3.096147   -1.283057
    132          1           0       21.542572    1.995570   -1.614592
    133          1           0       19.811438    1.355157   -2.086901
    134          1           0       20.727015    2.175719    2.377610
    135          1           0       22.038490    2.321531    1.055839
    136          1           0       20.866499    3.611145    1.240033
    137          1           0       -7.107763    1.674150    0.072851
    138          1           0       -7.757200   -0.192375   -0.190218
 ---------------------------------------------------------------------

 SCF Done:  E(RB3LYP) =  -2732.96627698     A.U. after   17 cycles

 Excitation energies and oscillator strengths:

 Excited State   1:      Singlet-A      1.9712 eV  628.97 nm  f=0.1611  <S**2>=0.000
     235 -> 237       -0.29372
     235 -> 238        0.21935
     236 -> 237        0.56465
     236 -> 238        0.19948
 This state for optimization and/or second-order correction.
 Total Energy, E(TD-HF/TD-KS) =  -2732.89383576
 Copying the excited state density for this state as the 1-particle RhoCI density.

 The electronic state is 1-A.
 Alpha  occ. eigenvalues --  -19.19546 -19.16912 -19.13334 -19.12822 -19.12039
 Alpha  occ. eigenvalues --  -14.37941 -14.36965 -14.32002 -14.31695 -10.32807
 Alpha  occ. eigenvalues --  -10.32359 -10.28451 -10.26169 -10.25004 -10.24689
 Alpha  occ. eigenvalues --  -10.24301 -10.23935 -10.23569 -10.22761 -10.22690
 Alpha  occ. eigenvalues --  -10.22666 -10.22660 -10.22583 -10.22540 -10.22108
 Alpha  occ. eigenvalues --  -10.21935 -10.21819 -10.21815 -10.21745 -10.21392
 Alpha  occ. eigenvalues --  -10.21361 -10.21264 -10.21260 -10.21185 -10.21035
 Alpha  occ. eigenvalues --  -10.21019 -10.21018 -10.20898 -10.20655 -10.20630
 Alpha  occ. eigenvalues --  -10.20625 -10.20613 -10.20571 -10.20565 -10.20492
 Alpha  occ. eigenvalues --  -10.20362 -10.20318 -10.20297 -10.20255 -10.20111
 Alpha  occ. eigenvalues --  -10.19454 -10.19399 -10.19333 -10.19247 -10.19117
 Alpha  occ. eigenvalues --  -10.19030 -10.18843 -10.18346 -10.18240 -10.18184
 Alpha  occ. eigenvalues --  -10.18088 -10.17762 -10.17201 -10.15866  -1.11064
 Alpha  occ. eigenvalues --   -1.07641  -1.01599  -1.00389  -0.99340  -0.99152
 Alpha  occ. eigenvalues --   -0.98254  -0.97293  -0.93845  -0.85855  -0.82492
 Alpha  occ. eigenvalues --   -0.81719  -0.81388  -0.80853  -0.80642  -0.80119
 Alpha  occ. eigenvalues --   -0.79328  -0.79000  -0.78859  -0.77913  -0.77626
 Alpha  occ. eigenvalues --   -0.77292  -0.76186  -0.75439  -0.74097  -0.73815
 Alpha  occ. eigenvalues --   -0.73548  -0.72397  -0.71972  -0.71204  -0.70138
 Alpha  occ. eigenvalues --   -0.69910  -0.69373  -0.68843  -0.67747  -0.66969
 Alpha  occ. eigenvalues --   -0.66511  -0.66377  -0.65542  -0.65499  -0.64753
 Alpha  occ. eigenvalues --   -0.63503  -0.63393  -0.62780  -0.62003  -0.61331
 Alpha  occ. eigenvalues --   -0.60751  -0.58541  -0.58140  -0.57648  -0.57197
 Alpha  occ. eigenvalues --   -0.56904  -0.56171  -0.55425  -0.55147  -0.54900
 Alpha  occ. eigenvalues --   -0.54677  -0.54661  -0.53644  -0.53306  -0.52970
 Alpha  occ. eigenvalues --   -0.52575  -0.52405  -0.51904  -0.51705  -0.51006
 Alpha  occ. eigenvalues --   -0.50081  -0.49595  -0.49308  -0.49247  -0.48759
 Alpha  occ. eigenvalues --   -0.48201  -0.47451  -0.47185  -0.47046  -0.46560
 Alpha  occ. eigenvalues --   -0.46406  -0.46131  -0.45967  -0.45672  -0.45466
 Alpha  occ. eigenvalues --   -0.45207  -0.45186  -0.44502  -0.44331  -0.44203
 Alpha  occ. eigenvalues --   -0.44148  -0.43984  -0.43659  -0.43461  -0.43245
 Alpha  occ. eigenvalues --   -0.42564  -0.42366  -0.42288  -0.42226  -0.42097
 Alpha  occ. eigenvalues --   -0.41974  -0.41780  -0.41578  -0.41409  -0.41309
 Alpha  occ. eigenvalues --   -0.40940  -0.40844  -0.40662  -0.40260  -0.40106
 Alpha  occ. eigenvalues --   -0.40029  -0.39392  -0.39371  -0.39229  -0.39179
 Alpha  occ. eigenvalues --   -0.39035  -0.38804  -0.38567  -0.38488  -0.38338
 Alpha  occ. eigenvalues --   -0.38112  -0.37890  -0.37843  -0.37788  -0.37534
 Alpha  occ. eigenvalues --   -0.37413  -0.37176  -0.37092  -0.36774  -0.36661
 Alpha  occ. eigenvalues --   -0.36587  -0.36216  -0.36079  -0.35891  -0.35825
 Alpha  occ. eigenvalues --   -0.35525  -0.35217  -0.34861  -0.34819  -0.34656
 Alpha  occ. eigenvalues --   -0.34514  -0.34381  -0.34126  -0.33825  -0.33123
 Alpha  occ. eigenvalues --   -0.33017  -0.32890  -0.32657  -0.32590  -0.32562
 Alpha  occ. eigenvalues --   -0.32397  -0.32250  -0.31697  -0.31322  -0.31295
 Alpha  occ. eigenvalues --   -0.31046  -0.30516  -0.30468  -0.29798  -0.29760
 Alpha  occ. eigenvalues --   -0.29723  -0.28964  -0.28936  -0.28487  -0.27973
 Alpha  occ. eigenvalues --   -0.27836  -0.27283  -0.27112  -0.26606  -0.26432
 Alpha  occ. eigenvalues --   -0.25354  -0.23299  -0.23046  -0.22905  -0.20377
 Alpha  occ. eigenvalues --   -0.19175
 Alpha virt. eigenvalues --   -0.11315  -0.08579  -0.05050  -0.02593  -0.02197
 Alpha virt. eigenvalues --   -0.01465  -0.00631   0.01479   0.01930   0.02961
 Alpha virt. eigenvalues --    0.03367   0.03872   0.04034   0.04194   0.04232

 Mulliken charges:
               1
     1  C    0.051847
     2  C   -0.086573
     3  C   -0.093309
     4  C   -0.133041
     5  N   -0.100459
     6  C   -0.153015
     7  C    0.011132
     8  C   -0.112943
     9  C    0.042250
    10  C   -0.070691
    11  C    0.122079
    12  C    0.137750
    13  C    0.184500
    14  O   -0.256245
    15  O   -0.341291
    16  N   -0.131949
    17  C    0.058748
    18  C   -0.107087
    19  C    0.004390
    20  C    0.082046
    21  C    0.025938
    22  C   -0.009833
    23  C   -0.095642
    24  N   -0.304661
    25  C    0.059215
    26  C   -0.078132
    27  C   -0.088614
    28  C    0.103298
    29  C   -0.044354
    30  C   -0.044322
    31  C    0.012132
    32  N   -0.040972
    33  C    0.037778
    34  C   -0.150267
    35  C    0.055094
    36  C    0.035138
    37  C    0.045248
    38  C    0.020225
    39  O   -0.221021
    40  C    0.082511
    41  C    0.215598
    42  O   -0.240261
    43  O   -0.240307
    44  C    0.093772
    45  C    0.265427
    46  C   -0.108555
    47  C   -0.171461
    48  C    0.137247
    49  C    0.127465
    50  C   -0.064870
    51  C   -0.087991
    52  C   -0.055529
    53  C    0.043364
    54  C   -0.019747
    55  C    0.090192
    56  C    0.208183
    57  C   -0.074644
    58  C   -0.050074
    59  C   -0.054846
    60  C   -0.031475
    61  C    0.079310
    62  C   -0.097120
    63  C   -0.054136
    64  C   -0.019011
    65  H    0.003877
    66  H    0.036866
    67  H    0.029996
    68  H    0.011939
    69  H    0.024190
    70  H    0.038803
    71  H    0.025939
    72  H    0.060450
    73  H   -0.063579
    74  H    0.029481
    75  H    0.030611
    76  H    0.003585
    77  H    0.042835
    78  H    0.027188
    79  H    0.042127
    80  H   -0.027301
    81  H    0.051559
    82  H    0.042055
    83  H    0.048399
    84  H    0.041520
    85  H    0.057373
    86  H    0.020532
    87  H    0.011658
    88  H    0.041155
    89  H    0.017739
    90  H    0.029083
    91  H    0.047940
    92  H    0.027012
    93  H    0.081162
    94  H    0.037429
    95  H    0.037200
    96  H    0.050424
    97  H    0.023863
    98  H    0.037875
    99  H    0.033862
   100  H   -0.026488
   101  H    0.011369
   102  H    0.026121
   103  H   -0.011364
   104  H   -0.001376
   105  H   -0.038850
   106  H    0.047929
   107  H    0.031233
   108  H    0.018553
   109  H    0.028389
   110  H    0.011963
   111  H    0.014768
   112  H    0.021676
   113  H    0.022013
   114  H   -0.026655
   115  H   -0.003617
   116  H   -0.079713
   117  H   -0.018587
   118  H   -0.118936
   119  H   -0.028895
   120  H    0.013841
   121  H    0.025120
   122  H    0.026384
   123  H    0.013194
   124  H    0.016957
   125  H    0.002907
   126  H    0.034520
   127  H    0.023328
   128  H   -0.004433
   129  H   -0.049520
   130  H    0.011246
   131  H    0.025659
   132  H    0.031676
   133  H    0.036543
   134  H    0.019650
   135  H   -0.001295
   136  H    0.014508
   137  H    0.237573
   138  H    0.190329
 Sum of Mulliken charges =   0.00000

 Dipole moment (field-independent basis, Debye):
    X=             -0.1578    Y=              4.4553    Z=              1.1032  Tot=              4.5926
 Quadrupole moment (field-independent basis, Debye-Ang):
   XX=           -339.3874   YY=           -390.6610   ZZ=           -399.1742
   XY=            -22.2415   XZ=             14.1719   YZ=             -1.5807

 Normal termination of Gaussian 09 at Fri Jul 26 12:34:24 2019.
