 Gaussian 09, Revision D.01,
 Gaussian 09:  ES64L-G09RevD.01 24-Apr-2013

 --------------------------
 # td=(NStates=1) B3LYP/SVP
 --------------------------

 --
 TD
 --
 Symbolic Z-matrix:
 Charge =  0 Multiplicity = 1

                         Standard orientation:
 ---------------------------------------------------------------------
 Center     Atomic      Atomic             Coordinates (Angstroms)
 Number     Number       Type             X           Y           Z
 ---------------------------------------------------------------------
      1          6           0       -5.039468   -1.914297    0.369178
      2          6           0       -4.769464    2.778619    1.394533
      3          6           0       -9.312909    3.225411   -0.261394
      4          6           0       -9.822430   -1.521918   -1.025136
      5          7           0       -5.250710    0.457908    0.820075
      6          6           0       -4.521341   -0.708423    0.765994
      7          6           0       -3.091637   -0.476260    1.300284
      8          6           0       -3.110438    0.925022    1.828729
      9          6           0       -4.474582    1.492313    1.314890
     10          6           0       -3.006233    0.956786    3.448791
     11          6           0       -2.085369   -0.784211    0.049784
     12          6           0       -0.784696   -0.696388    0.479065
     13          6           0        0.333696   -0.994995   -0.782769
     14          8           0       -0.001123   -1.269535   -1.884872
     15          8           0        1.530263   -0.704993   -0.361661
     16          7           0       -7.034540    2.729960    0.433378
     17          6           0       -5.925408    3.377127    0.951639
     18          6           0       -6.261035    4.802363    1.012964
     19          6           0       -7.585769    4.919899    0.526268
     20          6           0       -8.037612    3.612711    0.185434
     21          6           0       -5.426448    5.874426    1.579780
     22          6           0       -8.361983    6.251032    0.361808
     23          6           0       -9.086718    6.586573   -0.643668
     24          7           0       -9.177684    0.853927   -0.497106
     25          6           0       -9.858325    2.006597   -0.488241
     26          6           0      -11.259245    1.824751   -0.994995
     27          6           0      -11.453901    0.562686   -1.200227
     28          6           0      -10.183572   -0.069823   -0.984706
     29          6           0      -12.256418    2.922180   -1.408969
     30          6           0      -12.659097   -0.283757   -1.591349
     31          6           0      -12.473786   -0.721608   -3.133301
     32          7           0       -7.494636   -1.283546   -0.222005
     33          6           0       -8.645966   -2.084147   -0.579718
     34          6           0       -8.151983   -3.535089   -0.486593
     35          6           0       -6.785993   -3.439707   -0.089548
     36          6           0       -6.383707   -2.021915    0.111433
     37          6           0       -9.000016   -4.592495   -0.784093
     38          6           0       -5.662877   -4.259771    0.187947
     39          8           0       -5.581533   -5.452230    0.026305
     40          6           0       -4.461250   -3.277219    0.533582
     41          6           0       -3.928120   -3.704424    1.861295
     42          8           0       -4.089849   -3.174401    3.030031
     43          8           0       -3.158494   -4.808848    1.657727
     44          6           0       -2.694571   -5.374507    2.912694
     45          6           0        2.650936   -0.908654   -1.191217
     46          6           0        3.978271   -0.612710   -0.409980
     47          6           0        5.019535    0.005296   -1.070256
     48          6           0        5.191118    0.638905   -2.482714
     49          6           0        6.329546    0.179244   -0.316917
     50          6           0        7.548320   -0.522368   -0.950835
     51          6           0        8.841986   -0.261768   -0.318931
     52          6           0       10.141593   -0.809778   -0.932275
     53          6           0       10.083988   -2.315275   -1.334001
     54          6           0       11.327641   -0.461426   -0.038799
     55          6           0       12.686288   -0.588782   -0.716493
     56          6           0       13.934047   -0.127329    0.166377
     57          6           0       15.272982   -0.179328   -0.523546
     58          6           0       15.630747   -1.624058   -1.056088
     59          6           0       16.296482    0.494867    0.443776
     60          6           0       17.646491    0.736332   -0.110706
     61          6           0       18.561970    1.471817    0.835283
     62          6           0       20.099386    1.732982    0.367005
     63          6           0       20.194263    2.426834   -1.001499
     64          6           0       20.865278    2.511014    1.503394
     65          1           0       -3.933268    3.304652    1.857595
     66          1           0       -9.849748    4.213992   -0.339197
     67          1           0      -10.574891   -2.256372   -1.198350
     68          1           0       -2.963216   -1.220149    2.195186
     69          1           0       -2.320583    1.432036    1.277562
     70          1           0       -2.084901    0.422677    3.858258
     71          1           0       -3.171237    2.076040    3.785368
     72          1           0       -4.062820    0.658159    3.878333
     73          1           0       -2.449174   -1.722889   -0.433972
     74          1           0       -2.334800    0.039274   -0.789028
     75          1           0       -0.522828    0.363376    0.914039
     76          1           0       -0.616508   -1.440190    1.148581
     77          1           0       -4.536436    6.097596    0.917338
     78          1           0       -6.000418    6.862283    1.789058
     79          1           0       -5.141286    5.756138    2.620330
     80          1           0       -8.220813    6.751955    1.125761
     81          1           0       -9.151919    6.138827   -1.787901
     82          1           0       -9.456785    7.746371   -0.803699
     83          1           0      -12.356677    3.263157   -0.316774
     84          1           0      -11.738148    3.728498   -2.221505
     85          1           0      -13.160224    2.456651   -1.688279
     86          1           0      -12.998557   -1.030563   -0.861818
     87          1           0      -13.549883    0.447301   -1.601970
     88          1           0      -12.389342    0.182789   -3.826155
     89          1           0      -11.665038   -1.536138   -3.425871
     90          1           0      -13.501838   -1.186454   -3.618771
     91          1           0       -9.817730   -4.768272    0.185436
     92          1           0       -9.517987   -4.434442   -1.789985
     93          1           0       -8.324691   -5.420497   -0.744799
     94          1           0       -3.746232   -3.628684   -0.227749
     95          1           0       -2.184414   -6.554357    2.657156
     96          1           0       -1.915998   -4.599753    3.179948
     97          1           0       -3.525813   -5.324320    3.922580
     98          1           0        2.789044   -1.958264   -1.561910
     99          1           0        2.541148   -0.363797   -2.112814
    100          1           0        4.280541   -1.165512    0.574474
    101          1           0        5.367097    1.730571   -2.487772
    102          1           0        5.962438    0.157653   -3.123012
    103          1           0        4.123644    0.684198   -2.874620
    104          1           0        6.532410    1.278104   -0.235311
    105          1           0        6.039693   -0.123959    0.823561
    106          1           0        7.351784   -1.547573   -1.052158
    107          1           0        7.416460   -0.292516   -2.062640
    108          1           0        8.939977    0.778681    0.002588
    109          1           0        8.517061   -0.891193    0.650038
    110          1           0       10.374991   -0.191484   -1.880139
    111          1           0        9.444275   -2.865057   -2.015060
    112          1           0       11.186860   -2.306326   -1.640301
    113          1           0       10.045127   -3.013535   -0.375825
    114          1           0       11.418182    0.591274    0.418104
    115          1           0       11.448889   -1.156057    0.870602
    116          1           0       13.035460   -1.721996   -0.897693
    117          1           0       12.782180    0.073906   -1.566898
    118          1           0       13.767974    1.045446    0.196337
    119          1           0       13.830678   -0.716556    1.116353
    120          1           0       15.278166    0.550444   -1.499881
    121          1           0       14.875377   -2.082453   -1.880285
    122          1           0       16.660751   -1.538409   -1.678849
    123          1           0       15.698333   -2.644480   -0.207909
    124          1           0       16.052302    1.560467    0.691346
    125          1           0       16.409268   -0.073767    1.633900
    126          1           0       18.111156   -0.364869   -0.463068
    127          1           0       17.599582    1.463834   -1.137462
    128          1           0       17.916236    2.480136    1.353953
    129          1           0       18.810486    0.837549    1.965702
    130          1           0       20.435777    0.837164    0.375632
    131          1           0       19.600475    3.226267   -0.852433
    132          1           0       21.383026    3.002678   -1.327670
    133          1           0       20.004934    1.659773   -1.805148
    134          1           0       20.821508    2.004468    2.507418
    135          1           0       22.030043    2.465972    1.245868
    136          1           0       20.409384    3.543438    1.595207
    137          1           0       -7.192289    1.819968    0.189612
    138          1           0       -7.640536   -0.280710   -0.086948
 ---------------------------------------------------------------------

 SCF Done:  E(RB3LYP) =  -2732.90753274     A.U. after   17 cycles

 Excitation energies and oscillator strengths:

 Excited State   1:      Singlet-A      1.9969 eV  620.89 nm  f=0.2000  <S**2>=0.000
     235 -> 238       -0.27150
     236 -> 237        0.64641
 This state for optimization and/or second-order correction.
 Total Energy, E(TD-HF/TD-KS) =  -2732.83414836
 Copying the excited state density for this state as the 1-particle RhoCI density.

 The electronic state is 1-A.
 Alpha  occ. eigenvalues --  -19.18846 -19.18556 -19.12515 -19.12458 -19.12154
 Alpha  occ. eigenvalues --  -14.36264 -14.36194 -14.31400 -14.30614 -10.32343
 Alpha  occ. eigenvalues --  -10.31340 -10.27498 -10.27461 -10.25679 -10.23815
 Alpha  occ. eigenvalues --  -10.23799 -10.23767 -10.22548 -10.22505 -10.22499
 Alpha  occ. eigenvalues --  -10.22310 -10.22286 -10.22147 -10.21679 -10.21672
 Alpha  occ. eigenvalues --  -10.21649 -10.21436 -10.21196 -10.21140 -10.21092
 Alpha  occ. eigenvalues --  -10.20922 -10.20901 -10.20790 -10.20748 -10.20721
 Alpha  occ. eigenvalues --  -10.20719 -10.20523 -10.20519 -10.20466 -10.20384
 Alpha  occ. eigenvalues --  -10.20370 -10.20341 -10.20284 -10.19684 -10.19663
 Alpha  occ. eigenvalues --  -10.19654 -10.19594 -10.19558 -10.19535 -10.19509
 Alpha  occ. eigenvalues --  -10.19469 -10.19450 -10.19400 -10.19327 -10.19297
 Alpha  occ. eigenvalues --  -10.19262 -10.19240 -10.18913 -10.18736 -10.18613
 Alpha  occ. eigenvalues --  -10.18431 -10.18203 -10.18129 -10.17795  -1.11496
 Alpha  occ. eigenvalues --   -1.08570  -1.03212  -1.02323  -0.98226  -0.97223
 Alpha  occ. eigenvalues --   -0.95589  -0.93015  -0.92310  -0.85399  -0.82530
 Alpha  occ. eigenvalues --   -0.81780  -0.81691  -0.81579  -0.81102  -0.80760
 Alpha  occ. eigenvalues --   -0.80538  -0.79854  -0.79215  -0.78356  -0.77356
 Alpha  occ. eigenvalues --   -0.77249  -0.76251  -0.75646  -0.75001  -0.74176
 Alpha  occ. eigenvalues --   -0.73603  -0.73326  -0.72880  -0.71306  -0.71133
 Alpha  occ. eigenvalues --   -0.69417  -0.68479  -0.68185  -0.67213  -0.66748
 Alpha  occ. eigenvalues --   -0.66662  -0.66256  -0.65522  -0.65232  -0.64996
 Alpha  occ. eigenvalues --   -0.63565  -0.61988  -0.61711  -0.61654  -0.61093
 Alpha  occ. eigenvalues --   -0.59822  -0.58693  -0.58542  -0.57591  -0.57339
 Alpha  occ. eigenvalues --   -0.56709  -0.56506  -0.55893  -0.55396  -0.55303
 Alpha  occ. eigenvalues --   -0.54275  -0.53652  -0.53642  -0.53227  -0.52558
 Alpha  occ. eigenvalues --   -0.52254  -0.51806  -0.51104  -0.50835  -0.50286
 Alpha  occ. eigenvalues --   -0.49759  -0.49653  -0.48557  -0.48268  -0.48049
 Alpha  occ. eigenvalues --   -0.47591  -0.47357  -0.46988  -0.46925  -0.46829
 Alpha  occ. eigenvalues --   -0.46293  -0.46229  -0.45902  -0.45771  -0.45565
 Alpha  occ. eigenvalues --   -0.45229  -0.45038  -0.44582  -0.44455  -0.44333
 Alpha  occ. eigenvalues --   -0.44226  -0.43878  -0.43842  -0.43687  -0.43441
 Alpha  occ. eigenvalues --   -0.43148  -0.42989  -0.42622  -0.42547  -0.42190
 Alpha  occ. eigenvalues --   -0.42097  -0.42059  -0.41910  -0.41469  -0.41254
 Alpha  occ. eigenvalues --   -0.40951  -0.40701  -0.40647  -0.40187  -0.40022
 Alpha  occ. eigenvalues --   -0.39929  -0.39524  -0.39484  -0.39352  -0.39177
 Alpha  occ. eigenvalues --   -0.39043  -0.38979  -0.38726  -0.38569  -0.38444
 Alpha  occ. eigenvalues --   -0.38281  -0.37879  -0.37828  -0.37239  -0.37153
 Alpha  occ. eigenvalues --   -0.37111  -0.36657  -0.36570  -0.36287  -0.36100
 Alpha  occ. eigenvalues --   -0.35865  -0.35731  -0.35470  -0.35304  -0.34971
 Alpha  occ. eigenvalues --   -0.34884  -0.34813  -0.34718  -0.34408  -0.34325
 Alpha  occ. eigenvalues --   -0.34108  -0.33563  -0.33548  -0.33197  -0.32884
 Alpha  occ. eigenvalues --   -0.32866  -0.32758  -0.32570  -0.32444  -0.32084
 Alpha  occ. eigenvalues --   -0.31719  -0.31649  -0.31608  -0.31479  -0.31290
 Alpha  occ. eigenvalues --   -0.31128  -0.30860  -0.30698  -0.29729  -0.29620
 Alpha  occ. eigenvalues --   -0.29350  -0.29251  -0.28599  -0.27951  -0.27789
 Alpha  occ. eigenvalues --   -0.27552  -0.27322  -0.26610  -0.25511  -0.25480
 Alpha  occ. eigenvalues --   -0.24955  -0.24824  -0.24716  -0.23310  -0.19932
 Alpha  occ. eigenvalues --   -0.18466
 Alpha virt. eigenvalues --   -0.10155  -0.07610  -0.04264  -0.01746  -0.01169
 Alpha virt. eigenvalues --   -0.00840   0.00760   0.01732   0.02170   0.02820
 Alpha virt. eigenvalues --    0.03233   0.03716   0.03738   0.03907   0.04478

 Mulliken charges:
               1
     1  C    0.006482
     2  C   -0.056860
     3  C   -0.066916
     4  C   -0.034725
     5  N   -0.206919
     6  C   -0.060161
     7  C   -0.088749
     8  C    0.032665
     9  C   -0.064491
    10  C    0.003998
    11  C   -0.003350
    12  C    0.077193
    13  C    0.144073
    14  O   -0.203434
    15  O   -0.248312
    16  N    0.008704
    17  C    0.175046
    18  C   -0.123459
    19  C   -0.015872
    20  C   -0.054586
    21  C    0.067493
    22  C    0.128793
    23  C   -0.100450
    24  N   -0.278303
    25  C    0.130432
    26  C   -0.191250
    27  C   -0.029302
    28  C    0.037479
    29  C    0.073454
    30  C    0.082045
    31  C   -0.092787
    32  N   -0.095719
    33  C    0.070686
    34  C   -0.080042
    35  C   -0.000629
    36  C    0.146557
    37  C    0.012241
    38  C   -0.009648
    39  O   -0.157678
    40  C   -0.013293
    41  C    0.241380
    42  O   -0.301829
    43  O   -0.288510
    44  C    0.070643
    45  C    0.240626
    46  C   -0.093524
    47  C   -0.157956
    48  C    0.053428
    49  C    0.009792
    50  C    0.059790
    51  C    0.044957
    52  C   -0.009777
    53  C   -0.014535
    54  C    0.006573
    55  C   -0.045236
    56  C   -0.007824
    57  C   -0.049511
    58  C   -0.107295
    59  C   -0.010837
    60  C   -0.020872
    61  C   -0.141613
    62  C    0.028065
    63  C   -0.003122
    64  C   -0.022918
    65  H   -0.029235
    66  H   -0.014096
    67  H   -0.030160
    68  H    0.043149
    69  H   -0.015852
    70  H    0.054957
    71  H    0.008918
    72  H    0.040700
    73  H    0.017853
    74  H    0.017041
    75  H    0.043774
    76  H   -0.016239
    77  H    0.042553
    78  H    0.009937
    79  H    0.020349
    80  H   -0.084342
    81  H    0.063913
    82  H    0.041149
    83  H    0.043000
    84  H    0.067380
    85  H   -0.004264
    86  H    0.028119
    87  H   -0.002946
    88  H    0.032812
    89  H    0.049066
    90  H    0.015234
    91  H    0.066599
    92  H    0.057361
    93  H    0.032033
    94  H    0.061944
    95  H    0.075900
    96  H    0.039674
    97  H    0.086670
    98  H    0.030395
    99  H    0.010145
   100  H    0.036509
   101  H    0.021435
   102  H    0.061663
   103  H    0.001410
   104  H    0.006656
   105  H   -0.000829
   106  H   -0.029711
   107  H   -0.037458
   108  H   -0.011766
   109  H   -0.000207
   110  H    0.000184
   111  H    0.030502
   112  H    0.012620
   113  H    0.010722
   114  H    0.007843
   115  H   -0.001561
   116  H    0.035377
   117  H   -0.009864
   118  H    0.004670
   119  H    0.015313
   120  H    0.015514
   121  H    0.046432
   122  H    0.035720
   123  H    0.037137
   124  H    0.001326
   125  H    0.022949
   126  H    0.024362
   127  H    0.026192
   128  H    0.016835
   129  H    0.012019
   130  H   -0.054040
   131  H    0.000659
   132  H    0.014459
   133  H    0.042820
   134  H    0.012722
   135  H    0.026306
   136  H    0.022660
   137  H    0.090948
   138  H    0.147677
 Sum of Mulliken charges =   0.00000

 Dipole moment (field-independent basis, Debye):
    X=              2.1131    Y=              3.6183    Z=             -0.2987  Tot=              4.2008
 Quadrupole moment (field-independent basis, Debye-Ang):
   XX=           -345.0864   YY=           -382.5864   ZZ=           -397.8546
   XY=            -22.6791   XZ=              1.5341   YZ=             -1.4972

 Normal termination of Gaussian 09 at Sat Aug  3 08:43:57 2019.
