 Gaussian 09, Revision D.01,
 Gaussian 09:  ES64L-G09RevD.01 24-Apr-2013

 --------------------------
 # td=(NStates=1) B3LYP/SVP
 --------------------------

 --
 TD
 --
 Symbolic Z-matrix:
 Charge =  0 Multiplicity = 1

                         Standard orientation:
 ---------------------------------------------------------------------
 Center     Atomic      Atomic             Coordinates (Angstroms)
 Number     Number       Type             X           Y           Z
 ---------------------------------------------------------------------
      1          6           0       -5.165272   -1.920050    0.519464
      2          6           0       -4.740896    2.767105    1.499049
      3          6           0       -9.168676    3.375919   -0.326165
      4          6           0       -9.812345   -1.353569   -1.112780
      5          7           0       -5.156977    0.386519    0.798757
      6          6           0       -4.466077   -0.700321    0.775594
      7          6           0       -3.038125   -0.571030    1.328302
      8          6           0       -3.105282    0.770895    1.946183
      9          6           0       -4.467565    1.398773    1.381172
     10          6           0       -3.015538    0.964996    3.412779
     11          6           0       -2.022433   -0.840741    0.127037
     12          6           0       -0.628000   -0.947140    0.739590
     13          6           0        0.356642   -1.276341   -0.413995
     14          8           0        0.043265   -1.743233   -1.507426
     15          8           0        1.618430   -0.976670   -0.046921
     16          7           0       -6.940755    2.768323    0.403410
     17          6           0       -5.880530    3.383406    1.063207
     18          6           0       -6.169043    4.787878    1.180861
     19          6           0       -7.400524    4.978732    0.598069
     20          6           0       -7.900249    3.664408    0.271205
     21          6           0       -5.172789    5.838052    1.814812
     22          6           0       -8.146932    6.231909    0.444383
     23          6           0       -9.073704    6.588411   -0.502235
     24          7           0       -9.135094    0.899078   -0.477551
     25          6           0       -9.787238    2.096002   -0.546919
     26          6           0      -11.106070    1.983204   -1.094760
     27          6           0      -11.279191    0.635761   -1.308210
     28          6           0      -10.029901    0.005273   -0.944912
     29          6           0      -12.115970    3.068594   -1.429541
     30          6           0      -12.518378   -0.019936   -1.889729
     31          6           0      -12.404947   -0.331353   -3.299385
     32          7           0       -7.532978   -1.267009   -0.385882
     33          6           0       -8.557802   -2.036976   -0.815390
     34          6           0       -8.139463   -3.393756   -0.739615
     35          6           0       -6.823397   -3.364610   -0.348276
     36          6           0       -6.502873   -2.055242    0.018115
     37          6           0       -9.042384   -4.601632   -1.123911
     38          6           0       -5.762523   -4.216654    0.132788
     39          8           0       -5.615279   -5.427305    0.056504
     40          6           0       -4.529594   -3.310002    0.462945
     41          6           0       -3.979014   -3.873657    1.875060
     42          8           0       -4.309303   -3.474868    2.975588
     43          8           0       -3.059830   -4.783055    1.683064
     44          6           0       -2.558536   -5.361661    2.903035
     45          6           0        2.626845   -1.336415   -1.067862
     46          6           0        3.881653   -0.967753   -0.574917
     47          6           0        4.818937   -0.096535   -1.081936
     48          6           0        4.661128    0.649765   -2.272962
     49          6           0        6.147391    0.226714   -0.404502
     50          6           0        7.428068   -0.488557   -1.025486
     51          6           0        8.668011   -0.202674   -0.260927
     52          6           0       10.088704   -0.823975   -0.841728
     53          6           0        9.990224   -2.345490   -0.907280
     54          6           0       11.232415   -0.346269    0.030897
     55          6           0       12.574931   -0.422294   -0.706947
     56          6           0       13.837778   -0.060025    0.228280
     57          6           0       15.209542    0.008985   -0.425422
     58          6           0       15.743159   -1.438682   -0.714222
     59          6           0       16.225415    0.727526    0.339565
     60          6           0       17.640331    0.733297   -0.086131
     61          6           0       18.576019    1.699777    0.606073
     62          6           0       20.099351    1.703010    0.048534
     63          6           0       20.212219    2.240147   -1.353124
     64          6           0       20.734765    2.469912    1.102371
     65          1           0       -4.130752    3.467026    2.057336
     66          1           0       -9.817111    4.283913   -0.402760
     67          1           0      -10.601989   -2.200607   -1.538102
     68          1           0       -2.687217   -1.285281    1.989824
     69          1           0       -2.304521    1.370718    1.580618
     70          1           0       -2.157654    0.578081    3.736929
     71          1           0       -3.156655    1.964120    3.719547
     72          1           0       -3.825930    0.521735    3.862630
     73          1           0       -2.301289   -1.799309   -0.528705
     74          1           0       -2.117994   -0.012880   -0.315313
     75          1           0       -0.196449   -0.032035    1.317137
     76          1           0       -0.477303   -1.840896    1.392134
     77          1           0       -4.152718    5.784779    1.335006
     78          1           0       -5.686927    6.782338    2.059348
     79          1           0       -4.701690    5.673985    3.030628
     80          1           0       -7.956790    7.192635    1.093047
     81          1           0       -9.387920    5.949581   -1.355267
     82          1           0       -9.567845    7.563897   -0.693076
     83          1           0      -12.375274    3.855552   -0.631194
     84          1           0      -11.830746    3.772604   -2.322693
     85          1           0      -13.113568    2.575947   -1.641430
     86          1           0      -12.784337   -0.975177   -1.424416
     87          1           0      -13.356094    0.533248   -1.737513
     88          1           0      -12.183530    0.808058   -3.842460
     89          1           0      -11.548101   -0.981201   -3.803357
     90          1           0      -13.548867   -0.718328   -3.703548
     91          1           0      -10.008647   -4.463528   -0.521592
     92          1           0       -9.396492   -4.485284   -2.284303
     93          1           0       -8.512961   -5.597656   -1.009344
     94          1           0       -3.622394   -3.404907   -0.247322
     95          1           0       -2.215298   -6.442458    2.582313
     96          1           0       -1.583842   -4.665771    3.516177
     97          1           0       -3.480586   -5.367163    3.668761
     98          1           0        2.470246   -2.444160   -1.099596
     99          1           0        2.455140   -0.793888   -2.011803
    100          1           0        4.264537   -1.561514    0.461241
    101          1           0        4.593940    1.844909   -2.092192
    102          1           0        5.353843    0.490743   -3.203058
    103          1           0        3.646032    0.469444   -2.732266
    104          1           0        6.331524    1.469812   -0.593612
    105          1           0        6.371996   -0.167811    0.584337
    106          1           0        7.370512   -1.496616   -0.952937
    107          1           0        7.343826   -0.347484   -2.025141
    108          1           0        8.618203    0.928849    0.122968
    109          1           0        8.512966   -0.675892    0.699418
    110          1           0        9.937090   -0.497752   -1.915821
    111          1           0        9.220744   -2.652163   -1.711537
    112          1           0       10.946280   -2.673557   -1.387926
    113          1           0        9.647491   -2.597938   -0.024369
    114          1           0       11.071757    0.775346    0.207932
    115          1           0       11.485590   -0.732527    1.188056
    116          1           0       12.608115   -1.456839   -1.314695
    117          1           0       12.647822    0.239068   -1.612676
    118          1           0       13.680324    0.963552    0.726481
    119          1           0       13.886143   -0.626082    1.094745
    120          1           0       15.141979    0.582082   -1.430351
    121          1           0       14.973805   -2.248759   -1.210932
    122          1           0       16.745250   -1.171420   -1.505842
    123          1           0       15.877081   -2.083373    0.221507
    124          1           0       15.669595    1.681128    0.380320
    125          1           0       16.407050    0.316039    1.388319
    126          1           0       18.082449   -0.260613   -0.105582
    127          1           0       17.686280    1.191720   -1.332726
    128          1           0       18.186571    2.647163    0.499023
    129          1           0       18.769651    1.350645    1.545291
    130          1           0       20.313624    0.671919    0.173991
    131          1           0       20.148732    3.321439   -1.117550
    132          1           0       21.155680    1.911852   -1.894496
    133          1           0       19.499741    1.933912   -2.170909
    134          1           0       20.750008    1.974278    2.061467
    135          1           0       21.734671    2.497760    1.006746
    136          1           0       20.413883    3.426847    1.097044
    137          1           0       -7.123650    1.627603    0.431562
    138          1           0       -7.618268   -0.271444   -0.421702
 ---------------------------------------------------------------------

 SCF Done:  E(RB3LYP) =  -2732.98049324     A.U. after   17 cycles

 Excitation energies and oscillator strengths:

 Excited State   1:      Singlet-A      2.0590 eV  602.16 nm  f=0.1570  <S**2>=0.000
     235 -> 237       -0.17304
     235 -> 238       -0.31500
     236 -> 237        0.59553
     236 -> 238       -0.11495
 This state for optimization and/or second-order correction.
 Total Energy, E(TD-HF/TD-KS) =  -2732.90482706
 Copying the excited state density for this state as the 1-particle RhoCI density.

 The electronic state is 1-A.
 Alpha  occ. eigenvalues --  -19.18850 -19.17600 -19.12223 -19.11897 -19.11570
 Alpha  occ. eigenvalues --  -14.37567 -14.36458 -14.32386 -14.30232 -10.31416
 Alpha  occ. eigenvalues --  -10.31274 -10.27504 -10.27226 -10.24689 -10.23675
 Alpha  occ. eigenvalues --  -10.23469 -10.23279 -10.23163 -10.23146 -10.23093
 Alpha  occ. eigenvalues --  -10.22658 -10.22185 -10.21728 -10.21714 -10.21708
 Alpha  occ. eigenvalues --  -10.21552 -10.21493 -10.21479 -10.21365 -10.21339
 Alpha  occ. eigenvalues --  -10.21308 -10.21268 -10.21155 -10.20787 -10.20693
 Alpha  occ. eigenvalues --  -10.20640 -10.20601 -10.20446 -10.20386 -10.20300
 Alpha  occ. eigenvalues --  -10.20296 -10.20190 -10.20005 -10.19809 -10.19637
 Alpha  occ. eigenvalues --  -10.19149 -10.19146 -10.19009 -10.18987 -10.18953
 Alpha  occ. eigenvalues --  -10.18953 -10.18744 -10.18497 -10.18496 -10.18443
 Alpha  occ. eigenvalues --  -10.18348 -10.18325 -10.17903 -10.17868 -10.17833
 Alpha  occ. eigenvalues --  -10.16943 -10.16264 -10.16242 -10.15328  -1.11006
 Alpha  occ. eigenvalues --   -1.08595  -1.01882  -1.00137  -0.99583  -0.99511
 Alpha  occ. eigenvalues --   -0.99155  -0.95870  -0.94408  -0.84734  -0.83459
 Alpha  occ. eigenvalues --   -0.82754  -0.82037  -0.81637  -0.81485  -0.81361
 Alpha  occ. eigenvalues --   -0.80874  -0.80298  -0.79730  -0.78857  -0.78352
 Alpha  occ. eigenvalues --   -0.77500  -0.76011  -0.75440  -0.75067  -0.74623
 Alpha  occ. eigenvalues --   -0.74109  -0.72722  -0.72406  -0.72119  -0.70587
 Alpha  occ. eigenvalues --   -0.69782  -0.68874  -0.68818  -0.68264  -0.67407
 Alpha  occ. eigenvalues --   -0.67263  -0.67047  -0.65781  -0.65582  -0.65101
 Alpha  occ. eigenvalues --   -0.63909  -0.62938  -0.62461  -0.61450  -0.61118
 Alpha  occ. eigenvalues --   -0.59858  -0.59425  -0.58498  -0.57990  -0.57639
 Alpha  occ. eigenvalues --   -0.57399  -0.56093  -0.55995  -0.55832  -0.55558
 Alpha  occ. eigenvalues --   -0.55270  -0.54491  -0.53988  -0.53720  -0.53245
 Alpha  occ. eigenvalues --   -0.52943  -0.52069  -0.51570  -0.50962  -0.50841
 Alpha  occ. eigenvalues --   -0.50084  -0.49413  -0.49375  -0.49065  -0.48683
 Alpha  occ. eigenvalues --   -0.48321  -0.47668  -0.47564  -0.47311  -0.47203
 Alpha  occ. eigenvalues --   -0.46997  -0.46647  -0.46477  -0.46086  -0.45972
 Alpha  occ. eigenvalues --   -0.45578  -0.45443  -0.45089  -0.44859  -0.44689
 Alpha  occ. eigenvalues --   -0.44468  -0.44299  -0.44246  -0.44080  -0.43742
 Alpha  occ. eigenvalues --   -0.43542  -0.43380  -0.43318  -0.42971  -0.42772
 Alpha  occ. eigenvalues --   -0.42498  -0.42010  -0.41746  -0.41634  -0.41584
 Alpha  occ. eigenvalues --   -0.41312  -0.41234  -0.40830  -0.40274  -0.40179
 Alpha  occ. eigenvalues --   -0.40064  -0.39771  -0.39681  -0.39611  -0.39557
 Alpha  occ. eigenvalues --   -0.39221  -0.39054  -0.38867  -0.38692  -0.38569
 Alpha  occ. eigenvalues --   -0.38364  -0.38040  -0.37855  -0.37404  -0.37353
 Alpha  occ. eigenvalues --   -0.37097  -0.37000  -0.36888  -0.36680  -0.36533
 Alpha  occ. eigenvalues --   -0.36427  -0.36187  -0.36124  -0.35783  -0.35702
 Alpha  occ. eigenvalues --   -0.35460  -0.35379  -0.35171  -0.34779  -0.34667
 Alpha  occ. eigenvalues --   -0.34509  -0.34452  -0.34361  -0.34096  -0.33907
 Alpha  occ. eigenvalues --   -0.33310  -0.33182  -0.33083  -0.32730  -0.32695
 Alpha  occ. eigenvalues --   -0.32423  -0.32065  -0.31661  -0.31435  -0.31095
 Alpha  occ. eigenvalues --   -0.30708  -0.30612  -0.30356  -0.30057  -0.29717
 Alpha  occ. eigenvalues --   -0.28893  -0.28790  -0.28476  -0.27994  -0.27846
 Alpha  occ. eigenvalues --   -0.27760  -0.27436  -0.26732  -0.26362  -0.25978
 Alpha  occ. eigenvalues --   -0.24591  -0.24508  -0.24419  -0.23229  -0.19734
 Alpha  occ. eigenvalues --   -0.19044
 Alpha virt. eigenvalues --   -0.10352  -0.08001  -0.04487  -0.02515  -0.02395
 Alpha virt. eigenvalues --   -0.00204   0.00270   0.00733   0.02193   0.03240
 Alpha virt. eigenvalues --    0.03412   0.03713   0.03891   0.04204   0.04810

 Mulliken charges:
               1
     1  C    0.043095
     2  C   -0.064834
     3  C   -0.087299
     4  C   -0.136594
     5  N   -0.118280
     6  C   -0.083829
     7  C   -0.005649
     8  C   -0.028120
     9  C    0.000974
    10  C    0.218012
    11  C    0.114629
    12  C    0.000678
    13  C    0.165152
    14  O   -0.260490
    15  O   -0.325588
    16  N   -0.097493
    17  C    0.076414
    18  C   -0.077616
    19  C    0.065953
    20  C    0.045650
    21  C    0.003155
    22  C   -0.072976
    23  C   -0.087046
    24  N   -0.245237
    25  C    0.068698
    26  C   -0.102909
    27  C   -0.103074
    28  C    0.120763
    29  C    0.028359
    30  C    0.215423
    31  C   -0.141487
    32  N    0.011947
    33  C   -0.014215
    34  C   -0.121014
    35  C   -0.014986
    36  C    0.073191
    37  C    0.025023
    38  C    0.089017
    39  O   -0.189737
    40  C   -0.098952
    41  C    0.187514
    42  O   -0.241068
    43  O   -0.244612
    44  C    0.044040
    45  C    0.318353
    46  C   -0.122302
    47  C   -0.094194
    48  C   -0.013792
    49  C    0.003890
    50  C    0.111371
    51  C   -0.018168
    52  C   -0.096055
    53  C    0.090666
    54  C    0.024345
    55  C   -0.011252
    56  C    0.064455
    57  C   -0.051265
    58  C   -0.084316
    59  C    0.072886
    60  C   -0.045966
    61  C    0.085923
    62  C   -0.098824
    63  C    0.028349
    64  C    0.180991
    65  H   -0.032075
    66  H   -0.006648
    67  H    0.031955
    68  H   -0.035719
    69  H   -0.036351
    70  H   -0.025614
    71  H   -0.018131
    72  H   -0.019202
    73  H    0.067665
    74  H   -0.065171
    75  H    0.050505
    76  H    0.036768
    77  H    0.052806
    78  H    0.037718
    79  H    0.028340
    80  H    0.028729
    81  H    0.028635
    82  H    0.031917
    83  H    0.028181
    84  H    0.036141
    85  H    0.017575
    86  H   -0.013495
    87  H   -0.038493
    88  H    0.013461
    89  H    0.052807
    90  H    0.027961
    91  H    0.043186
    92  H    0.046022
    93  H    0.059933
    94  H    0.078862
    95  H    0.067520
    96  H    0.056310
    97  H    0.083293
    98  H    0.023515
    99  H    0.021369
   100  H    0.015665
   101  H    0.042619
   102  H    0.055026
   103  H   -0.002903
   104  H    0.029195
   105  H   -0.005426
   106  H   -0.042508
   107  H   -0.052237
   108  H    0.001779
   109  H   -0.021182
   110  H    0.011981
   111  H    0.009898
   112  H    0.018611
   113  H   -0.023520
   114  H    0.008183
   115  H    0.031274
   116  H    0.004523
   117  H   -0.003890
   118  H   -0.017570
   119  H   -0.036965
   120  H   -0.000252
   121  H    0.015423
   122  H    0.052170
   123  H    0.014733
   124  H   -0.009057
   125  H   -0.012900
   126  H    0.007104
   127  H   -0.018395
   128  H   -0.031340
   129  H   -0.038091
   130  H   -0.037801
   131  H    0.005814
   132  H    0.012551
   133  H    0.019168
   134  H   -0.011751
   135  H   -0.052478
   136  H   -0.026475
   137  H    0.232450
   138  H    0.116618
 Sum of Mulliken charges =   0.00000

 Dipole moment (field-independent basis, Debye):
    X=              3.1463    Y=              4.7780    Z=              0.9009  Tot=              5.7914
 Quadrupole moment (field-independent basis, Debye-Ang):
   XX=           -349.6375   YY=           -383.9480   ZZ=           -396.2327
   XY=            -28.0809   XZ=             14.8606   YZ=              0.7343

 Normal termination of Gaussian 09 at Fri Aug  2 16:01:02 2019.
