 Gaussian 09, Revision D.01,
 Gaussian 09:  ES64L-G09RevD.01 24-Apr-2013

 --------------------------
 # td=(NStates=1) B3LYP/SVP
 --------------------------

 --
 TD
 --
 Symbolic Z-matrix:
 Charge =  0 Multiplicity = 1

                         Standard orientation:
 ---------------------------------------------------------------------
 Center     Atomic      Atomic             Coordinates (Angstroms)
 Number     Number       Type             X           Y           Z
 ---------------------------------------------------------------------
      1          6           0       -5.030354   -1.926348    0.573783
      2          6           0       -4.896528    2.783634    1.279516
      3          6           0       -9.500933    3.092904   -0.228712
      4          6           0       -9.770287   -1.676792   -0.910457
      5          7           0       -5.225760    0.334413    0.809550
      6          6           0       -4.522677   -0.770242    0.929011
      7          6           0       -3.044968   -0.462482    1.357184
      8          6           0       -3.183780    0.989459    1.924794
      9          6           0       -4.480617    1.425087    1.293098
     10          6           0       -3.236512    1.109028    3.405170
     11          6           0       -2.112670   -0.636023    0.196665
     12          6           0       -0.608364   -0.598473    0.565955
     13          6           0        0.347654   -0.679265   -0.704231
     14          8           0       -0.093669   -0.862830   -1.849146
     15          8           0        1.584759   -0.413727   -0.331801
     16          7           0       -7.220309    2.698611    0.482153
     17          6           0       -6.147221    3.388805    1.008286
     18          6           0       -6.424336    4.764157    1.006224
     19          6           0       -7.674829    4.919825    0.499896
     20          6           0       -8.239863    3.607883    0.246830
     21          6           0       -5.557037    5.816897    1.591151
     22          6           0       -8.397544    6.243455    0.353171
     23          6           0       -9.195417    6.483909   -0.635414
     24          7           0       -9.176493    0.734929   -0.384884
     25          6           0       -9.989657    1.810951   -0.529194
     26          6           0      -11.363790    1.582623   -0.925888
     27          6           0      -11.466993    0.267004   -1.055255
     28          6           0      -10.083247   -0.308816   -0.827414
     29          6           0      -12.383700    2.710939   -1.118410
     30          6           0      -12.701284   -0.553876   -1.618667
     31          6           0      -12.580064   -0.534162   -3.092098
     32          7           0       -7.441087   -1.298127   -0.259883
     33          6           0       -8.550209   -2.173249   -0.592653
     34          6           0       -8.053751   -3.504167   -0.636216
     35          6           0       -6.714736   -3.443351   -0.183822
     36          6           0       -6.372612   -2.192843    0.086732
     37          6           0       -8.923274   -4.766407   -0.921229
     38          6           0       -5.558385   -4.293194    0.049270
     39          8           0       -5.407407   -5.497595    0.124373
     40          6           0       -4.371221   -3.370788    0.509051
     41          6           0       -3.802235   -3.756778    1.797018
     42          8           0       -3.942457   -3.252308    2.904800
     43          8           0       -2.952367   -4.810037    1.472497
     44          6           0       -2.303070   -5.559816    2.584433
     45          6           0        2.573858   -0.536793   -1.461873
     46          6           0        3.853707   -0.289248   -0.716176
     47          6           0        4.908133    0.472369   -1.172404
     48          6           0        4.986219    1.234564   -2.468679
     49          6           0        6.241090    0.404781   -0.243987
     50          6           0        7.563199   -0.237734   -1.003261
     51          6           0        8.774038   -0.168572   -0.196596
     52          6           0       10.061225   -0.563657   -0.901244
     53          6           0       10.037063   -2.127409   -1.271021
     54          6           0       11.373713   -0.377927    0.032134
     55          6           0       12.676531   -0.663259   -0.768807
     56          6           0       13.925650   -0.095715    0.177894
     57          6           0       15.278580   -0.211308   -0.382586
     58          6           0       15.614819   -1.718384   -0.539719
     59          6           0       16.388221    0.620830    0.398308
     60          6           0       17.778091    0.626626   -0.131064
     61          6           0       18.790699    1.470705    0.696272
     62          6           0       20.231172    1.383775    0.334124
     63          6           0       20.505724    1.816846   -1.048276
     64          6           0       21.113097    2.142491    1.380549
     65          1           0       -4.165650    3.507839    1.499172
     66          1           0      -10.211972    3.985927   -0.430380
     67          1           0      -10.555984   -2.594562   -1.192817
     68          1           0       -3.048378   -1.306382    2.122344
     69          1           0       -2.369117    1.545118    1.419544
     70          1           0       -2.110181    0.943482    3.696743
     71          1           0       -3.138828    2.026371    3.845784
     72          1           0       -3.934938    0.439497    3.753728
     73          1           0       -2.328269   -1.469107   -0.402232
     74          1           0       -2.269520    0.182785   -0.649659
     75          1           0       -0.367326    0.417415    1.129511
     76          1           0       -0.493753   -1.438982    1.352503
     77          1           0       -4.650256    5.929042    0.640391
     78          1           0       -6.041128    6.627388    1.745739
     79          1           0       -5.009177    5.076156    2.427255
     80          1           0       -8.232450    7.062828    1.107686
     81          1           0       -9.397347    5.915070   -1.584609
     82          1           0       -9.806549    7.501738   -0.668479
     83          1           0      -12.364234    3.488262   -0.179728
     84          1           0      -12.258590    3.155255   -2.128614
     85          1           0      -13.388401    2.073596   -1.236358
     86          1           0      -12.776821   -1.651499   -1.409378
     87          1           0      -13.481998   -0.068023   -1.107388
     88          1           0      -12.682789    0.684159   -3.673906
     89          1           0      -11.742364   -1.111938   -3.474101
     90          1           0      -13.486686   -1.120358   -3.461146
     91          1           0       -9.917068   -4.889938   -0.393274
     92          1           0       -9.516458   -4.831454   -2.065185
     93          1           0       -8.200625   -5.589498   -0.681892
     94          1           0       -3.491277   -3.470795   -0.202028
     95          1           0       -1.529921   -6.402732    2.271334
     96          1           0       -1.678147   -4.754540    2.936611
     97          1           0       -3.069988   -5.989396    3.068874
     98          1           0        2.300947   -1.533092   -1.831132
     99          1           0        2.395472    0.667684   -2.074971
    100          1           0        4.091735   -1.005150    0.212913
    101          1           0        5.966377    2.129004   -2.619529
    102          1           0        5.125719    0.389330   -3.372603
    103          1           0        3.808840    1.837232   -2.585661
    104          1           0        6.623235    1.432976   -0.072287
    105          1           0        6.230522    0.010332    0.693952
    106          1           0        7.305683   -1.169313   -1.458371
    107          1           0        7.795299    0.444337   -1.958927
    108          1           0        8.828496    0.866423    0.097427
    109          1           0        8.629268   -0.670411    0.891399
    110          1           0       10.349481    0.033855   -1.889948
    111          1           0        9.074729   -2.029173   -1.930970
    112          1           0       10.781478   -2.691779   -1.972781
    113          1           0        9.717417   -2.547864   -0.273965
    114          1           0       11.359237    0.682677    0.316479
    115          1           0       11.114521   -0.970386    0.868922
    116          1           0       12.677409   -1.653639   -0.953322
    117          1           0       12.510939   -0.224756   -1.683557
    118          1           0       13.871930    1.111488    0.335280
    119          1           0       13.739814   -0.611105    1.219085
    120          1           0       15.235322    0.273555   -1.397699
    121          1           0       14.936013   -2.326044   -1.096537
    122          1           0       16.644050   -1.821168   -1.043772
    123          1           0       15.836229   -2.224513    0.364323
    124          1           0       15.904142    1.651507    0.450649
    125          1           0       16.407194    0.479605    1.606647
    126          1           0       18.245168   -0.413910   -0.206322
    127          1           0       17.686060    1.132576   -1.180958
    128          1           0       18.540190    2.481934    0.909338
    129          1           0       18.497426    1.053242    1.724954
    130          1           0       20.551739    0.274443    0.312536
    131          1           0       20.002526    2.849682   -1.331290
    132          1           0       21.526854    1.629378   -1.117099
    133          1           0       20.062506    1.268783   -1.830539
    134          1           0       20.907969    2.091630    2.403422
    135          1           0       21.949747    2.026522    1.302111
    136          1           0       20.847104    3.305155    0.961397
    137          1           0       -7.408019    1.733170    0.331374
    138          1           0       -7.701819   -0.268589   -0.237346
 ---------------------------------------------------------------------

 SCF Done:  E(RB3LYP) =  -2732.86689749     A.U. after   17 cycles

 Excitation energies and oscillator strengths:

 Excited State   1:      Singlet-A      2.0793 eV  596.27 nm  f=0.1493  <S**2>=0.000
     235 -> 237        0.35173
     235 -> 238        0.26234
     236 -> 237        0.51313
     236 -> 238       -0.20300
 This state for optimization and/or second-order correction.
 Total Energy, E(TD-HF/TD-KS) =  -2732.79048296
 Copying the excited state density for this state as the 1-particle RhoCI density.

 The electronic state is 1-A.
 Alpha  occ. eigenvalues --  -19.18262 -19.16184 -19.12623 -19.12144 -19.11826
 Alpha  occ. eigenvalues --  -14.36070 -14.35042 -14.31481 -14.31129 -10.31589
 Alpha  occ. eigenvalues --  -10.31302 -10.27814 -10.27663 -10.25284 -10.24254
 Alpha  occ. eigenvalues --  -10.23884 -10.23458 -10.23025 -10.22647 -10.22601
 Alpha  occ. eigenvalues --  -10.22425 -10.22033 -10.21923 -10.21780 -10.21615
 Alpha  occ. eigenvalues --  -10.21553 -10.21300 -10.21063 -10.20999 -10.20942
 Alpha  occ. eigenvalues --  -10.20808 -10.20793 -10.20745 -10.20690 -10.20561
 Alpha  occ. eigenvalues --  -10.20528 -10.20264 -10.20209 -10.20083 -10.20031
 Alpha  occ. eigenvalues --  -10.20012 -10.19899 -10.19670 -10.19648 -10.19552
 Alpha  occ. eigenvalues --  -10.19517 -10.19487 -10.19424 -10.19298 -10.19276
 Alpha  occ. eigenvalues --  -10.19253 -10.19235 -10.19173 -10.19088 -10.18789
 Alpha  occ. eigenvalues --  -10.18776 -10.18438 -10.17719 -10.17532 -10.17515
 Alpha  occ. eigenvalues --  -10.17485 -10.17206 -10.17123 -10.16588  -1.09087
 Alpha  occ. eigenvalues --   -1.06632  -1.02282  -0.99330  -0.99224  -0.97942
 Alpha  occ. eigenvalues --   -0.95123  -0.93446  -0.92695  -0.84274  -0.82722
 Alpha  occ. eigenvalues --   -0.82027  -0.81831  -0.80767  -0.80675  -0.80251
 Alpha  occ. eigenvalues --   -0.80017  -0.79861  -0.79109  -0.78450  -0.77429
 Alpha  occ. eigenvalues --   -0.76796  -0.75963  -0.75666  -0.74936  -0.74540
 Alpha  occ. eigenvalues --   -0.73633  -0.72852  -0.72462  -0.71197  -0.71000
 Alpha  occ. eigenvalues --   -0.69652  -0.68931  -0.68648  -0.68372  -0.67277
 Alpha  occ. eigenvalues --   -0.66952  -0.66942  -0.65957  -0.65494  -0.64597
 Alpha  occ. eigenvalues --   -0.63845  -0.62739  -0.62053  -0.61347  -0.61026
 Alpha  occ. eigenvalues --   -0.60319  -0.58799  -0.58135  -0.57876  -0.57099
 Alpha  occ. eigenvalues --   -0.56567  -0.55986  -0.55139  -0.54990  -0.54915
 Alpha  occ. eigenvalues --   -0.54275  -0.53853  -0.53648  -0.52639  -0.52357
 Alpha  occ. eigenvalues --   -0.51846  -0.51375  -0.50503  -0.50002  -0.49891
 Alpha  occ. eigenvalues --   -0.49855  -0.49513  -0.49002  -0.48122  -0.48008
 Alpha  occ. eigenvalues --   -0.47927  -0.47912  -0.47610  -0.46705  -0.46546
 Alpha  occ. eigenvalues --   -0.46404  -0.46126  -0.45989  -0.45790  -0.45475
 Alpha  occ. eigenvalues --   -0.45274  -0.45107  -0.44971  -0.44690  -0.44313
 Alpha  occ. eigenvalues --   -0.44226  -0.43838  -0.43830  -0.43598  -0.43408
 Alpha  occ. eigenvalues --   -0.43194  -0.43180  -0.42787  -0.42710  -0.42489
 Alpha  occ. eigenvalues --   -0.42197  -0.42021  -0.41518  -0.41460  -0.41258
 Alpha  occ. eigenvalues --   -0.41188  -0.40910  -0.40742  -0.40380  -0.40276
 Alpha  occ. eigenvalues --   -0.40098  -0.39863  -0.39200  -0.39032  -0.38908
 Alpha  occ. eigenvalues --   -0.38706  -0.38612  -0.38187  -0.38023  -0.38010
 Alpha  occ. eigenvalues --   -0.37902  -0.37775  -0.37465  -0.37294  -0.37113
 Alpha  occ. eigenvalues --   -0.37105  -0.37016  -0.36756  -0.36574  -0.36472
 Alpha  occ. eigenvalues --   -0.36327  -0.36179  -0.35952  -0.35925  -0.35578
 Alpha  occ. eigenvalues --   -0.35450  -0.35284  -0.34927  -0.34718  -0.34576
 Alpha  occ. eigenvalues --   -0.34402  -0.34163  -0.33536  -0.33248  -0.32993
 Alpha  occ. eigenvalues --   -0.32976  -0.32946  -0.32899  -0.32220  -0.31982
 Alpha  occ. eigenvalues --   -0.31836  -0.31606  -0.31513  -0.31221  -0.30826
 Alpha  occ. eigenvalues --   -0.30744  -0.30565  -0.30147  -0.29969  -0.29638
 Alpha  occ. eigenvalues --   -0.29537  -0.29520  -0.28865  -0.28008  -0.27895
 Alpha  occ. eigenvalues --   -0.27727  -0.27525  -0.26239  -0.25217  -0.24958
 Alpha  occ. eigenvalues --   -0.24742  -0.24684  -0.24629  -0.23955  -0.19350
 Alpha  occ. eigenvalues --   -0.19074
 Alpha virt. eigenvalues --   -0.10337  -0.07263  -0.03754  -0.02460  -0.01260
 Alpha virt. eigenvalues --   -0.00444  -0.00287   0.00303   0.00844   0.02620
 Alpha virt. eigenvalues --    0.02943   0.03010   0.03697   0.03927   0.04256

 Mulliken charges:
               1
     1  C    0.066315
     2  C   -0.048962
     3  C   -0.115123
     4  C   -0.127264
     5  N   -0.155887
     6  C   -0.179240
     7  C   -0.041064
     8  C   -0.017828
     9  C   -0.005539
    10  C    0.182568
    11  C    0.069094
    12  C   -0.031932
    13  C    0.203996
    14  O   -0.269190
    15  O   -0.301007
    16  N   -0.051696
    17  C    0.104693
    18  C   -0.134935
    19  C    0.043702
    20  C    0.026463
    21  C    0.098234
    22  C   -0.030780
    23  C   -0.083527
    24  N   -0.306982
    25  C    0.126081
    26  C   -0.132812
    27  C   -0.119997
    28  C    0.104825
    29  C    0.053570
    30  C    0.105148
    31  C   -0.041445
    32  N   -0.169989
    33  C    0.075989
    34  C   -0.100351
    35  C    0.025652
    36  C    0.133719
    37  C   -0.011914
    38  C    0.060266
    39  O   -0.167213
    40  C   -0.049500
    41  C    0.231140
    42  O   -0.234568
    43  O   -0.369624
    44  C    0.213607
    45  C    0.207659
    46  C   -0.097977
    47  C   -0.087826
    48  C   -0.115766
    49  C    0.099434
    50  C   -0.040681
    51  C    0.055536
    52  C   -0.163095
    53  C   -0.031261
    54  C    0.033236
    55  C    0.136936
    56  C   -0.045206
    57  C   -0.010542
    58  C    0.044446
    59  C   -0.037650
    60  C    0.040008
    61  C    0.022805
    62  C   -0.101304
    63  C    0.065817
    64  C    0.198814
    65  H   -0.056329
    66  H   -0.010365
    67  H    0.025614
    68  H    0.026550
    69  H   -0.011737
    70  H   -0.006458
    71  H   -0.026957
    72  H    0.021569
    73  H   -0.014426
    74  H    0.013246
    75  H    0.041121
    76  H    0.039777
    77  H    0.055478
    78  H   -0.034688
    79  H    0.069816
    80  H    0.023809
    81  H    0.045050
    82  H    0.031292
    83  H    0.068912
    84  H    0.036900
    85  H    0.022499
    86  H    0.003367
    87  H    0.004533
    88  H    0.029821
    89  H    0.026942
    90  H    0.013311
    91  H    0.036947
    92  H    0.033874
    93  H    0.059919
    94  H    0.076819
    95  H    0.047600
    96  H    0.034342
    97  H    0.023658
    98  H    0.056814
    99  H    0.071244
   100  H    0.034844
   101  H    0.068926
   102  H    0.079323
   103  H    0.064254
   104  H   -0.003849
   105  H   -0.026171
   106  H    0.009385
   107  H    0.000974
   108  H   -0.018278
   109  H    0.008420
   110  H    0.010994
   111  H    0.008961
   112  H    0.051451
   113  H    0.018840
   114  H   -0.013183
   115  H   -0.019913
   116  H   -0.029605
   117  H   -0.036624
   118  H    0.006118
   119  H    0.017658
   120  H   -0.005601
   121  H    0.002660
   122  H   -0.003456
   123  H   -0.011306
   124  H   -0.009175
   125  H   -0.004203
   126  H    0.018784
   127  H    0.004087
   128  H   -0.030427
   129  H   -0.019451
   130  H   -0.012649
   131  H    0.008970
   132  H   -0.005799
   133  H   -0.010467
   134  H   -0.004251
   135  H   -0.131603
   136  H    0.005810
   137  H    0.123473
   138  H    0.172142
 Sum of Mulliken charges =   0.00000

 Dipole moment (field-independent basis, Debye):
    X=              2.5152    Y=              3.9679    Z=              0.0680  Tot=              4.6984
 Quadrupole moment (field-independent basis, Debye-Ang):
   XX=           -334.1183   YY=           -379.2900   ZZ=           -398.2098
   XY=            -29.7855   XZ=              5.7712   YZ=              0.1518

 Normal termination of Gaussian 09 at Sat Aug  3 12:54:05 2019.
