 Gaussian 09, Revision D.01,
 Gaussian 09:  ES64L-G09RevD.01 24-Apr-2013

 --------------------------
 # td=(NStates=1) B3LYP/SVP
 --------------------------

 --
 TD
 --
 Symbolic Z-matrix:
 Charge =  0 Multiplicity = 1

                         Standard orientation:
 ---------------------------------------------------------------------
 Center     Atomic      Atomic             Coordinates (Angstroms)
 Number     Number       Type             X           Y           Z
 ---------------------------------------------------------------------
      1          6           0       -5.162882   -1.980548    0.457150
      2          6           0       -4.757749    2.754837    1.315650
      3          6           0       -9.309487    3.431934   -0.214135
      4          6           0       -9.836848   -1.391494   -1.007063
      5          7           0       -5.147192    0.410599    0.694533
      6          6           0       -4.516041   -0.812473    0.792245
      7          6           0       -3.141331   -0.552138    1.287247
      8          6           0       -3.113391    0.835904    1.722271
      9          6           0       -4.428177    1.371710    1.252262
     10          6           0       -2.942219    1.023482    3.191137
     11          6           0       -2.111659   -0.939190    0.146504
     12          6           0       -0.622559   -0.791741    0.566015
     13          6           0        0.468621   -1.229648   -0.456248
     14          8           0        0.142785   -1.913452   -1.443462
     15          8           0        1.714362   -0.932713   -0.165357
     16          7           0       -7.028720    2.758262    0.523214
     17          6           0       -5.895139    3.364893    1.019485
     18          6           0       -6.232380    4.855455    1.098364
     19          6           0       -7.503316    5.058898    0.658155
     20          6           0       -7.958010    3.732096    0.282138
     21          6           0       -5.162240    5.717099    1.512638
     22          6           0       -8.221004    6.362156    0.564572
     23          6           0       -8.858563    6.834296   -0.442097
     24          7           0       -9.189850    0.931815   -0.706124
     25          6           0       -9.778839    2.184221   -0.557025
     26          6           0      -11.244640    2.014675   -0.972713
     27          6           0      -11.395005    0.621062   -1.330390
     28          6           0      -10.034266   -0.024916   -1.086988
     29          6           0      -12.171210    3.116427   -1.026129
     30          6           0      -12.595781   -0.088940   -1.765871
     31          6           0      -12.651580   -0.346058   -3.326778
     32          7           0       -7.473702   -1.261671   -0.298623
     33          6           0       -8.577058   -2.017218   -0.666502
     34          6           0       -8.190166   -3.359630   -0.621417
     35          6           0       -6.903939   -3.387566   -0.240352
     36          6           0       -6.459627   -2.076311   -0.007916
     37          6           0       -8.988147   -4.575164   -1.161583
     38          6           0       -5.803919   -4.259351    0.085014
     39          8           0       -5.774036   -5.485196    0.163249
     40          6           0       -4.614816   -3.420779    0.489375
     41          6           0       -4.046905   -3.883990    1.756419
     42          8           0       -4.257552   -3.426307    2.862213
     43          8           0       -3.263766   -4.940263    1.597838
     44          6           0       -2.744859   -5.514238    2.750034
     45          6           0        2.687821   -1.249080   -1.077035
     46          6           0        4.066309   -0.844385   -0.509528
     47          6           0        4.931886    0.013152   -1.005906
     48          6           0        4.830988    0.907272   -2.201476
     49          6           0        6.191033    0.233303   -0.240463
     50          6           0        7.502319   -0.379684   -0.946397
     51          6           0        8.817996   -0.316750   -0.008726
     52          6           0       10.145663   -0.830396   -0.792950
     53          6           0       10.099072   -2.240703   -1.073432
     54          6           0       11.385719   -0.404566    0.053954
     55          6           0       12.707969   -0.605472   -0.612431
     56          6           0       13.692853    0.151099    0.160211
     57          6           0       15.223205    0.024192   -0.394810
     58          6           0       15.619761   -1.502206   -0.773356
     59          6           0       16.256680    0.754721    0.492017
     60          6           0       17.642255    0.680629   -0.154671
     61          6           0       18.606646    1.646679    0.666328
     62          6           0       20.021252    1.696172    0.088471
     63          6           0       20.115316    2.325643   -1.375698
     64          6           0       21.011234    2.342414    1.055282
     65          1           0       -3.866915    3.333560    1.853396
     66          1           0      -10.041181    4.411184   -0.333732
     67          1           0      -10.714897   -2.119133   -1.352347
     68          1           0       -3.082500   -1.504413    2.037366
     69          1           0       -2.426430    1.553856    1.235260
     70          1           0       -1.915653    0.588137    3.408970
     71          1           0       -2.842154    2.042431    3.621090
     72          1           0       -3.812226    0.459123    3.702464
     73          1           0       -2.408718   -2.075161    0.028053
     74          1           0       -2.334187   -0.318926   -0.808275
     75          1           0       -0.305552    0.332280    0.871281
     76          1           0       -0.539421   -1.506152    1.583827
     77          1           0       -4.297591    6.037389    0.860205
     78          1           0       -5.590962    6.674878    1.709598
     79          1           0       -4.785249    5.511485    2.539734
     80          1           0       -7.843217    7.066692    1.312100
     81          1           0       -9.001395    6.065538   -1.304495
     82          1           0       -9.434248    7.923698   -0.493869
     83          1           0      -12.377450    3.586258    0.002812
     84          1           0      -11.567246    3.655756   -1.844897
     85          1           0      -13.111866    2.866516   -1.549294
     86          1           0      -12.632134   -1.231703   -1.452608
     87          1           0      -13.545686    0.190347   -1.424921
     88          1           0      -12.325977    0.695206   -3.893020
     89          1           0      -11.917512   -0.928509   -3.546001
     90          1           0      -13.428665   -0.958772   -3.705415
     91          1           0       -9.800027   -4.698803   -0.462614
     92          1           0       -9.076962   -4.599742   -2.198132
     93          1           0       -8.342222   -5.505325   -1.224311
     94          1           0       -3.945583   -3.880677   -0.330178
     95          1           0       -2.309005   -6.548799    2.530144
     96          1           0       -1.969493   -4.887615    3.313366
     97          1           0       -3.647761   -6.154488    3.221854
     98          1           0        2.732770   -2.314553   -1.264363
     99          1           0        2.575646   -0.724240   -1.994583
    100          1           0        4.161059   -1.285370    0.513564
    101          1           0        5.447403    1.949789   -2.274569
    102          1           0        5.171840    0.284544   -3.049836
    103          1           0        3.805458    1.275852   -2.528850
    104          1           0        6.361566    1.343259   -0.025415
    105          1           0        6.272890   -0.119401    0.838290
    106          1           0        7.253253   -1.457092   -1.216351
    107          1           0        7.722255    0.005531   -1.958903
    108          1           0        8.768355    0.797917    0.530984
    109          1           0        8.612650   -0.910746    0.846261
    110          1           0       10.220103   -0.000053   -1.633322
    111          1           0        9.168819   -2.620712   -1.679917
    112          1           0       10.960719   -2.549609   -1.652551
    113          1           0       10.430129   -2.914945   -0.051933
    114          1           0       11.341648    0.696556    0.647317
    115          1           0       11.518557   -1.009263    0.877691
    116          1           0       12.956958   -1.531650   -0.818145
    117          1           0       12.744730   -0.117779   -1.645501
    118          1           0       13.515336    1.191329    0.392307
    119          1           0       13.722976   -0.369441    1.136356
    120          1           0       15.181347    0.464766   -1.396222
    121          1           0       15.008239   -1.927655   -1.535229
    122          1           0       16.579606   -1.717264   -1.224892
    123          1           0       15.580142   -2.350971   -0.020009
    124          1           0       15.810910    1.729752    0.660077
    125          1           0       16.264939    0.120650    1.387354
    126          1           0       17.893672   -0.320018   -0.308041
    127          1           0       17.746215    1.040414   -1.240763
    128          1           0       17.998140    2.650403    0.875427
    129          1           0       18.421231    1.092563    1.706618
    130          1           0       20.330655    0.556350    0.180598
    131          1           0       20.058790    3.409332   -1.364272
    132          1           0       21.248262    2.125847   -1.608980
    133          1           0       19.408027    1.725957   -2.022027
    134          1           0       21.108049    1.863121    1.968182
    135          1           0       21.933067    2.353097    0.638488
    136          1           0       20.912178    3.409343    1.234159
    137          1           0       -7.153521    1.771813    0.466506
    138          1           0       -7.478163   -0.161832   -0.376903
 ---------------------------------------------------------------------

 SCF Done:  E(RB3LYP) =  -2733.06440740     A.U. after   17 cycles

 Excitation energies and oscillator strengths:

 Excited State   1:      Singlet-A      2.0761 eV  597.20 nm  f=0.2256  <S**2>=0.000
     235 -> 237       -0.10575
     235 -> 238       -0.24995
     236 -> 237        0.64500
 This state for optimization and/or second-order correction.
 Total Energy, E(TD-HF/TD-KS) =  -2732.98811227
 Copying the excited state density for this state as the 1-particle RhoCI density.

 The electronic state is 1-A.
 Alpha  occ. eigenvalues --  -19.19028 -19.17861 -19.11626 -19.11577 -19.10980
 Alpha  occ. eigenvalues --  -14.37693 -14.36824 -14.31948 -14.29918 -10.31988
 Alpha  occ. eigenvalues --  -10.31160 -10.26945 -10.25508 -10.25023 -10.24220
 Alpha  occ. eigenvalues --  -10.23963 -10.23221 -10.22943 -10.22826 -10.22615
 Alpha  occ. eigenvalues --  -10.22411 -10.22040 -10.21542 -10.21507 -10.21487
 Alpha  occ. eigenvalues --  -10.21475 -10.21334 -10.21296 -10.21244 -10.21109
 Alpha  occ. eigenvalues --  -10.20927 -10.20787 -10.20566 -10.20499 -10.20425
 Alpha  occ. eigenvalues --  -10.20229 -10.20225 -10.20087 -10.20037 -10.19985
 Alpha  occ. eigenvalues --  -10.19852 -10.19724 -10.19681 -10.19641 -10.19635
 Alpha  occ. eigenvalues --  -10.19622 -10.19384 -10.19380 -10.19306 -10.19275
 Alpha  occ. eigenvalues --  -10.19094 -10.19049 -10.18729 -10.18666 -10.18620
 Alpha  occ. eigenvalues --  -10.18323 -10.17885 -10.17729 -10.17718 -10.17662
 Alpha  occ. eigenvalues --  -10.17505 -10.17194 -10.16623 -10.15721  -1.11879
 Alpha  occ. eigenvalues --   -1.11023  -1.01467  -1.00277  -0.99412  -0.98877
 Alpha  occ. eigenvalues --   -0.98741  -0.95427  -0.92039  -0.85657  -0.83465
 Alpha  occ. eigenvalues --   -0.82486  -0.82157  -0.81348  -0.81107  -0.80254
 Alpha  occ. eigenvalues --   -0.80134  -0.79225  -0.78747  -0.78613  -0.78168
 Alpha  occ. eigenvalues --   -0.77480  -0.76763  -0.76464  -0.75832  -0.74375
 Alpha  occ. eigenvalues --   -0.73594  -0.73212  -0.72564  -0.72057  -0.71546
 Alpha  occ. eigenvalues --   -0.70191  -0.69451  -0.68455  -0.67919  -0.67716
 Alpha  occ. eigenvalues --   -0.67290  -0.67126  -0.66128  -0.66079  -0.65317
 Alpha  occ. eigenvalues --   -0.64145  -0.62982  -0.62218  -0.61949  -0.61281
 Alpha  occ. eigenvalues --   -0.61066  -0.59184  -0.58884  -0.58141  -0.57575
 Alpha  occ. eigenvalues --   -0.57220  -0.56726  -0.56487  -0.56186  -0.55614
 Alpha  occ. eigenvalues --   -0.55222  -0.54850  -0.54531  -0.54040  -0.53368
 Alpha  occ. eigenvalues --   -0.52934  -0.52157  -0.51369  -0.51123  -0.50943
 Alpha  occ. eigenvalues --   -0.50227  -0.49624  -0.49156  -0.48487  -0.48200
 Alpha  occ. eigenvalues --   -0.47990  -0.47885  -0.47492  -0.47246  -0.46820
 Alpha  occ. eigenvalues --   -0.46558  -0.46497  -0.46315  -0.46189  -0.45651
 Alpha  occ. eigenvalues --   -0.45346  -0.45198  -0.45112  -0.45060  -0.44828
 Alpha  occ. eigenvalues --   -0.44629  -0.44587  -0.44259  -0.44059  -0.43740
 Alpha  occ. eigenvalues --   -0.43440  -0.43130  -0.42884  -0.42623  -0.42454
 Alpha  occ. eigenvalues --   -0.42372  -0.42131  -0.41868  -0.41664  -0.41457
 Alpha  occ. eigenvalues --   -0.41418  -0.41082  -0.40746  -0.40635  -0.40195
 Alpha  occ. eigenvalues --   -0.40021  -0.39797  -0.39646  -0.39541  -0.39274
 Alpha  occ. eigenvalues --   -0.39033  -0.38776  -0.38636  -0.38498  -0.38193
 Alpha  occ. eigenvalues --   -0.38028  -0.37701  -0.37559  -0.37455  -0.37072
 Alpha  occ. eigenvalues --   -0.37014  -0.36781  -0.36706  -0.36594  -0.36307
 Alpha  occ. eigenvalues --   -0.36270  -0.36117  -0.35975  -0.35850  -0.35725
 Alpha  occ. eigenvalues --   -0.35230  -0.35107  -0.34838  -0.34804  -0.34302
 Alpha  occ. eigenvalues --   -0.34000  -0.33988  -0.33911  -0.33726  -0.33441
 Alpha  occ. eigenvalues --   -0.33400  -0.33003  -0.32850  -0.32269  -0.32212
 Alpha  occ. eigenvalues --   -0.32038  -0.31943  -0.31702  -0.31537  -0.31133
 Alpha  occ. eigenvalues --   -0.30946  -0.30834  -0.30691  -0.30311  -0.29912
 Alpha  occ. eigenvalues --   -0.29725  -0.29224  -0.28079  -0.27508  -0.27240
 Alpha  occ. eigenvalues --   -0.27104  -0.27024  -0.26531  -0.26032  -0.25766
 Alpha  occ. eigenvalues --   -0.25040  -0.24692  -0.24244  -0.21350  -0.20241
 Alpha  occ. eigenvalues --   -0.18463
 Alpha virt. eigenvalues --   -0.10123  -0.07158  -0.04032  -0.01837  -0.00807
 Alpha virt. eigenvalues --   -0.00472   0.00200   0.00496   0.02166   0.03468
 Alpha virt. eigenvalues --    0.04003   0.04368   0.04428   0.04620   0.04742

 Mulliken charges:
               1
     1  C    0.054243
     2  C   -0.096275
     3  C   -0.178168
     4  C   -0.089704
     5  N   -0.173473
     6  C   -0.122983
     7  C   -0.067556
     8  C    0.050665
     9  C   -0.077709
    10  C    0.028449
    11  C    0.008766
    12  C   -0.043676
    13  C    0.185042
    14  O   -0.272168
    15  O   -0.245638
    16  N   -0.031973
    17  C    0.123043
    18  C   -0.099414
    19  C    0.009148
    20  C    0.053241
    21  C    0.110164
    22  C   -0.002064
    23  C   -0.085812
    24  N   -0.248778
    25  C    0.124904
    26  C   -0.175126
    27  C   -0.050766
    28  C    0.073692
    29  C    0.064822
    30  C    0.022567
    31  C    0.061594
    32  N   -0.054922
    33  C    0.041923
    34  C   -0.194709
    35  C    0.070162
    36  C    0.063657
    37  C    0.125702
    38  C   -0.006386
    39  O   -0.191069
    40  C    0.003307
    41  C    0.170596
    42  O   -0.232165
    43  O   -0.251027
    44  C    0.125248
    45  C    0.316225
    46  C   -0.153251
    47  C   -0.051642
    48  C    0.002512
    49  C    0.032188
    50  C   -0.022334
    51  C   -0.008103
    52  C   -0.041097
    53  C    0.015293
    54  C   -0.009146
    55  C    0.128590
    56  C    0.019322
    57  C   -0.087605
    58  C   -0.008909
    59  C    0.100446
    60  C    0.002894
    61  C   -0.023502
    62  C   -0.107278
    63  C    0.012166
    64  C    0.132759
    65  H    0.008543
    66  H    0.042165
    67  H    0.029098
    68  H    0.050440
    69  H   -0.001745
    70  H    0.014540
    71  H    0.012015
    72  H    0.043579
    73  H    0.042875
    74  H    0.029421
    75  H    0.046138
    76  H    0.056693
    77  H    0.045099
    78  H   -0.031802
    79  H    0.020178
    80  H    0.004993
    81  H    0.050177
    82  H    0.065753
    83  H    0.054982
    84  H    0.046211
    85  H    0.009817
    86  H   -0.005792
    87  H   -0.010906
    88  H    0.018665
    89  H   -0.053772
    90  H   -0.003453
    91  H    0.034816
    92  H    0.010718
    93  H    0.018008
    94  H    0.079637
    95  H    0.022258
    96  H    0.059960
    97  H    0.039428
    98  H    0.014106
    99  H   -0.014226
   100  H    0.002906
   101  H    0.045120
   102  H    0.032556
   103  H    0.030371
   104  H    0.003778
   105  H   -0.002001
   106  H    0.002249
   107  H   -0.004161
   108  H    0.009747
   109  H   -0.016737
   110  H    0.021032
   111  H    0.042634
   112  H    0.005034
   113  H    0.025788
   114  H    0.013471
   115  H   -0.043215
   116  H   -0.049212
   117  H   -0.026024
   118  H   -0.006455
   119  H   -0.024178
   120  H   -0.012165
   121  H   -0.013320
   122  H   -0.006957
   123  H   -0.000798
   124  H   -0.004577
   125  H   -0.000442
   126  H   -0.020825
   127  H   -0.016037
   128  H    0.007304
   129  H   -0.000481
   130  H    0.006860
   131  H    0.020570
   132  H    0.019889
   133  H    0.039257
   134  H   -0.014496
   135  H   -0.044905
   136  H   -0.015480
   137  H    0.127700
   138  H    0.188679
 Sum of Mulliken charges =   0.00000

 Dipole moment (field-independent basis, Debye):
    X=              3.3092    Y=              5.7228    Z=              0.2488  Tot=              6.6154
 Quadrupole moment (field-independent basis, Debye-Ang):
   XX=           -361.1938   YY=           -374.3729   ZZ=           -397.5666
   XY=            -36.4991   XZ=              3.0077   YZ=              4.0462

 Normal termination of Gaussian 09 at Sun Aug  4 20:23:56 2019.
