 Gaussian 09, Revision D.01,
 Gaussian 09:  ES64L-G09RevD.01 24-Apr-2013

 --------------------------
 # td=(NStates=1) B3LYP/SVP
 --------------------------

 --
 TD
 --
 Symbolic Z-matrix:
 Charge =  0 Multiplicity = 1

                         Standard orientation:
 ---------------------------------------------------------------------
 Center     Atomic      Atomic             Coordinates (Angstroms)
 Number     Number       Type             X           Y           Z
 ---------------------------------------------------------------------
      1          6           0       -5.057537   -1.932466    0.497502
      2          6           0       -4.790488    2.714384    1.293346
      3          6           0       -9.372780    3.169446   -0.251092
      4          6           0       -9.834775   -1.473654   -0.766877
      5          7           0       -5.195197    0.414187    0.865017
      6          6           0       -4.526038   -0.679633    0.791539
      7          6           0       -3.010812   -0.472179    1.222817
      8          6           0       -3.024954    0.966597    1.789717
      9          6           0       -4.406679    1.397229    1.386065
     10          6           0       -2.923138    0.996039    3.277645
     11          6           0       -2.097942   -0.657934    0.057865
     12          6           0       -0.672532   -0.679484    0.485608
     13          6           0        0.377972   -1.030716   -0.693679
     14          8           0        0.002213   -1.446907   -1.795094
     15          8           0        1.612752   -0.882063   -0.356931
     16          7           0       -7.099465    2.769031    0.469410
     17          6           0       -5.994376    3.451316    0.971844
     18          6           0       -6.452473    4.765316    1.071810
     19          6           0       -7.683180    4.962885    0.611537
     20          6           0       -8.172677    3.557693    0.234542
     21          6           0       -5.518978    5.970377    1.498464
     22          6           0       -8.361559    6.178256    0.473340
     23          6           0       -9.235589    6.440836   -0.556116
     24          7           0       -9.197087    0.847503   -0.444736
     25          6           0       -9.912446    1.915976   -0.576587
     26          6           0      -11.217491    1.743656   -1.133192
     27          6           0      -11.400280    0.407108   -1.231598
     28          6           0      -10.091886   -0.119753   -0.894659
     29          6           0      -12.225310    2.871409   -1.349597
     30          6           0      -12.607705   -0.488437   -1.541768
     31          6           0      -12.545332   -0.748181   -3.099670
     32          7           0       -7.485337   -1.277052   -0.160900
     33          6           0       -8.489396   -1.994846   -0.478147
     34          6           0       -8.165358   -3.434140   -0.424492
     35          6           0       -6.768727   -3.485816   -0.053056
     36          6           0       -6.394410   -2.112665    0.195891
     37          6           0       -8.984738   -4.602090   -0.726022
     38          6           0       -5.544507   -4.268966    0.139337
     39          8           0       -5.484539   -5.564910   -0.056754
     40          6           0       -4.401289   -3.380230    0.510108
     41          6           0       -3.771238   -3.754132    1.754401
     42          8           0       -4.152975   -3.346030    2.895273
     43          8           0       -2.782138   -4.697787    1.621483
     44          6           0       -2.335451   -5.276601    2.866054
     45          6           0        2.593536   -1.016342   -1.490238
     46          6           0        3.863517   -0.634323   -0.842621
     47          6           0        4.939498    0.100738   -1.384790
     48          6           0        4.822060    0.832574   -2.643852
     49          6           0        6.144199    0.353679   -0.506004
     50          6           0        7.485669   -0.237350   -1.172954
     51          6           0        8.717313   -0.130313   -0.089780
     52          6           0        9.993569   -0.635713   -0.794023
     53          6           0       10.008040   -2.102520   -1.155694
     54          6           0       11.282550   -0.160683    0.032782
     55          6           0       12.648737   -0.419805   -0.601736
     56          6           0       13.819697    0.202984    0.048673
     57          6           0       15.211673   -0.061595   -0.405471
     58          6           0       15.636599   -1.587188   -0.646774
     59          6           0       16.174638    0.580527    0.427796
     60          6           0       17.631654    0.667941   -0.087314
     61          6           0       18.634362    1.525032    0.825204
     62          6           0       20.149370    1.528313    0.387126
     63          6           0       20.375497    2.034749   -1.141202
     64          6           0       21.076187    2.127711    1.432210
     65          1           0       -4.162108    3.484980    1.844304
     66          1           0       -9.989900    4.067942   -0.452922
     67          1           0      -10.603500   -2.228191   -1.073638
     68          1           0       -2.802450   -1.093913    1.963897
     69          1           0       -2.247612    1.617888    1.301790
     70          1           0       -1.824604    0.885281    3.915907
     71          1           0       -3.295867    2.149694    3.475787
     72          1           0       -3.616782    0.375237    3.851119
     73          1           0       -2.310984   -1.714036   -0.603082
     74          1           0       -2.237546    0.338992   -0.652706
     75          1           0       -0.256685    0.302325    1.065738
     76          1           0       -0.340908   -1.599171    1.275998
     77          1           0       -4.669324    5.888764    0.662601
     78          1           0       -5.945306    7.085690    1.375555
     79          1           0       -5.101124    5.949742    2.451353
     80          1           0       -8.201900    6.900579    1.347039
     81          1           0       -9.564960    5.664924   -1.232329
     82          1           0       -9.709115    7.432858   -0.767581
     83          1           0      -12.544689    3.091380   -0.090952
     84          1           0      -11.857399    3.918415   -1.882591
     85          1           0      -13.099545    2.460804   -2.041956
     86          1           0      -12.726422   -1.403620   -0.901387
     87          1           0      -13.496994    0.046232   -1.259919
     88          1           0      -12.417404    0.158861   -3.696638
     89          1           0      -11.554023   -1.387413   -3.437599
     90          1           0      -13.624119   -1.265830   -3.327384
     91          1           0       -9.829787   -4.577579   -0.061775
     92          1           0       -9.307594   -4.399168   -1.770186
     93          1           0       -8.179563   -5.415631   -0.473078
     94          1           0       -3.599745   -3.276621   -0.314294
     95          1           0       -1.707424   -6.114682    2.691562
     96          1           0       -1.887059   -4.496097    3.384832
     97          1           0       -3.112530   -5.808088    3.406103
     98          1           0        2.483509   -1.920874   -1.860051
     99          1           0        2.340294   -0.243767   -2.322197
    100          1           0        3.861785   -0.856959    0.191200
    101          1           0        5.173822    1.778992   -2.552136
    102          1           0        5.313336    0.121614   -3.328449
    103          1           0        3.874460    0.974752   -3.051869
    104          1           0        6.356439    1.445236   -0.370798
    105          1           0        5.912823   -0.271913    0.398700
    106          1           0        7.222297   -1.348249   -1.376310
    107          1           0        7.719192    0.187306   -2.095150
    108          1           0        8.762401    0.918215    0.302810
    109          1           0        8.512465   -0.791669    0.830700
    110          1           0       10.064558   -0.162433   -1.733193
    111          1           0        9.161331   -2.509838   -1.831817
    112          1           0       11.157823   -2.204625   -1.589496
    113          1           0        9.974525   -2.512983   -0.229303
    114          1           0       11.135054    0.865650    0.309466
    115          1           0       11.188615   -0.771585    0.928403
    116          1           0       12.750621   -1.410136   -0.828807
    117          1           0       12.481286   -0.087990   -1.535056
    118          1           0       13.666341    1.378538   -0.008788
    119          1           0       13.701023    0.113439    1.237150
    120          1           0       15.148820    0.263510   -1.371350
    121          1           0       14.997873   -2.148966   -1.553551
    122          1           0       16.648860   -1.694861   -1.109331
    123          1           0       15.363798   -2.277212    0.235104
    124          1           0       15.936022    1.575020    0.881696
    125          1           0       16.238461    0.135598    1.557606
    126          1           0       17.918873   -0.462487   -0.163220
    127          1           0       17.992881    1.355089   -1.032672
    128          1           0       18.218098    2.499718    1.092256
    129          1           0       18.602143    1.004063    1.777623
    130          1           0       20.490546    0.434343    0.201251
    131          1           0       20.314541    3.130948   -1.305856
    132          1           0       21.406792    1.574947   -1.372532
    133          1           0       19.802949    1.222437   -1.661957
    134          1           0       21.159493    1.550213    2.362924
    135          1           0       22.076399    2.122656    1.141731
    136          1           0       20.985353    3.289761    1.657741
    137          1           0       -7.066247    1.838755    0.362333
    138          1           0       -7.513163   -0.229016    0.010947
 ---------------------------------------------------------------------

 SCF Done:  E(RB3LYP) =  -2733.02261483     A.U. after   17 cycles

 Excitation energies and oscillator strengths:

 Excited State   1:      Singlet-A      2.0056 eV  618.19 nm  f=0.2794  <S**2>=0.000
     235 -> 237       -0.11176
     235 -> 238       -0.23835
     236 -> 237        0.65039
 This state for optimization and/or second-order correction.
 Total Energy, E(TD-HF/TD-KS) =  -2732.94891013
 Copying the excited state density for this state as the 1-particle RhoCI density.

 The electronic state is 1-A.
 Alpha  occ. eigenvalues --  -19.18361 -19.18186 -19.12331 -19.11514 -19.11066
 Alpha  occ. eigenvalues --  -14.37364 -14.36202 -14.32218 -14.29762 -10.32262
 Alpha  occ. eigenvalues --  -10.31105 -10.28316 -10.24951 -10.24187 -10.23521
 Alpha  occ. eigenvalues --  -10.23506 -10.23436 -10.23180 -10.23064 -10.22977
 Alpha  occ. eigenvalues --  -10.22912 -10.22665 -10.22448 -10.21697 -10.21500
 Alpha  occ. eigenvalues --  -10.21293 -10.21184 -10.21105 -10.20938 -10.20904
 Alpha  occ. eigenvalues --  -10.20689 -10.20636 -10.20614 -10.20515 -10.20475
 Alpha  occ. eigenvalues --  -10.20400 -10.20386 -10.20361 -10.20336 -10.20141
 Alpha  occ. eigenvalues --  -10.20058 -10.20027 -10.19990 -10.19782 -10.19748
 Alpha  occ. eigenvalues --  -10.19692 -10.19378 -10.19358 -10.19228 -10.19085
 Alpha  occ. eigenvalues --  -10.19017 -10.18822 -10.18786 -10.18714 -10.18620
 Alpha  occ. eigenvalues --  -10.18592 -10.18551 -10.18403 -10.18335 -10.18064
 Alpha  occ. eigenvalues --  -10.18051 -10.17908 -10.17826 -10.16202  -1.10175
 Alpha  occ. eigenvalues --   -1.08032  -0.99466  -0.98896  -0.98672  -0.98196
 Alpha  occ. eigenvalues --   -0.97195  -0.96034  -0.95423  -0.85578  -0.83037
 Alpha  occ. eigenvalues --   -0.82958  -0.82495  -0.81835  -0.81178  -0.80837
 Alpha  occ. eigenvalues --   -0.80032  -0.79746  -0.78842  -0.78802  -0.77887
 Alpha  occ. eigenvalues --   -0.77231  -0.76253  -0.75992  -0.75176  -0.74161
 Alpha  occ. eigenvalues --   -0.73492  -0.73348  -0.72545  -0.71934  -0.70545
 Alpha  occ. eigenvalues --   -0.70090  -0.69437  -0.68620  -0.68017  -0.67617
 Alpha  occ. eigenvalues --   -0.66923  -0.66779  -0.66282  -0.66239  -0.64914
 Alpha  occ. eigenvalues --   -0.64184  -0.63196  -0.62706  -0.62250  -0.61720
 Alpha  occ. eigenvalues --   -0.60535  -0.58929  -0.58518  -0.58252  -0.57767
 Alpha  occ. eigenvalues --   -0.57509  -0.56587  -0.56244  -0.56197  -0.56150
 Alpha  occ. eigenvalues --   -0.55431  -0.55193  -0.54667  -0.54116  -0.53432
 Alpha  occ. eigenvalues --   -0.52772  -0.52058  -0.51820  -0.51576  -0.50192
 Alpha  occ. eigenvalues --   -0.50034  -0.49700  -0.48989  -0.48355  -0.48240
 Alpha  occ. eigenvalues --   -0.48002  -0.47874  -0.47390  -0.47009  -0.46877
 Alpha  occ. eigenvalues --   -0.46783  -0.46508  -0.46235  -0.45948  -0.45759
 Alpha  occ. eigenvalues --   -0.45734  -0.45552  -0.45220  -0.44945  -0.44708
 Alpha  occ. eigenvalues --   -0.44468  -0.44336  -0.43917  -0.43781  -0.43726
 Alpha  occ. eigenvalues --   -0.43628  -0.43154  -0.42766  -0.42652  -0.42433
 Alpha  occ. eigenvalues --   -0.42104  -0.41960  -0.41771  -0.41751  -0.41486
 Alpha  occ. eigenvalues --   -0.41326  -0.40991  -0.40836  -0.40638  -0.40387
 Alpha  occ. eigenvalues --   -0.40294  -0.39814  -0.39590  -0.39351  -0.39212
 Alpha  occ. eigenvalues --   -0.39132  -0.38886  -0.38361  -0.38260  -0.38162
 Alpha  occ. eigenvalues --   -0.38060  -0.37832  -0.37660  -0.37398  -0.37290
 Alpha  occ. eigenvalues --   -0.37107  -0.36950  -0.36739  -0.36471  -0.36340
 Alpha  occ. eigenvalues --   -0.36252  -0.36132  -0.36077  -0.35933  -0.35777
 Alpha  occ. eigenvalues --   -0.35618  -0.35381  -0.35030  -0.34911  -0.34713
 Alpha  occ. eigenvalues --   -0.34610  -0.34412  -0.34163  -0.33990  -0.33910
 Alpha  occ. eigenvalues --   -0.33472  -0.33301  -0.33087  -0.32854  -0.32745
 Alpha  occ. eigenvalues --   -0.32398  -0.31793  -0.31562  -0.31369  -0.31151
 Alpha  occ. eigenvalues --   -0.31082  -0.30614  -0.30544  -0.30266  -0.30090
 Alpha  occ. eigenvalues --   -0.29254  -0.29091  -0.28433  -0.27949  -0.27807
 Alpha  occ. eigenvalues --   -0.27613  -0.27436  -0.27076  -0.26190  -0.25160
 Alpha  occ. eigenvalues --   -0.24721  -0.24187  -0.23418  -0.23180  -0.20328
 Alpha  occ. eigenvalues --   -0.18139
 Alpha virt. eigenvalues --   -0.10255  -0.07712  -0.05356  -0.02700  -0.01703
 Alpha virt. eigenvalues --   -0.01167   0.00104   0.01106   0.02500   0.03036
 Alpha virt. eigenvalues --    0.03795   0.03959   0.04201   0.04400   0.04443

 Mulliken charges:
               1
     1  C   -0.032696
     2  C   -0.001518
     3  C   -0.079043
     4  C   -0.106948
     5  N   -0.121468
     6  C   -0.114786
     7  C    0.094841
     8  C   -0.021125
     9  C   -0.034087
    10  C   -0.017381
    11  C   -0.010507
    12  C   -0.085655
    13  C    0.172180
    14  O   -0.279232
    15  O   -0.287449
    16  N    0.005272
    17  C    0.013690
    18  C   -0.082049
    19  C    0.073548
    20  C    0.041440
    21  C    0.017423
    22  C   -0.091169
    23  C   -0.047405
    24  N   -0.203487
    25  C    0.066399
    26  C   -0.118717
    27  C   -0.105958
    28  C    0.089079
    29  C   -0.050932
    30  C    0.095896
    31  C   -0.055789
    32  N    0.002286
    33  C    0.024972
    34  C   -0.214963
    35  C    0.048230
    36  C    0.054566
    37  C    0.099561
    38  C    0.058542
    39  O   -0.267868
    40  C    0.086802
    41  C    0.227667
    42  O   -0.284343
    43  O   -0.317086
    44  C    0.247006
    45  C    0.334247
    46  C   -0.113134
    47  C   -0.189988
    48  C    0.174554
    49  C    0.097016
    50  C   -0.051843
    51  C    0.027472
    52  C   -0.080109
    53  C    0.020740
    54  C    0.019352
    55  C    0.182081
    56  C   -0.046067
    57  C    0.101878
    58  C   -0.071551
    59  C    0.009602
    60  C   -0.072477
    61  C    0.043307
    62  C   -0.131020
    63  C   -0.003886
    64  C    0.063340
    65  H   -0.012059
    66  H   -0.043076
    67  H   -0.005043
    68  H   -0.059969
    69  H    0.015545
    70  H    0.040159
    71  H    0.013966
    72  H    0.035988
    73  H    0.063916
    74  H    0.035527
    75  H    0.051535
    76  H    0.049010
    77  H    0.044733
    78  H    0.036229
    79  H    0.020924
    80  H    0.033214
    81  H    0.030202
    82  H    0.036313
    83  H    0.062687
    84  H    0.056210
    85  H    0.045838
    86  H    0.020569
    87  H   -0.008052
    88  H    0.023521
    89  H    0.040117
    90  H    0.033879
    91  H    0.025280
    92  H    0.040861
    93  H    0.076498
    94  H    0.080837
    95  H    0.013427
    96  H    0.016767
    97  H    0.026085
    98  H   -0.004975
    99  H    0.036450
   100  H   -0.010601
   101  H   -0.005433
   102  H    0.028780
   103  H   -0.024228
   104  H    0.015182
   105  H    0.005026
   106  H    0.015662
   107  H   -0.003931
   108  H    0.002760
   109  H    0.004505
   110  H   -0.030077
   111  H    0.038868
   112  H    0.027685
   113  H   -0.024023
   114  H   -0.015874
   115  H   -0.019435
   116  H   -0.042923
   117  H   -0.062099
   118  H   -0.002189
   119  H   -0.008338
   120  H   -0.037101
   121  H    0.007979
   122  H    0.033980
   123  H    0.029468
   124  H   -0.020032
   125  H   -0.005242
   126  H    0.021870
   127  H    0.033174
   128  H   -0.002149
   129  H   -0.024912
   130  H   -0.002030
   131  H    0.040114
   132  H    0.004386
   133  H    0.022875
   134  H    0.007824
   135  H   -0.027904
   136  H    0.012434
   137  H    0.061697
   138  H    0.179886
 Sum of Mulliken charges =   0.00000

 Dipole moment (field-independent basis, Debye):
    X=              2.5371    Y=              5.5202    Z=              0.1453  Tot=              6.0770
 Quadrupole moment (field-independent basis, Debye-Ang):
   XX=           -331.8605   YY=           -391.4572   ZZ=           -396.0347
   XY=            -27.0371   XZ=              4.9088   YZ=             -4.7726

 Normal termination of Gaussian 09 at Sun Aug  4 22:50:42 2019.
