 Gaussian 09, Revision D.01,
 Gaussian 09:  ES64L-G09RevD.01 24-Apr-2013

 --------------------------
 # td=(NStates=1) B3LYP/SVP
 --------------------------

 --
 TD
 --
 Symbolic Z-matrix:
 Charge =  0 Multiplicity = 1

                         Standard orientation:
 ---------------------------------------------------------------------
 Center     Atomic      Atomic             Coordinates (Angstroms)
 Number     Number       Type             X           Y           Z
 ---------------------------------------------------------------------
      1          6           0       -5.035734   -1.916802    0.482871
      2          6           0       -4.575682    2.851601    1.341935
      3          6           0       -9.312160    3.346517   -0.308805
      4          6           0       -9.775024   -1.430441   -0.848916
      5          7           0       -5.090007    0.388588    0.779348
      6          6           0       -4.505960   -0.816605    0.817699
      7          6           0       -3.053669   -0.580584    1.244116
      8          6           0       -2.974899    0.861349    1.757718
      9          6           0       -4.332464    1.444758    1.312907
     10          6           0       -2.850477    0.910968    3.319676
     11          6           0       -2.023888   -0.912553    0.053962
     12          6           0       -0.633698   -0.818451    0.389558
     13          6           0        0.282226   -1.051433   -0.757338
     14          8           0       -0.076509   -1.290601   -1.925621
     15          8           0        1.545331   -1.016588   -0.272948
     16          7           0       -6.940895    2.788554    0.416753
     17          6           0       -5.857398    3.411061    1.059417
     18          6           0       -6.094672    4.759510    1.051736
     19          6           0       -7.428401    5.047264    0.564053
     20          6           0       -8.017845    3.705851    0.151351
     21          6           0       -5.160404    5.837524    1.462369
     22          6           0       -8.059503    6.359498    0.532257
     23          6           0       -8.914062    6.713909   -0.430388
     24          7           0       -9.157127    0.995869   -0.553022
     25          6           0       -9.862805    2.111176   -0.581752
     26          6           0      -11.209376    1.895953   -0.940205
     27          6           0      -11.365889    0.604343   -1.132157
     28          6           0      -10.039842    0.018160   -0.915054
     29          6           0      -12.250892    3.063210   -1.151895
     30          6           0      -12.560289   -0.169725   -1.692488
     31          6           0      -12.589842   -0.516083   -3.209394
     32          7           0       -7.363268   -1.288997   -0.275405
     33          6           0       -8.556729   -1.924240   -0.678500
     34          6           0       -8.106807   -3.316361   -0.583668
     35          6           0       -6.763264   -3.385055   -0.184929
     36          6           0       -6.389124   -2.068541    0.079088
     37          6           0       -9.060997   -4.529985   -0.785633
     38          6           0       -5.680474   -4.330864    0.125731
     39          8           0       -5.650113   -5.550686    0.158581
     40          6           0       -4.558109   -3.332167    0.540354
     41          6           0       -3.956872   -3.685001    1.872341
     42          8           0       -4.262966   -3.163874    2.955663
     43          8           0       -3.168921   -4.830234    1.813073
     44          6           0       -2.729843   -5.370735    2.927657
     45          6           0        2.641172   -1.265845   -1.340337
     46          6           0        3.907943   -0.940896   -0.630512
     47          6           0        4.863491   -0.174811   -1.118214
     48          6           0        4.886321    0.636657   -2.363977
     49          6           0        6.134936   -0.101144   -0.236880
     50          6           0        7.467521   -0.518209   -1.075414
     51          6           0        8.762141   -0.406188   -0.257428
     52          6           0       10.025542   -0.787431   -0.989457
     53          6           0        9.992543   -2.238103   -1.392418
     54          6           0       11.274311   -0.461786   -0.181126
     55          6           0       12.598972   -0.558282   -0.765538
     56          6           0       13.654841   -0.020565    0.218385
     57          6           0       15.159283   -0.059100   -0.486252
     58          6           0       15.515564   -1.584741   -0.857636
     59          6           0       16.166039    0.677593    0.566785
     60          6           0       17.697271    0.708034   -0.030602
     61          6           0       18.551661    1.662172    0.790373
     62          6           0       20.108614    1.716505    0.354324
     63          6           0       20.152490    2.504699   -1.036397
     64          6           0       20.831238    2.461585    1.461796
     65          1           0       -3.963726    3.497208    1.802656
     66          1           0       -9.964105    4.300167   -0.282917
     67          1           0      -10.531103   -2.161076   -1.254782
     68          1           0       -2.787424   -1.162476    2.174609
     69          1           0       -1.842822    1.350266    1.404787
     70          1           0       -1.913415    0.281762    3.481174
     71          1           0       -2.906605    2.112457    3.792435
     72          1           0       -3.664584    0.494149    3.681213
     73          1           0       -2.435437   -1.711746   -0.444015
     74          1           0       -2.236952   -0.182127   -0.793186
     75          1           0       -0.240421    0.118508    0.850190
     76          1           0       -0.238453   -1.762555    0.933786
     77          1           0       -4.275349    5.836385    0.955300
     78          1           0       -5.684999    6.864527    1.279530
     79          1           0       -4.818810    5.773395    2.426997
     80          1           0       -7.801604    6.881556    1.416548
     81          1           0       -9.211342    5.917050   -1.335335
     82          1           0       -9.229677    7.701511   -0.516104
     83          1           0      -12.256284    3.756530   -0.306625
     84          1           0      -12.105321    3.717380   -1.903170
     85          1           0      -13.166982    2.532350   -1.731064
     86          1           0      -12.663044   -1.037831   -1.041550
     87          1           0      -13.417733    0.438215   -1.589259
     88          1           0      -12.345302    0.403629   -3.817816
     89          1           0      -11.790042   -1.397765   -3.484889
     90          1           0      -13.612433   -0.774357   -3.657434
     91          1           0       -9.702562   -4.727007    0.283027
     92          1           0       -9.608864   -4.586429   -1.706527
     93          1           0       -8.368935   -5.426306   -0.641444
     94          1           0       -3.804866   -3.614530   -0.115194
     95          1           0       -1.753481   -5.967685    2.662694
     96          1           0       -2.445002   -4.760311    3.775309
     97          1           0       -3.560602   -6.358476    3.334226
     98          1           0        2.523540   -2.345856   -1.734688
     99          1           0        2.624815   -0.843745   -2.365243
    100          1           0        4.155071   -1.314168    0.314057
    101          1           0        5.173332    1.847658   -1.948564
    102          1           0        5.616499    0.334790   -3.200613
    103          1           0        3.859917    0.749760   -2.754206
    104          1           0        6.163835    0.992558    0.133312
    105          1           0        6.062534   -0.596156    0.828212
    106          1           0        7.395625   -1.606418   -1.363145
    107          1           0        7.360089    0.052920   -2.029069
    108          1           0        8.666715    0.678882    0.047812
    109          1           0        8.512696   -1.221442    0.600186
    110          1           0        9.994520   -0.135111   -1.976066
    111          1           0        9.069090   -2.476977   -2.025884
    112          1           0       10.920117   -2.451204   -1.962887
    113          1           0       10.049460   -3.044534   -0.456740
    114          1           0       11.147972    0.537749    0.180601
    115          1           0       11.172177   -1.005591    0.773492
    116          1           0       12.941807   -1.657102   -0.946003
    117          1           0       12.569297   -0.037523   -1.703333
    118          1           0       13.431371    0.982887    0.636499
    119          1           0       13.868284   -0.738474    1.159282
    120          1           0       15.246937    0.648805   -1.486981
    121          1           0       14.719001   -1.795165   -1.774668
    122          1           0       16.616144   -1.727529   -1.215739
    123          1           0       15.236039   -2.311020    0.093717
    124          1           0       15.898402    1.529860    0.676206
    125          1           0       16.168407    0.331917    1.541167
    126          1           0       18.187747   -0.413997    0.031764
    127          1           0       17.477532    1.109876   -1.241492
    128          1           0       18.075516    2.683626    0.541294
    129          1           0       18.413235    1.232830    1.922458
    130          1           0       20.418506    0.681027    0.155000
    131          1           0       19.882397    3.629796   -0.904243
    132          1           0       21.124331    2.493362   -1.475034
    133          1           0       19.357899    2.143020   -1.781984
    134          1           0       20.775704    1.716294    2.394983
    135          1           0       21.847474    2.638927    1.173865
    136          1           0       20.337903    3.532150    1.851369
    137          1           0       -6.808788    1.663351    0.346716
    138          1           0       -7.462511   -0.431652   -0.183164
 ---------------------------------------------------------------------

 SCF Done:  E(RB3LYP) =  -2732.95235398     A.U. after   16 cycles

 Excitation energies and oscillator strengths:

 Excited State   1:      Singlet-A      2.0395 eV  607.93 nm  f=0.1696  <S**2>=0.000
     235 -> 237       -0.18144
     235 -> 238       -0.25342
     236 -> 237        0.61072
     236 -> 238       -0.15832
 This state for optimization and/or second-order correction.
 Total Energy, E(TD-HF/TD-KS) =  -2732.87740534
 Copying the excited state density for this state as the 1-particle RhoCI density.

 The electronic state is 1-A.
 Alpha  occ. eigenvalues --  -19.18524 -19.18300 -19.13513 -19.13177 -19.12061
 Alpha  occ. eigenvalues --  -14.36612 -14.36609 -14.32227 -14.29770 -10.32588
 Alpha  occ. eigenvalues --  -10.31187 -10.29232 -10.26017 -10.25692 -10.24902
 Alpha  occ. eigenvalues --  -10.24049 -10.23949 -10.23462 -10.23070 -10.22495
 Alpha  occ. eigenvalues --  -10.22161 -10.21906 -10.21852 -10.21662 -10.21568
 Alpha  occ. eigenvalues --  -10.21414 -10.21302 -10.21218 -10.21168 -10.21041
 Alpha  occ. eigenvalues --  -10.20985 -10.20871 -10.20765 -10.20675 -10.20588
 Alpha  occ. eigenvalues --  -10.20512 -10.20472 -10.20413 -10.20311 -10.19936
 Alpha  occ. eigenvalues --  -10.19931 -10.19795 -10.19790 -10.19743 -10.19650
 Alpha  occ. eigenvalues --  -10.19576 -10.19572 -10.19559 -10.19540 -10.19487
 Alpha  occ. eigenvalues --  -10.19454 -10.19392 -10.19379 -10.19289 -10.19168
 Alpha  occ. eigenvalues --  -10.18845 -10.18777 -10.18528 -10.18318 -10.18210
 Alpha  occ. eigenvalues --  -10.17999 -10.17916 -10.17079 -10.16275  -1.10685
 Alpha  occ. eigenvalues --   -1.07349  -1.03378  -1.01233  -1.00828  -0.98682
 Alpha  occ. eigenvalues --   -0.95381  -0.94712  -0.93599  -0.86980  -0.82970
 Alpha  occ. eigenvalues --   -0.82268  -0.81806  -0.81336  -0.81175  -0.80431
 Alpha  occ. eigenvalues --   -0.80179  -0.79567  -0.79363  -0.78431  -0.78052
 Alpha  occ. eigenvalues --   -0.76690  -0.76547  -0.76101  -0.74559  -0.74448
 Alpha  occ. eigenvalues --   -0.74068  -0.73132  -0.72328  -0.70826  -0.70426
 Alpha  occ. eigenvalues --   -0.70059  -0.69792  -0.69126  -0.68184  -0.67647
 Alpha  occ. eigenvalues --   -0.66816  -0.66617  -0.66323  -0.65735  -0.65158
 Alpha  occ. eigenvalues --   -0.64496  -0.64417  -0.62739  -0.61957  -0.61728
 Alpha  occ. eigenvalues --   -0.60337  -0.59566  -0.58405  -0.57528  -0.56945
 Alpha  occ. eigenvalues --   -0.56694  -0.56502  -0.55811  -0.55581  -0.54715
 Alpha  occ. eigenvalues --   -0.54639  -0.54201  -0.54161  -0.53377  -0.53327
 Alpha  occ. eigenvalues --   -0.52909  -0.52338  -0.51987  -0.51354  -0.50761
 Alpha  occ. eigenvalues --   -0.50017  -0.49571  -0.49055  -0.48374  -0.48263
 Alpha  occ. eigenvalues --   -0.48200  -0.48154  -0.47657  -0.47066  -0.46885
 Alpha  occ. eigenvalues --   -0.46567  -0.46419  -0.46148  -0.46057  -0.45711
 Alpha  occ. eigenvalues --   -0.45223  -0.44776  -0.44741  -0.44643  -0.44610
 Alpha  occ. eigenvalues --   -0.44397  -0.44005  -0.43837  -0.43446  -0.43434
 Alpha  occ. eigenvalues --   -0.43375  -0.43157  -0.42907  -0.42791  -0.42648
 Alpha  occ. eigenvalues --   -0.42519  -0.42461  -0.42162  -0.41995  -0.41425
 Alpha  occ. eigenvalues --   -0.41349  -0.41254  -0.40616  -0.40462  -0.40320
 Alpha  occ. eigenvalues --   -0.40090  -0.39865  -0.39761  -0.39147  -0.39076
 Alpha  occ. eigenvalues --   -0.39002  -0.38890  -0.38792  -0.38523  -0.38363
 Alpha  occ. eigenvalues --   -0.37888  -0.37852  -0.37607  -0.37519  -0.37387
 Alpha  occ. eigenvalues --   -0.37234  -0.37077  -0.37023  -0.36767  -0.36552
 Alpha  occ. eigenvalues --   -0.36209  -0.35922  -0.35586  -0.35539  -0.35524
 Alpha  occ. eigenvalues --   -0.35302  -0.35146  -0.34953  -0.34555  -0.34267
 Alpha  occ. eigenvalues --   -0.34199  -0.34179  -0.34029  -0.33916  -0.33905
 Alpha  occ. eigenvalues --   -0.33633  -0.33071  -0.32896  -0.32586  -0.32352
 Alpha  occ. eigenvalues --   -0.32171  -0.32141  -0.31819  -0.31421  -0.31157
 Alpha  occ. eigenvalues --   -0.31009  -0.30706  -0.30691  -0.30384  -0.30186
 Alpha  occ. eigenvalues --   -0.30068  -0.28805  -0.28621  -0.28265  -0.27444
 Alpha  occ. eigenvalues --   -0.27352  -0.27182  -0.26852  -0.26676  -0.26220
 Alpha  occ. eigenvalues --   -0.25816  -0.25303  -0.23722  -0.23421  -0.20690
 Alpha  occ. eigenvalues --   -0.19336
 Alpha virt. eigenvalues --   -0.10951  -0.08361  -0.04816  -0.02451  -0.01834
 Alpha virt. eigenvalues --   -0.00729  -0.00084   0.00769   0.02590   0.03553
 Alpha virt. eigenvalues --    0.03641   0.03719   0.03929   0.04360   0.04870

 Mulliken charges:
               1
     1  C    0.141538
     2  C    0.004306
     3  C   -0.102931
     4  C   -0.060618
     5  N   -0.224659
     6  C   -0.139650
     7  C   -0.021260
     8  C   -0.159770
     9  C    0.081052
    10  C    0.064085
    11  C    0.119138
    12  C    0.063930
    13  C    0.171648
    14  O   -0.270719
    15  O   -0.341543
    16  N   -0.205034
    17  C    0.103352
    18  C   -0.159135
    19  C   -0.007156
    20  C    0.094073
    21  C    0.170460
    22  C   -0.024654
    23  C   -0.037653
    24  N   -0.176615
    25  C    0.073182
    26  C   -0.120717
    27  C   -0.120276
    28  C    0.004397
    29  C    0.137994
    30  C    0.114775
    31  C   -0.054770
    32  N    0.145006
    33  C    0.092964
    34  C   -0.163186
    35  C   -0.025969
    36  C    0.021836
    37  C    0.021056
    38  C    0.099421
    39  O   -0.153165
    40  C    0.032731
    41  C    0.191595
    42  O   -0.238435
    43  O   -0.242873
    44  C    0.088125
    45  C    0.253918
    46  C   -0.010966
    47  C   -0.131145
    48  C   -0.004059
    49  C    0.000508
    50  C   -0.034664
    51  C    0.011151
    52  C   -0.056477
    53  C   -0.023593
    54  C    0.070707
    55  C    0.094270
    56  C   -0.048143
    57  C   -0.133493
    58  C   -0.073240
    59  C    0.213139
    60  C   -0.114751
    61  C   -0.030364
    62  C   -0.063990
    63  C   -0.017828
    64  C    0.009903
    65  H   -0.073271
    66  H    0.001893
    67  H    0.018276
    68  H    0.006717
    69  H    0.027208
    70  H    0.032977
    71  H    0.029837
    72  H   -0.011611
    73  H   -0.040966
    74  H    0.004772
    75  H    0.043411
    76  H    0.039779
    77  H   -0.009038
    78  H    0.020051
    79  H   -0.006120
    80  H    0.009334
    81  H    0.069005
    82  H    0.011565
    83  H    0.023606
    84  H   -0.026679
    85  H    0.018309
    86  H    0.005937
    87  H   -0.020201
    88  H    0.017720
    89  H    0.029771
    90  H    0.026790
    91  H    0.055727
    92  H    0.042812
    93  H    0.042157
    94  H    0.020403
    95  H    0.028614
    96  H    0.034911
    97  H    0.029027
    98  H    0.034955
    99  H    0.020403
   100  H   -0.036501
   101  H    0.036128
   102  H    0.066148
   103  H    0.025008
   104  H    0.008966
   105  H    0.010487
   106  H    0.007706
   107  H    0.001849
   108  H    0.005834
   109  H    0.014009
   110  H   -0.006690
   111  H    0.026349
   112  H    0.012570
   113  H    0.020139
   114  H   -0.037825
   115  H   -0.026867
   116  H    0.015616
   117  H   -0.014141
   118  H    0.004411
   119  H    0.018463
   120  H    0.016868
   121  H    0.044531
   122  H    0.045959
   123  H    0.036762
   124  H   -0.109651
   125  H   -0.037079
   126  H    0.024312
   127  H    0.024053
   128  H    0.015269
   129  H    0.021587
   130  H    0.003207
   131  H    0.010375
   132  H    0.006277
   133  H    0.020146
   134  H    0.020849
   135  H    0.006818
   136  H    0.033949
   137  H    0.212442
   138  H   -0.003174
 Sum of Mulliken charges =   0.00000

 Dipole moment (field-independent basis, Debye):
    X=              2.2818    Y=              4.6351    Z=             -0.3831  Tot=              5.1805
 Quadrupole moment (field-independent basis, Debye-Ang):
   XX=           -345.0053   YY=           -385.8885   ZZ=           -398.7885
   XY=            -23.7968   XZ=             13.2573   YZ=              3.5433

 Normal termination of Gaussian 09 at Mon Aug  5 09:04:12 2019.
