 Gaussian 09, Revision D.01,
 Gaussian 09:  ES64L-G09RevD.01 24-Apr-2013

 --------------------------
 # td=(NStates=1) B3LYP/SVP
 --------------------------

 --
 TD
 --
 Symbolic Z-matrix:
 Charge =  0 Multiplicity = 1

                         Standard orientation:
 ---------------------------------------------------------------------
 Center     Atomic      Atomic             Coordinates (Angstroms)
 Number     Number       Type             X           Y           Z
 ---------------------------------------------------------------------
      1          6           0       -5.171361   -2.009440    0.549687
      2          6           0       -4.732538    2.758522    1.299102
      3          6           0       -9.418903    3.238782   -0.012597
      4          6           0       -9.896231   -1.468528   -0.805618
      5          7           0       -5.270056    0.407596    0.767460
      6          6           0       -4.473131   -0.727948    0.726928
      7          6           0       -2.995513   -0.519640    1.175552
      8          6           0       -3.102488    0.885947    1.741103
      9          6           0       -4.446285    1.463613    1.152693
     10          6           0       -3.052848    0.854299    3.280328
     11          6           0       -2.018283   -0.825151   -0.006452
     12          6           0       -0.595168   -0.766683    0.491406
     13          6           0        0.365625   -0.916476   -0.660307
     14          8           0        0.128004   -1.034674   -1.979061
     15          8           0        1.668186   -0.746533   -0.221443
     16          7           0       -7.104384    2.689272    0.450575
     17          6           0       -5.971107    3.464585    0.907120
     18          6           0       -6.279646    4.797287    0.967230
     19          6           0       -7.584836    4.927662    0.532977
     20          6           0       -8.149590    3.636862    0.267672
     21          6           0       -5.355581    5.775218    1.525498
     22          6           0       -8.260748    6.177818    0.354845
     23          6           0       -9.064847    6.584649   -0.585670
     24          7           0       -9.244200    0.883597   -0.424977
     25          6           0       -9.963763    2.002171   -0.408908
     26          6           0      -11.330806    1.746897   -0.749746
     27          6           0      -11.497088    0.377824   -1.070003
     28          6           0      -10.101726   -0.069203   -0.835272
     29          6           0      -12.437718    2.896435   -0.888669
     30          6           0      -12.756420   -0.415290   -1.495446
     31          6           0      -12.796982   -0.582025   -3.006900
     32          7           0       -7.536550   -1.259743   -0.200889
     33          6           0       -8.602302   -2.034548   -0.658430
     34          6           0       -8.247213   -3.418175   -0.640774
     35          6           0       -6.835138   -3.541239   -0.169002
     36          6           0       -6.491594   -2.134240    0.117210
     37          6           0       -9.149140   -4.615817   -0.989250
     38          6           0       -5.635027   -4.334934    0.091873
     39          8           0       -5.532259   -5.507587   -0.059759
     40          6           0       -4.476513   -3.317210    0.406709
     41          6           0       -3.878093   -3.942858    1.771279
     42          8           0       -4.123507   -3.508372    2.904253
     43          8           0       -3.046039   -4.920253    1.501789
     44          6           0       -2.322529   -5.508551    2.666310
     45          6           0        2.678565   -0.803888   -1.290373
     46          6           0        4.005238   -0.624369   -0.715207
     47          6           0        4.945684    0.226936   -1.161814
     48          6           0        4.702886    1.310623   -2.318979
     49          6           0        6.283256    0.375666   -0.260788
     50          6           0        7.517829   -0.212690   -1.199641
     51          6           0        8.836746   -0.069337   -0.325678
     52          6           0       10.098349   -0.368189   -1.129769
     53          6           0       10.021233   -1.901537   -1.623178
     54          6           0       11.366746   -0.100282   -0.187808
     55          6           0       12.671461   -0.178135   -0.836981
     56          6           0       13.817802   -0.016253    0.236619
     57          6           0       15.271444   -0.244193   -0.243181
     58          6           0       15.584108   -1.704756   -0.329164
     59          6           0       16.388847    0.422500    0.634216
     60          6           0       17.770076    0.497032    0.112595
     61          6           0       18.772359    1.203068    0.896790
     62          6           0       20.190943    1.369948    0.314872
     63          6           0       20.391745    1.949006   -1.089675
     64          6           0       21.111442    2.120460    1.296974
     65          1           0       -3.771707    3.506390    1.562539
     66          1           0      -10.110111    4.067956   -0.033444
     67          1           0      -10.710491   -2.263694   -1.004931
     68          1           0       -2.818523   -1.180817    1.949188
     69          1           0       -2.248468    1.460063    1.469604
     70          1           0       -2.135712    0.247000    3.709537
     71          1           0       -3.184324    1.932299    3.699143
     72          1           0       -4.011771    0.287719    3.676940
     73          1           0       -2.181383   -1.826983   -0.519498
     74          1           0       -2.322981   -0.111602   -0.651889
     75          1           0       -0.271118    0.227983    1.120766
     76          1           0       -0.457143   -1.631115    1.335108
     77          1           0       -4.558777    6.216655    0.894301
     78          1           0       -5.693233    6.798253    1.559567
     79          1           0       -4.870381    5.469201    2.503885
     80          1           0       -7.929357    6.847006    1.183119
     81          1           0       -9.473709    5.903916   -1.478999
     82          1           0       -9.773030    7.461892   -0.703777
     83          1           0      -12.443587    3.369304    0.224838
     84          1           0      -11.927922    3.510069   -1.563867
     85          1           0      -13.519149    2.524356   -1.018033
     86          1           0      -12.613708   -1.479902   -1.061027
     87          1           0      -13.689735    0.100913   -1.303472
     88          1           0      -12.651901    0.408422   -3.546634
     89          1           0      -12.100925   -1.158901   -3.401084
     90          1           0      -13.903897   -0.859100   -3.300985
     91          1           0       -9.921931   -4.692236   -0.140566
     92          1           0       -9.808228   -4.336953   -1.887498
     93          1           0       -8.785882   -5.654811   -1.396402
     94          1           0       -3.729214   -3.320372   -0.281783
     95          1           0       -1.647410   -6.342034    2.215434
     96          1           0       -1.588437   -4.744379    3.001223
     97          1           0       -3.082448   -5.756160    3.577296
     98          1           0        2.565376   -1.847685   -1.741942
     99          1           0        2.412582   -0.325034   -2.172171
    100          1           0        4.355862   -1.293861    0.065003
    101          1           0        4.973826    2.315490   -2.022042
    102          1           0        5.473094    0.886431   -3.211717
    103          1           0        3.611965    1.313337   -2.688872
    104          1           0        6.525673    1.337369   -0.108906
    105          1           0        6.290406   -0.294509    0.702078
    106          1           0        7.631282   -1.174995   -1.473638
    107          1           0        7.742679    0.337546   -2.108682
    108          1           0        8.763541    0.854440    0.120018
    109          1           0        8.601272   -1.072137    0.469274
    110          1           0       10.337959    0.288760   -2.135749
    111          1           0        9.222299   -2.202426   -2.451813
    112          1           0       11.051370   -2.103565   -2.063258
    113          1           0        9.878027   -2.553729   -0.809361
    114          1           0       11.355544    0.892092    0.276206
    115          1           0       11.151357   -1.008335    0.536954
    116          1           0       12.658791   -1.153628   -1.262679
    117          1           0       13.019922    0.783921   -1.630788
    118          1           0       14.067833    1.147500    0.554917
    119          1           0       13.597538   -0.745514    1.188625
    120          1           0       15.437623    0.218224   -1.178293
    121          1           0       14.765065   -2.327293   -0.949653
    122          1           0       16.382895   -2.042306   -1.007148
    123          1           0       15.736114   -2.054804    0.741887
    124          1           0       16.046090    1.523018    0.714446
    125          1           0       16.236666    0.208348    1.719526
    126          1           0       18.192089   -0.512486   -0.146139
    127          1           0       17.664391    0.875351   -0.876869
    128          1           0       18.396659    2.321765    1.131601
    129          1           0       18.915370    1.058840    2.073370
    130          1           0       20.792655    0.250434    0.317939
    131          1           0       20.149229    3.031717   -1.039425
    132          1           0       21.464281    2.236205   -1.400108
    133          1           0       19.945669    1.559037   -1.903889
    134          1           0       21.200249    1.705787    2.324132
    135          1           0       22.357427    2.334524    1.141640
    136          1           0       20.742530    3.278565    1.206514
    137          1           0       -7.089255    1.783997    0.459292
    138          1           0       -7.563467   -0.269782    0.005866
 ---------------------------------------------------------------------

 SCF Done:  E(RB3LYP) =  -2732.99386074     A.U. after   18 cycles

 Excitation energies and oscillator strengths:

 Excited State   1:      Singlet-A      2.0107 eV  616.62 nm  f=0.2055  <S**2>=0.000
     235 -> 237       -0.24842
     235 -> 238       -0.24474
     236 -> 237        0.58396
     236 -> 238       -0.19295
 This state for optimization and/or second-order correction.
 Total Energy, E(TD-HF/TD-KS) =  -2732.91996827
 Copying the excited state density for this state as the 1-particle RhoCI density.

 The electronic state is 1-A.
 Alpha  occ. eigenvalues --  -19.18808 -19.18321 -19.12713 -19.11892 -19.11785
 Alpha  occ. eigenvalues --  -14.36586 -14.35693 -14.32788 -14.29681 -10.32944
 Alpha  occ. eigenvalues --  -10.31728 -10.27558 -10.27070 -10.23987 -10.23976
 Alpha  occ. eigenvalues --  -10.23821 -10.23691 -10.23691 -10.23597 -10.23583
 Alpha  occ. eigenvalues --  -10.23073 -10.22566 -10.21524 -10.21488 -10.21394
 Alpha  occ. eigenvalues --  -10.21363 -10.21195 -10.21110 -10.21029 -10.20978
 Alpha  occ. eigenvalues --  -10.20862 -10.20738 -10.20734 -10.20717 -10.20618
 Alpha  occ. eigenvalues --  -10.20605 -10.20603 -10.20563 -10.20471 -10.20435
 Alpha  occ. eigenvalues --  -10.20255 -10.20183 -10.20159 -10.20155 -10.20128
 Alpha  occ. eigenvalues --  -10.19977 -10.19948 -10.19796 -10.19754 -10.19680
 Alpha  occ. eigenvalues --  -10.19661 -10.19507 -10.19367 -10.19021 -10.18909
 Alpha  occ. eigenvalues --  -10.18750 -10.18624 -10.18571 -10.18411 -10.18353
 Alpha  occ. eigenvalues --  -10.18264 -10.17997 -10.17792 -10.17768  -1.09512
 Alpha  occ. eigenvalues --   -1.06666  -1.03911  -0.99030  -0.96813  -0.96493
 Alpha  occ. eigenvalues --   -0.95052  -0.94383  -0.92674  -0.84570  -0.83442
 Alpha  occ. eigenvalues --   -0.82412  -0.81931  -0.81320  -0.80960  -0.80520
 Alpha  occ. eigenvalues --   -0.79496  -0.79251  -0.78775  -0.78131  -0.77486
 Alpha  occ. eigenvalues --   -0.77068  -0.76520  -0.75460  -0.74896  -0.74320
 Alpha  occ. eigenvalues --   -0.73456  -0.73146  -0.72434  -0.71489  -0.70845
 Alpha  occ. eigenvalues --   -0.69388  -0.69157  -0.68325  -0.67844  -0.67085
 Alpha  occ. eigenvalues --   -0.66947  -0.66316  -0.66043  -0.65978  -0.65002
 Alpha  occ. eigenvalues --   -0.64222  -0.62638  -0.62397  -0.61578  -0.61482
 Alpha  occ. eigenvalues --   -0.60987  -0.59320  -0.58048  -0.57851  -0.56926
 Alpha  occ. eigenvalues --   -0.56736  -0.56630  -0.56135  -0.55387  -0.55321
 Alpha  occ. eigenvalues --   -0.55015  -0.54351  -0.54109  -0.53961  -0.52929
 Alpha  occ. eigenvalues --   -0.52485  -0.51857  -0.51157  -0.50574  -0.50176
 Alpha  occ. eigenvalues --   -0.49534  -0.48983  -0.48698  -0.48605  -0.48194
 Alpha  occ. eigenvalues --   -0.48031  -0.47732  -0.47147  -0.47044  -0.46785
 Alpha  occ. eigenvalues --   -0.46730  -0.46316  -0.46082  -0.45772  -0.45709
 Alpha  occ. eigenvalues --   -0.45350  -0.45142  -0.44989  -0.44852  -0.44553
 Alpha  occ. eigenvalues --   -0.44308  -0.44217  -0.44100  -0.43713  -0.43433
 Alpha  occ. eigenvalues --   -0.43319  -0.43091  -0.42878  -0.42528  -0.42221
 Alpha  occ. eigenvalues --   -0.42034  -0.41925  -0.41805  -0.41570  -0.41429
 Alpha  occ. eigenvalues --   -0.41234  -0.40910  -0.40713  -0.40487  -0.40248
 Alpha  occ. eigenvalues --   -0.40123  -0.39875  -0.39617  -0.39485  -0.39043
 Alpha  occ. eigenvalues --   -0.38982  -0.38810  -0.38616  -0.38523  -0.38375
 Alpha  occ. eigenvalues --   -0.38073  -0.37876  -0.37618  -0.37397  -0.37361
 Alpha  occ. eigenvalues --   -0.37166  -0.36994  -0.36701  -0.36632  -0.36500
 Alpha  occ. eigenvalues --   -0.36275  -0.36187  -0.35963  -0.35885  -0.35744
 Alpha  occ. eigenvalues --   -0.35558  -0.35216  -0.34842  -0.34545  -0.34397
 Alpha  occ. eigenvalues --   -0.34346  -0.34220  -0.34043  -0.33488  -0.33247
 Alpha  occ. eigenvalues --   -0.32964  -0.32768  -0.32376  -0.32355  -0.32335
 Alpha  occ. eigenvalues --   -0.32290  -0.31940  -0.31733  -0.31624  -0.31303
 Alpha  occ. eigenvalues --   -0.31087  -0.30873  -0.30680  -0.30306  -0.29721
 Alpha  occ. eigenvalues --   -0.29453  -0.28161  -0.28146  -0.28051  -0.27674
 Alpha  occ. eigenvalues --   -0.27273  -0.27220  -0.27139  -0.26289  -0.25423
 Alpha  occ. eigenvalues --   -0.24736  -0.24625  -0.24412  -0.22289  -0.20232
 Alpha  occ. eigenvalues --   -0.18756
 Alpha virt. eigenvalues --   -0.10709  -0.07907  -0.04345  -0.03711  -0.01254
 Alpha virt. eigenvalues --   -0.00023   0.00207   0.00821   0.01503   0.02724
 Alpha virt. eigenvalues --    0.03372   0.03545   0.03706   0.04122   0.04517

 Mulliken charges:
               1
     1  C    0.038970
     2  C   -0.104093
     3  C   -0.077982
     4  C   -0.119531
     5  N   -0.226000
     6  C   -0.049228
     7  C    0.030225
     8  C   -0.023272
     9  C    0.064662
    10  C   -0.017957
    11  C    0.114045
    12  C   -0.063210
    13  C    0.266890
    14  O   -0.341473
    15  O   -0.329163
    16  N   -0.054507
    17  C    0.060352
    18  C   -0.061215
    19  C    0.049795
    20  C    0.132305
    21  C    0.086241
    22  C   -0.024103
    23  C   -0.097690
    24  N   -0.195937
    25  C    0.059855
    26  C   -0.173965
    27  C   -0.114708
    28  C    0.075365
    29  C    0.067561
    30  C    0.105732
    31  C    0.011614
    32  N   -0.064793
    33  C    0.113620
    34  C   -0.140857
    35  C    0.018833
    36  C    0.060407
    37  C    0.022612
    38  C    0.035748
    39  O   -0.138803
    40  C   -0.041698
    41  C    0.189429
    42  O   -0.261163
    43  O   -0.276010
    44  C    0.126332
    45  C    0.298446
    46  C   -0.041638
    47  C   -0.134111
    48  C   -0.004123
    49  C    0.101197
    50  C    0.032194
    51  C    0.002522
    52  C   -0.114825
    53  C   -0.022379
    54  C    0.007195
    55  C    0.057325
    56  C   -0.057042
    57  C   -0.013481
    58  C   -0.000277
    59  C   -0.022486
    60  C    0.150395
    61  C   -0.018461
    62  C   -0.093808
    63  C    0.069851
    64  C   -0.086771
    65  H    0.029512
    66  H   -0.044715
    67  H    0.009861
    68  H   -0.030553
    69  H   -0.031788
    70  H    0.037481
    71  H    0.025808
    72  H    0.040163
    73  H    0.039798
    74  H   -0.018163
    75  H    0.075371
    76  H    0.063101
    77  H    0.011817
    78  H   -0.019133
    79  H    0.048099
    80  H    0.015769
    81  H    0.037773
    82  H    0.038661
    83  H    0.034822
    84  H    0.028384
    85  H    0.036063
    86  H    0.021454
    87  H   -0.003384
    88  H    0.009318
    89  H   -0.018573
    90  H    0.017026
    91  H    0.046871
    92  H    0.020155
    93  H    0.067213
    94  H    0.016412
    95  H    0.060355
    96  H    0.033597
    97  H    0.087566
    98  H    0.011008
    99  H   -0.009985
   100  H   -0.013943
   101  H    0.030904
   102  H    0.052722
   103  H    0.041454
   104  H   -0.020554
   105  H    0.031270
   106  H   -0.038896
   107  H   -0.009361
   108  H   -0.022677
   109  H    0.010899
   110  H    0.014697
   111  H    0.046653
   112  H    0.018604
   113  H    0.002216
   114  H    0.001250
   115  H    0.014612
   116  H   -0.017778
   117  H    0.024314
   118  H    0.014706
   119  H    0.016193
   120  H   -0.037909
   121  H    0.001672
   122  H    0.005038
   123  H    0.021097
   124  H   -0.017470
   125  H   -0.009570
   126  H   -0.008225
   127  H   -0.023760
   128  H   -0.016471
   129  H    0.009402
   130  H    0.011133
   131  H   -0.017454
   132  H    0.005535
   133  H   -0.007682
   134  H    0.026676
   135  H    0.024710
   136  H    0.018301
   137  H    0.041099
   138  H    0.146474
 Sum of Mulliken charges =   0.00000

 Dipole moment (field-independent basis, Debye):
    X=              2.2114    Y=              3.9871    Z=              0.8215  Tot=              4.6327
 Quadrupole moment (field-independent basis, Debye-Ang):
   XX=           -356.8929   YY=           -377.2078   ZZ=           -400.6759
   XY=            -19.7763   XZ=              3.5820   YZ=             -1.0794

 Normal termination of Gaussian 09 at Mon Aug  5 05:15:10 2019.
