 Gaussian 09, Revision D.01,
 Gaussian 09:  ES64L-G09RevD.01 24-Apr-2013

 --------------------------
 # td=(NStates=1) B3LYP/SVP
 --------------------------

 --
 TD
 --
 Symbolic Z-matrix:
 Charge =  0 Multiplicity = 1

                         Standard orientation:
 ---------------------------------------------------------------------
 Center     Atomic      Atomic             Coordinates (Angstroms)
 Number     Number       Type             X           Y           Z
 ---------------------------------------------------------------------
      1          6           0       -5.142795   -1.891657    0.411972
      2          6           0       -4.888379    2.809725    1.164731
      3          6           0       -9.417841    3.204657   -0.385553
      4          6           0       -9.903262   -1.589183   -0.786792
      5          7           0       -5.221310    0.490699    0.721065
      6          6           0       -4.494611   -0.650380    0.773166
      7          6           0       -3.005049   -0.392011    1.086206
      8          6           0       -3.051236    0.997248    1.686026
      9          6           0       -4.443261    1.523745    1.132784
     10          6           0       -2.869670    1.111928    3.167976
     11          6           0       -1.988269   -0.702475   -0.012218
     12          6           0       -0.555902   -0.641903    0.413288
     13          6           0        0.434566   -0.879316   -0.693621
     14          8           0        0.118789   -1.290459   -1.821646
     15          8           0        1.618660   -0.623905   -0.329003
     16          7           0       -7.139812    2.792683    0.396876
     17          6           0       -6.016315    3.462960    0.858758
     18          6           0       -6.381761    4.870604    1.015594
     19          6           0       -7.689841    4.965608    0.493957
     20          6           0       -8.173427    3.621450    0.113986
     21          6           0       -5.533474    5.956829    1.406068
     22          6           0       -8.467213    6.160503    0.295480
     23          6           0       -9.329530    6.471678   -0.687682
     24          7           0       -9.280009    0.697300   -0.466974
     25          6           0      -10.028806    1.885001   -0.532635
     26          6           0      -11.408316    1.665880   -0.928505
     27          6           0      -11.520548    0.348423   -1.095233
     28          6           0      -10.110043   -0.225610   -0.790225
     29          6           0      -12.433894    2.840233   -1.067371
     30          6           0      -12.655635   -0.371890   -1.451595
     31          6           0      -12.694921   -0.998924   -2.926959
     32          7           0       -7.483893   -1.342721   -0.258417
     33          6           0       -8.577758   -2.167576   -0.538067
     34          6           0       -8.180840   -3.447209   -0.445456
     35          6           0       -6.851148   -3.399120   -0.049993
     36          6           0       -6.491389   -2.079470   -0.040732
     37          6           0       -9.054506   -4.741224   -0.599537
     38          6           0       -5.621025   -4.257715    0.133622
     39          8           0       -5.426447   -5.468014    0.164058
     40          6           0       -4.414695   -3.204243    0.459139
     41          6           0       -3.847590   -3.644610    1.842292
     42          8           0       -4.031200   -3.271264    2.977442
     43          8           0       -2.906592   -4.580251    1.664622
     44          6           0       -2.276382   -5.199916    2.799746
     45          6           0        2.573837   -0.908595   -1.341502
     46          6           0        3.906345   -0.743570   -0.617700
     47          6           0        5.033739    0.096821   -0.909994
     48          6           0        4.982941    1.009125   -2.159612
     49          6           0        6.399178    0.095367   -0.086389
     50          6           0        7.547670   -0.403187   -1.042737
     51          6           0        8.849971   -0.372917   -0.116791
     52          6           0       10.206344   -0.673662   -1.046167
     53          6           0       10.150297   -2.139680   -1.730315
     54          6           0       11.453597   -0.385500   -0.041406
     55          6           0       12.806988   -0.538048   -0.796474
     56          6           0       13.916392   -0.222533    0.188279
     57          6           0       15.242244   -0.139520   -0.431558
     58          6           0       15.722319   -1.588790   -0.935190
     59          6           0       16.350555    0.419940    0.573394
     60          6           0       17.775587    0.645989   -0.040729
     61          6           0       18.647834    1.444634    0.900911
     62          6           0       20.095560    1.736372    0.308906
     63          6           0       20.121772    2.510677   -0.950451
     64          6           0       20.968872    2.262790    1.569694
     65          1           0       -4.217332    3.598512    1.618232
     66          1           0      -10.300245    3.972070   -0.621157
     67          1           0      -10.808755   -2.122436   -1.062862
     68          1           0       -2.636261   -1.022364    1.925725
     69          1           0       -2.252825    1.644727    1.079912
     70          1           0       -1.810033    0.809623    3.411507
     71          1           0       -3.111577    2.098541    3.603689
     72          1           0       -3.379752    0.374547    3.725052
     73          1           0       -2.040711   -1.701010   -0.407127
     74          1           0       -2.145066   -0.048404   -0.649103
     75          1           0       -0.369582    0.413098    0.883995
     76          1           0       -0.442561   -1.491245    1.118397
     77          1           0       -4.729905    6.120319    0.812730
     78          1           0       -6.052482    7.033645    1.553061
     79          1           0       -4.890971    5.601651    2.257656
     80          1           0       -8.296654    7.021338    1.022033
     81          1           0       -9.665812    5.673011   -1.531233
     82          1           0       -9.892327    7.517560   -0.681139
     83          1           0      -12.803404    3.006682    0.052457
     84          1           0      -12.139792    3.565395   -1.673033
     85          1           0      -13.433813    2.355862   -1.456971
     86          1           0      -12.995295   -1.187143   -0.472000
     87          1           0      -13.646507    0.337857   -1.410027
     88          1           0      -12.775793   -0.196487   -3.706869
     89          1           0      -11.646842   -1.576324   -2.995482
     90          1           0      -13.472854   -1.717681   -3.127543
     91          1           0      -10.047836   -4.581469    0.013272
     92          1           0       -9.317376   -4.969415   -1.605268
     93          1           0       -8.570250   -5.752122   -0.102000
     94          1           0       -3.623006   -3.592060   -0.133643
     95          1           0       -1.527807   -5.953772    2.366155
     96          1           0       -1.580310   -4.070581    3.368826
     97          1           0       -3.137067   -5.585503    3.486278
     98          1           0        2.394530   -2.065808   -1.887215
     99          1           0        2.618506   -0.117404   -2.192157
    100          1           0        4.060527   -1.385454    0.163185
    101          1           0        5.784303    1.808319   -2.141814
    102          1           0        5.360625    0.244208   -3.064173
    103          1           0        3.737414    1.362247   -2.550145
    104          1           0        6.549695    1.231557    0.110173
    105          1           0        6.052943   -0.397237    0.784151
    106          1           0        7.516825   -1.472096   -1.784310
    107          1           0        7.583250    0.386489   -2.001484
    108          1           0        8.857431    0.737342    0.244199
    109          1           0        8.765169   -0.996087    0.752476
    110          1           0       10.138026    0.262865   -1.853243
    111          1           0        9.228004   -2.379142   -2.298771
    112          1           0       10.935697   -2.209586   -2.247807
    113          1           0       10.039762   -2.999154   -0.823604
    114          1           0       11.228675    0.539239    0.466446
    115          1           0       11.303901   -1.398020    0.689740
    116          1           0       12.799712   -1.673983   -1.214306
    117          1           0       12.772553    0.140491   -1.718348
    118          1           0       13.780881    0.912917    0.362212
    119          1           0       13.781393   -1.037944    1.121600
    120          1           0       15.222525    0.351424   -1.411578
    121          1           0       15.056761   -2.182529   -1.571409
    122          1           0       16.655210   -1.482191   -1.575756
    123          1           0       16.023317   -2.467940   -0.224099
    124          1           0       15.926180    1.473136    0.626760
    125          1           0       16.167309   -0.229029    1.511311
    126          1           0       18.367998   -0.225082   -0.156300
    127          1           0       17.551118    1.139533   -1.133031
    128          1           0       18.062598    2.465332    1.301224
    129          1           0       18.666813    1.009985    1.974208
    130          1           0       20.298692    0.564116    0.073366
    131          1           0       19.805837    3.514797   -0.817752
    132          1           0       21.185344    2.588177   -1.295815
    133          1           0       19.319548    2.249793   -1.837565
    134          1           0       21.229500    1.248083    2.222115
    135          1           0       22.037732    2.494413    1.257666
    136          1           0       20.555975    3.340351    2.107251
    137          1           0       -7.340730    1.714134    0.454068
    138          1           0       -7.434896   -0.337800   -0.177327
 ---------------------------------------------------------------------

 SCF Done:  E(RB3LYP) =  -2732.89449305     A.U. after   17 cycles

 Excitation energies and oscillator strengths:

 Excited State   1:      Singlet-A      2.0699 eV  599.00 nm  f=0.1501  <S**2>=0.000
     235 -> 238        0.32337
     236 -> 237        0.62685
 This state for optimization and/or second-order correction.
 Total Energy, E(TD-HF/TD-KS) =  -2732.81842706
 Copying the excited state density for this state as the 1-particle RhoCI density.

 The electronic state is 1-A.
 Alpha  occ. eigenvalues --  -19.19649 -19.16538 -19.12183 -19.11217 -19.11150
 Alpha  occ. eigenvalues --  -14.37070 -14.36953 -14.32588 -14.30228 -10.30968
 Alpha  occ. eigenvalues --  -10.30642 -10.28144 -10.27590 -10.26929 -10.24141
 Alpha  occ. eigenvalues --  -10.23979 -10.23277 -10.23214 -10.22939 -10.22743
 Alpha  occ. eigenvalues --  -10.22713 -10.22340 -10.22315 -10.21873 -10.21763
 Alpha  occ. eigenvalues --  -10.21669 -10.21656 -10.21393 -10.21280 -10.21164
 Alpha  occ. eigenvalues --  -10.21093 -10.21033 -10.20999 -10.20980 -10.20937
 Alpha  occ. eigenvalues --  -10.20924 -10.20889 -10.20871 -10.20688 -10.20577
 Alpha  occ. eigenvalues --  -10.20541 -10.20431 -10.20366 -10.20222 -10.20134
 Alpha  occ. eigenvalues --  -10.20103 -10.19937 -10.19882 -10.19881 -10.19762
 Alpha  occ. eigenvalues --  -10.19527 -10.19470 -10.19318 -10.19239 -10.19201
 Alpha  occ. eigenvalues --  -10.19150 -10.19011 -10.18815 -10.18814 -10.18465
 Alpha  occ. eigenvalues --  -10.18343 -10.18315 -10.17872 -10.16977  -1.13464
 Alpha  occ. eigenvalues --   -1.09087  -1.02142  -1.01403  -0.99290  -0.98790
 Alpha  occ. eigenvalues --   -0.97941  -0.94682  -0.94299  -0.84004  -0.82466
 Alpha  occ. eigenvalues --   -0.82258  -0.81673  -0.81556  -0.80925  -0.80693
 Alpha  occ. eigenvalues --   -0.80452  -0.79626  -0.78817  -0.78426  -0.77594
 Alpha  occ. eigenvalues --   -0.76778  -0.75862  -0.75346  -0.74569  -0.73715
 Alpha  occ. eigenvalues --   -0.72787  -0.72612  -0.71738  -0.71071  -0.70865
 Alpha  occ. eigenvalues --   -0.69653  -0.68973  -0.68530  -0.67962  -0.67167
 Alpha  occ. eigenvalues --   -0.66751  -0.66085  -0.66002  -0.65522  -0.65003
 Alpha  occ. eigenvalues --   -0.64374  -0.62357  -0.62150  -0.61716  -0.61143
 Alpha  occ. eigenvalues --   -0.60470  -0.58465  -0.57840  -0.57351  -0.57036
 Alpha  occ. eigenvalues --   -0.56511  -0.56179  -0.56146  -0.55932  -0.54684
 Alpha  occ. eigenvalues --   -0.54126  -0.53519  -0.53456  -0.52761  -0.52472
 Alpha  occ. eigenvalues --   -0.52294  -0.51820  -0.51648  -0.51354  -0.50534
 Alpha  occ. eigenvalues --   -0.49440  -0.49060  -0.48472  -0.48139  -0.48072
 Alpha  occ. eigenvalues --   -0.47829  -0.47731  -0.47185  -0.46975  -0.46680
 Alpha  occ. eigenvalues --   -0.46172  -0.46073  -0.46015  -0.45803  -0.45676
 Alpha  occ. eigenvalues --   -0.45238  -0.45015  -0.44831  -0.44620  -0.44448
 Alpha  occ. eigenvalues --   -0.44284  -0.44173  -0.43627  -0.43426  -0.43210
 Alpha  occ. eigenvalues --   -0.43004  -0.42802  -0.42582  -0.42520  -0.42250
 Alpha  occ. eigenvalues --   -0.41973  -0.41811  -0.41359  -0.41313  -0.41185
 Alpha  occ. eigenvalues --   -0.40902  -0.40851  -0.40582  -0.40554  -0.40338
 Alpha  occ. eigenvalues --   -0.39938  -0.39727  -0.39555  -0.39526  -0.38964
 Alpha  occ. eigenvalues --   -0.38872  -0.38758  -0.38461  -0.38379  -0.37973
 Alpha  occ. eigenvalues --   -0.37810  -0.37752  -0.37522  -0.37215  -0.37174
 Alpha  occ. eigenvalues --   -0.36895  -0.36609  -0.36526  -0.36494  -0.36186
 Alpha  occ. eigenvalues --   -0.36107  -0.36006  -0.35868  -0.35808  -0.35779
 Alpha  occ. eigenvalues --   -0.35551  -0.35254  -0.35062  -0.34674  -0.34508
 Alpha  occ. eigenvalues --   -0.34259  -0.33943  -0.33834  -0.33452  -0.33413
 Alpha  occ. eigenvalues --   -0.33153  -0.33117  -0.32796  -0.32485  -0.32318
 Alpha  occ. eigenvalues --   -0.32292  -0.32130  -0.31668  -0.31506  -0.31170
 Alpha  occ. eigenvalues --   -0.30830  -0.30704  -0.30360  -0.30205  -0.29536
 Alpha  occ. eigenvalues --   -0.28698  -0.28576  -0.28498  -0.27817  -0.27712
 Alpha  occ. eigenvalues --   -0.27297  -0.27101  -0.26922  -0.26787  -0.25913
 Alpha  occ. eigenvalues --   -0.24419  -0.23867  -0.23676  -0.23116  -0.19502
 Alpha  occ. eigenvalues --   -0.19216
 Alpha virt. eigenvalues --   -0.10436  -0.07526  -0.03864  -0.01848  -0.01422
 Alpha virt. eigenvalues --    0.00197   0.00336   0.01060   0.01986   0.02358
 Alpha virt. eigenvalues --    0.02369   0.03222   0.03582   0.03623   0.03794

 Mulliken charges:
               1
     1  C    0.053974
     2  C   -0.028726
     3  C   -0.106644
     4  C   -0.082187
     5  N   -0.181519
     6  C   -0.035974
     7  C   -0.010311
     8  C   -0.076602
     9  C   -0.018448
    10  C    0.116114
    11  C    0.209545
    12  C   -0.012645
    13  C    0.143947
    14  O   -0.281377
    15  O   -0.201923
    16  N   -0.114745
    17  C    0.064903
    18  C   -0.067517
    19  C    0.051137
    20  C    0.105597
    21  C    0.109690
    22  C   -0.078914
    23  C   -0.106514
    24  N   -0.194088
    25  C   -0.008416
    26  C   -0.132747
    27  C   -0.001148
    28  C    0.012204
    29  C    0.119868
    30  C   -0.142716
    31  C   -0.003624
    32  N    0.088208
    33  C    0.115661
    34  C   -0.132173
    35  C   -0.057969
    36  C   -0.006591
    37  C    0.037182
    38  C    0.085758
    39  O   -0.175638
    40  C   -0.058541
    41  C    0.177790
    42  O   -0.225340
    43  O   -0.298755
    44  C    0.084641
    45  C    0.179508
    46  C   -0.055959
    47  C   -0.168010
    48  C   -0.083975
    49  C    0.106257
    50  C   -0.109515
    51  C    0.027262
    52  C   -0.142995
    53  C    0.071737
    54  C   -0.004371
    55  C   -0.036737
    56  C    0.056963
    57  C   -0.072379
    58  C   -0.052527
    59  C    0.033675
    60  C    0.039698
    61  C   -0.058174
    62  C   -0.105809
    63  C    0.036657
    64  C   -0.053730
    65  H   -0.037987
    66  H    0.011273
    67  H   -0.018043
    68  H   -0.010925
    69  H    0.009029
    70  H    0.009465
    71  H    0.018064
    72  H    0.011335
    73  H    0.009445
    74  H   -0.082999
    75  H    0.040176
    76  H    0.030398
    77  H   -0.008377
    78  H    0.050406
    79  H    0.011119
    80  H    0.013316
    81  H    0.054017
    82  H    0.044826
    83  H    0.050288
    84  H    0.015475
    85  H    0.008529
    86  H    0.037732
    87  H    0.017690
    88  H    0.030962
    89  H    0.027461
    90  H    0.018647
    91  H    0.035900
    92  H    0.026315
    93  H    0.062720
    94  H    0.029146
    95  H    0.067323
    96  H    0.035212
    97  H    0.075513
    98  H    0.080295
    99  H    0.029325
   100  H   -0.045607
   101  H    0.036093
   102  H    0.055568
   103  H    0.064126
   104  H    0.032669
   105  H    0.005692
   106  H    0.042397
   107  H    0.024441
   108  H    0.007676
   109  H    0.006310
   110  H    0.011625
   111  H    0.016554
   112  H   -0.026686
   113  H    0.022424
   114  H    0.004981
   115  H    0.013960
   116  H    0.029018
   117  H    0.007048
   118  H   -0.000219
   119  H    0.034700
   120  H   -0.008127
   121  H   -0.004737
   122  H    0.004331
   123  H    0.002118
   124  H    0.002127
   125  H    0.023327
   126  H   -0.004898
   127  H    0.024661
   128  H   -0.015694
   129  H    0.009235
   130  H    0.012557
   131  H   -0.010451
   132  H    0.019645
   133  H    0.028351
   134  H    0.038599
   135  H    0.011887
   136  H    0.055375
   137  H    0.193073
   138  H    0.130772
 Sum of Mulliken charges =   0.00000

 Dipole moment (field-independent basis, Debye):
    X=              2.4933    Y=              5.2619    Z=              0.1255  Tot=              5.8240
 Quadrupole moment (field-independent basis, Debye-Ang):
   XX=           -328.6524   YY=           -384.3489   ZZ=           -402.3771
   XY=            -22.6735   XZ=              6.4209   YZ=              1.5690

 Normal termination of Gaussian 09 at Thu Jul 25 06:01:01 2019.
