 Gaussian 09, Revision D.01,
 Gaussian 09:  ES64L-G09RevD.01 24-Apr-2013

 --------------------------
 # td=(NStates=1) B3LYP/SVP
 --------------------------

 --
 TD
 --
 Symbolic Z-matrix:
 Charge =  0 Multiplicity = 1

                         Standard orientation:
 ---------------------------------------------------------------------
 Center     Atomic      Atomic             Coordinates (Angstroms)
 Number     Number       Type             X           Y           Z
 ---------------------------------------------------------------------
      1          6           0       -5.170452   -1.913726    0.464847
      2          6           0       -4.822845    2.694615    1.495793
      3          6           0       -9.412878    3.213985   -0.204875
      4          6           0       -9.902405   -1.489251   -1.022235
      5          7           0       -5.190453    0.403556    0.740761
      6          6           0       -4.506045   -0.682939    0.814652
      7          6           0       -3.000827   -0.533349    1.199750
      8          6           0       -3.063118    0.886279    1.862727
      9          6           0       -4.444216    1.406132    1.310513
     10          6           0       -2.872580    0.986630    3.285694
     11          6           0       -2.106883   -0.843192    0.152742
     12          6           0       -0.493499   -0.523545    0.494958
     13          6           0        0.428401   -0.938982   -0.549064
     14          8           0        0.214375   -1.605438   -1.564733
     15          8           0        1.694911   -0.595989   -0.217583
     16          7           0       -7.046732    2.706288    0.493515
     17          6           0       -6.066411    3.282503    1.091874
     18          6           0       -6.409859    4.686014    1.211435
     19          6           0       -7.661846    4.904626    0.569005
     20          6           0       -8.083123    3.592623    0.218026
     21          6           0       -5.467349    5.810298    1.612490
     22          6           0       -8.301209    6.239227    0.406046
     23          6           0       -9.030656    6.664558   -0.628230
     24          7           0       -9.334747    0.730008   -0.422279
     25          6           0       -9.958357    1.942198   -0.626311
     26          6           0      -11.310958    1.798200   -1.005384
     27          6           0      -11.365562    0.478867   -1.320894
     28          6           0      -10.144550   -0.161037   -0.969466
     29          6           0      -12.258445    2.891575   -1.214237
     30          6           0      -12.660471   -0.318370   -1.737640
     31          6           0      -12.567060   -0.528887   -3.264269
     32          7           0       -7.624402   -1.292198   -0.239343
     33          6           0       -8.626077   -2.080654   -0.744016
     34          6           0       -8.156032   -3.428040   -0.688707
     35          6           0       -6.920980   -3.469617   -0.171614
     36          6           0       -6.556304   -2.091896    0.038142
     37          6           0       -9.044644   -4.679346   -1.003417
     38          6           0       -5.742585   -4.229061   -0.017151
     39          8           0       -5.520132   -5.454717   -0.029719
     40          6           0       -4.531561   -3.301785    0.471647
     41          6           0       -3.801369   -3.719822    1.703157
     42          8           0       -3.842800   -3.333213    2.901145
     43          8           0       -3.156366   -4.889423    1.307951
     44          6           0       -2.315728   -5.415103    2.531390
     45          6           0        2.728609   -1.024411   -1.059278
     46          6           0        4.016303   -0.543750   -0.464913
     47          6           0        4.930580    0.253168   -1.034086
     48          6           0        4.898547    0.867197   -2.308969
     49          6           0        6.216821    0.587045   -0.286503
     50          6           0        7.454344   -0.154945   -0.784745
     51          6           0        8.716218   -0.167109    0.124216
     52          6           0        9.994619   -0.669496   -0.521924
     53          6           0       10.100514   -2.213150   -0.724322
     54          6           0       11.265699   -0.069938    0.264268
     55          6           0       12.662114   -0.426737   -0.384186
     56          6           0       13.801745    0.157505    0.289021
     57          6           0       15.103889   -0.133373   -0.219572
     58          6           0       15.489852   -1.733133   -0.238877
     59          6           0       16.324627    0.708287    0.433310
     60          6           0       17.649180    0.565341   -0.304780
     61          6           0       18.852685    1.365333    0.462720
     62          6           0       20.181069    1.434695   -0.303683
     63          6           0       20.186848    2.166768   -1.662507
     64          6           0       21.056324    2.145167    0.691162
     65          1           0       -4.378540    3.662732    2.108060
     66          1           0      -10.076610    4.200199   -0.164790
     67          1           0      -10.701490   -2.189793   -1.399873
     68          1           0       -2.855396   -1.147208    2.004921
     69          1           0       -2.274288    1.507680    1.144661
     70          1           0       -1.838911    0.481209    3.564500
     71          1           0       -2.820959    2.048478    3.529141
     72          1           0       -3.479319    0.389673    3.957661
     73          1           0       -1.934155   -2.015181   -0.101599
     74          1           0       -2.297531   -0.231978   -0.782235
     75          1           0       -0.345240    0.559360    0.652946
     76          1           0       -0.288258   -1.142792    1.472357
     77          1           0       -4.389258    5.569312    1.269086
     78          1           0       -5.856425    6.910405    1.391125
     79          1           0       -5.465255    5.663276    2.847575
     80          1           0       -8.054723    6.994828    1.148320
     81          1           0       -9.271745    6.090868   -1.539265
     82          1           0       -9.477309    7.720485   -0.548642
     83          1           0      -12.288008    3.324453   -0.178354
     84          1           0      -11.781229    3.556451   -1.856459
     85          1           0      -13.213010    2.530197   -1.559361
     86          1           0      -12.556780   -1.452494   -1.392856
     87          1           0      -13.459419    0.089650   -1.536426
     88          1           0      -12.647073    0.385136   -3.835811
     89          1           0      -11.749692   -1.169610   -3.591787
     90          1           0      -13.378556   -1.209871   -3.652900
     91          1           0      -10.067707   -4.588705   -0.462473
     92          1           0       -9.045339   -4.605458   -2.257795
     93          1           0       -8.412156   -5.500220   -0.591282
     94          1           0       -3.770856   -3.430926   -0.137343
     95          1           0       -1.763290   -6.144987    1.918611
     96          1           0       -1.807572   -4.634162    3.018985
     97          1           0       -3.078709   -5.703968    3.242208
     98          1           0        2.669672   -2.169706   -1.098000
     99          1           0        2.532568   -0.794992   -2.124229
    100          1           0        4.196588   -0.952065    0.529058
    101          1           0        5.486644    1.864731   -2.324395
    102          1           0        5.608873    0.369954   -3.031233
    103          1           0        3.806913    1.062767   -2.749422
    104          1           0        6.416724    1.710529   -0.054222
    105          1           0        6.069413    0.250045    0.869716
    106          1           0        7.312829   -1.334883   -1.081885
    107          1           0        7.836467    0.373880   -1.708589
    108          1           0        8.729332    0.878127    0.591948
    109          1           0        8.628166   -0.971108    0.896695
    110          1           0        9.929689   -0.115503   -1.581656
    111          1           0        9.198922   -2.536067   -1.395143
    112          1           0       11.018159   -2.525777   -1.287313
    113          1           0       10.165433   -2.925080    0.185411
    114          1           0       11.129101    1.027533    0.196256
    115          1           0       11.147587   -0.386360    1.251320
    116          1           0       12.700973   -1.523547   -0.503059
    117          1           0       12.682219   -0.231098   -1.450265
    118          1           0       13.665564    1.266965    0.333680
    119          1           0       13.749689   -0.314096    1.344933
    120          1           0       15.123905    0.291928   -1.277948
    121          1           0       14.804398   -2.527050   -0.747061
    122          1           0       16.493840   -1.956031   -0.703791
    123          1           0       15.598610   -2.104349    0.759959
    124          1           0       16.074461    1.672326    0.461555
    125          1           0       16.369680    0.542272    1.456745
    126          1           0       17.917036   -0.643153   -0.615724
    127          1           0       17.440383    1.078828   -1.017989
    128          1           0       18.396398    2.386353    0.548511
    129          1           0       19.011837    0.816891    1.520819
    130          1           0       20.598713    0.448798   -0.549330
    131          1           0       19.723009    3.090399   -1.552340
    132          1           0       21.191941    2.150293   -2.008959
    133          1           0       19.623966    1.639635   -2.414883
    134          1           0       21.349897    1.544734    1.604115
    135          1           0       22.038332    2.204068    0.408777
    136          1           0       20.771063    3.251659    0.930917
    137          1           0       -7.147747    1.573774    0.211030
    138          1           0       -7.674634   -0.271165   -0.092367
 ---------------------------------------------------------------------

 SCF Done:  E(RB3LYP) =  -2733.04888077     A.U. after   17 cycles

 Excitation energies and oscillator strengths:

 Excited State   1:      Singlet-A      2.0471 eV  605.65 nm  f=0.2083  <S**2>=0.000
     235 -> 237       -0.16992
     235 -> 238        0.26069
     236 -> 237        0.62317
     236 -> 238        0.11718
 This state for optimization and/or second-order correction.
 Total Energy, E(TD-HF/TD-KS) =  -2732.97364998
 Copying the excited state density for this state as the 1-particle RhoCI density.

 The electronic state is 1-A.
 Alpha  occ. eigenvalues --  -19.17316 -19.16864 -19.12654 -19.12258 -19.11686
 Alpha  occ. eigenvalues --  -14.38004 -14.37164 -14.32651 -14.29706 -10.31453
 Alpha  occ. eigenvalues --  -10.31357 -10.27906 -10.24428 -10.24059 -10.24016
 Alpha  occ. eigenvalues --  -10.23815 -10.23634 -10.23584 -10.23201 -10.23092
 Alpha  occ. eigenvalues --  -10.22703 -10.21828 -10.21750 -10.21700 -10.21598
 Alpha  occ. eigenvalues --  -10.21373 -10.21313 -10.21309 -10.21200 -10.20616
 Alpha  occ. eigenvalues --  -10.20585 -10.20567 -10.20532 -10.20516 -10.20423
 Alpha  occ. eigenvalues --  -10.20408 -10.20293 -10.20219 -10.20144 -10.20037
 Alpha  occ. eigenvalues --  -10.19797 -10.19794 -10.19675 -10.19545 -10.19414
 Alpha  occ. eigenvalues --  -10.19387 -10.19071 -10.19032 -10.18778 -10.18698
 Alpha  occ. eigenvalues --  -10.18672 -10.18666 -10.18472 -10.18404 -10.18150
 Alpha  occ. eigenvalues --  -10.17859 -10.17787 -10.17692 -10.17656 -10.17322
 Alpha  occ. eigenvalues --  -10.17292 -10.17228 -10.16788 -10.16382  -1.09670
 Alpha  occ. eigenvalues --   -1.05643  -1.00735  -0.99654  -0.99643  -0.99014
 Alpha  occ. eigenvalues --   -0.97246  -0.95915  -0.94985  -0.84601  -0.82840
 Alpha  occ. eigenvalues --   -0.82182  -0.82036  -0.81747  -0.81000  -0.80592
 Alpha  occ. eigenvalues --   -0.80430  -0.79805  -0.79746  -0.79182  -0.78225
 Alpha  occ. eigenvalues --   -0.76902  -0.76573  -0.76196  -0.75568  -0.74492
 Alpha  occ. eigenvalues --   -0.73787  -0.73150  -0.71921  -0.71075  -0.70646
 Alpha  occ. eigenvalues --   -0.69861  -0.69209  -0.68493  -0.68310  -0.68075
 Alpha  occ. eigenvalues --   -0.67240  -0.66701  -0.66274  -0.66110  -0.65434
 Alpha  occ. eigenvalues --   -0.64274  -0.63156  -0.62793  -0.61949  -0.61819
 Alpha  occ. eigenvalues --   -0.61379  -0.59233  -0.58807  -0.57803  -0.57385
 Alpha  occ. eigenvalues --   -0.56936  -0.55904  -0.55740  -0.55596  -0.55357
 Alpha  occ. eigenvalues --   -0.54820  -0.54103  -0.53940  -0.53810  -0.53390
 Alpha  occ. eigenvalues --   -0.52861  -0.51833  -0.51540  -0.50943  -0.50149
 Alpha  occ. eigenvalues --   -0.49984  -0.49379  -0.49049  -0.48234  -0.48166
 Alpha  occ. eigenvalues --   -0.47900  -0.47579  -0.47308  -0.47257  -0.46731
 Alpha  occ. eigenvalues --   -0.46470  -0.46332  -0.46053  -0.45849  -0.45695
 Alpha  occ. eigenvalues --   -0.45495  -0.45320  -0.45066  -0.44915  -0.44644
 Alpha  occ. eigenvalues --   -0.44365  -0.44293  -0.44128  -0.43897  -0.43596
 Alpha  occ. eigenvalues --   -0.43307  -0.43041  -0.42873  -0.42691  -0.42533
 Alpha  occ. eigenvalues --   -0.42486  -0.42195  -0.42019  -0.41543  -0.41300
 Alpha  occ. eigenvalues --   -0.41094  -0.40807  -0.40527  -0.40472  -0.40239
 Alpha  occ. eigenvalues --   -0.40155  -0.39927  -0.39836  -0.39578  -0.39446
 Alpha  occ. eigenvalues --   -0.39369  -0.39044  -0.38848  -0.38658  -0.38307
 Alpha  occ. eigenvalues --   -0.38211  -0.37969  -0.37865  -0.37733  -0.37659
 Alpha  occ. eigenvalues --   -0.37221  -0.37156  -0.37005  -0.36766  -0.36737
 Alpha  occ. eigenvalues --   -0.36634  -0.36496  -0.36339  -0.36231  -0.35958
 Alpha  occ. eigenvalues --   -0.35801  -0.35660  -0.35344  -0.35290  -0.35047
 Alpha  occ. eigenvalues --   -0.34623  -0.34231  -0.33970  -0.33946  -0.33895
 Alpha  occ. eigenvalues --   -0.33521  -0.32999  -0.32602  -0.32345  -0.32184
 Alpha  occ. eigenvalues --   -0.31914  -0.31900  -0.31609  -0.31266  -0.30937
 Alpha  occ. eigenvalues --   -0.30896  -0.30606  -0.30171  -0.29865  -0.29799
 Alpha  occ. eigenvalues --   -0.29720  -0.29591  -0.28309  -0.28118  -0.27956
 Alpha  occ. eigenvalues --   -0.27774  -0.27355  -0.27279  -0.26989  -0.26348
 Alpha  occ. eigenvalues --   -0.24697  -0.24509  -0.23993  -0.22583  -0.19970
 Alpha  occ. eigenvalues --   -0.18912
 Alpha virt. eigenvalues --   -0.10605  -0.07503  -0.04559  -0.02284  -0.01343
 Alpha virt. eigenvalues --   -0.00799  -0.00174   0.00208   0.02125   0.03158
 Alpha virt. eigenvalues --    0.03545   0.04003   0.04026   0.04666   0.04990

 Mulliken charges:
               1
     1  C    0.039555
     2  C   -0.078093
     3  C   -0.121779
     4  C   -0.134633
     5  N   -0.142690
     6  C   -0.127351
     7  C    0.120153
     8  C   -0.118039
     9  C    0.052613
    10  C    0.109695
    11  C    0.005470
    12  C   -0.027834
    13  C    0.189350
    14  O   -0.257533
    15  O   -0.298666
    16  N   -0.068509
    17  C   -0.026218
    18  C   -0.140450
    19  C    0.051795
    20  C    0.023511
    21  C   -0.027456
    22  C   -0.039767
    23  C   -0.053102
    24  N   -0.249576
    25  C    0.088087
    26  C   -0.192191
    27  C   -0.097888
    28  C    0.121983
    29  C    0.178997
    30  C    0.185865
    31  C   -0.016499
    32  N   -0.032897
    33  C    0.079964
    34  C   -0.186452
    35  C    0.056734
    36  C    0.020204
    37  C    0.029129
    38  C    0.058215
    39  O   -0.189326
    40  C    0.091261
    41  C    0.190336
    42  O   -0.276955
    43  O   -0.359597
    44  C    0.214053
    45  C    0.241514
    46  C   -0.059688
    47  C   -0.091158
    48  C    0.039398
    49  C    0.003220
    50  C   -0.029426
    51  C    0.024852
    52  C   -0.121248
    53  C   -0.021522
    54  C    0.071538
    55  C    0.036081
    56  C    0.089947
    57  C   -0.074393
    58  C   -0.012444
    59  C    0.103145
    60  C    0.121456
    61  C   -0.034961
    62  C   -0.084520
    63  C    0.089417
    64  C    0.058051
    65  H    0.017166
    66  H    0.020217
    67  H   -0.006901
    68  H   -0.051127
    69  H    0.018652
    70  H    0.011117
    71  H    0.022404
    72  H    0.027650
    73  H    0.060083
    74  H    0.020239
    75  H    0.041055
    76  H    0.061725
    77  H    0.058405
    78  H    0.055643
    79  H    0.045345
    80  H    0.005777
    81  H    0.034567
    82  H    0.036881
    83  H    0.029869
    84  H    0.012354
    85  H    0.006617
    86  H    0.012675
    87  H   -0.089779
    88  H    0.009495
    89  H    0.005873
    90  H   -0.008113
    91  H    0.058945
    92  H    0.064747
    93  H    0.054504
    94  H   -0.026252
    95  H    0.058825
    96  H    0.024967
    97  H    0.039254
    98  H    0.013591
    99  H    0.009135
   100  H   -0.012488
   101  H    0.010425
   102  H    0.031282
   103  H    0.047386
   104  H    0.024846
   105  H    0.000905
   106  H    0.027137
   107  H   -0.002150
   108  H    0.004608
   109  H   -0.003191
   110  H   -0.004236
   111  H    0.020522
   112  H    0.023260
   113  H    0.025383
   114  H   -0.008681
   115  H   -0.017572
   116  H   -0.020659
   117  H   -0.035776
   118  H   -0.009191
   119  H   -0.012216
   120  H   -0.016319
   121  H    0.021541
   122  H    0.006278
   123  H   -0.001936
   124  H   -0.066796
   125  H   -0.044842
   126  H    0.026082
   127  H   -0.099405
   128  H   -0.000762
   129  H    0.024317
   130  H   -0.011257
   131  H   -0.013537
   132  H    0.000363
   133  H   -0.001433
   134  H    0.000434
   135  H   -0.046765
   136  H    0.017124
   137  H    0.228811
   138  H    0.140178
 Sum of Mulliken charges =   0.00000

 Dipole moment (field-independent basis, Debye):
    X=              1.7948    Y=              5.4149    Z=              0.3998  Tot=              5.7186
 Quadrupole moment (field-independent basis, Debye-Ang):
   XX=           -336.8214   YY=           -384.3357   ZZ=           -396.6054
   XY=            -28.7361   XZ=              5.1315   YZ=             -2.9623

 Normal termination of Gaussian 09 at Sat Jul 27 12:24:33 2019.
