 Gaussian 09, Revision D.01,
 Gaussian 09:  ES64L-G09RevD.01 24-Apr-2013

 --------------------------
 # td=(NStates=1) B3LYP/SVP
 --------------------------

 --
 TD
 --
 Symbolic Z-matrix:
 Charge =  0 Multiplicity = 1

                         Standard orientation:
 ---------------------------------------------------------------------
 Center     Atomic      Atomic             Coordinates (Angstroms)
 Number     Number       Type             X           Y           Z
 ---------------------------------------------------------------------
      1          6           0       -5.150971   -1.937448    0.540351
      2          6           0       -4.931398    2.645299    1.466242
      3          6           0       -9.428014    3.405156   -0.281561
      4          6           0       -9.867701   -1.392370   -0.898245
      5          7           0       -5.227028    0.346588    0.830034
      6          6           0       -4.526584   -0.745977    0.848614
      7          6           0       -3.118209   -0.616565    1.356478
      8          6           0       -3.174272    0.858013    1.919763
      9          6           0       -4.544534    1.367377    1.380295
     10          6           0       -2.961636    1.033325    3.441273
     11          6           0       -2.032186   -0.854030    0.243168
     12          6           0       -0.672591   -0.881303    0.741978
     13          6           0        0.390942   -1.069957   -0.437017
     14          8           0        0.207036   -1.654898   -1.446553
     15          8           0        1.686901   -0.761150   -0.068177
     16          7           0       -7.207682    2.739668    0.402101
     17          6           0       -6.035849    3.301310    1.065862
     18          6           0       -6.301378    4.759645    1.048371
     19          6           0       -7.634191    4.929291    0.464223
     20          6           0       -8.075318    3.659879    0.109751
     21          6           0       -5.292783    5.708437    1.552563
     22          6           0       -8.171931    6.348238    0.227844
     23          6           0       -8.997497    6.628623   -0.717209
     24          7           0       -9.248092    1.011288   -0.554629
     25          6           0       -9.923379    2.069396   -0.597286
     26          6           0      -11.367734    1.899755   -1.054208
     27          6           0      -11.447385    0.544102   -1.178378
     28          6           0      -10.144633   -0.057616   -0.810185
     29          6           0      -12.322321    3.058368   -1.199638
     30          6           0      -12.668007   -0.092097   -1.850101
     31          6           0      -12.420618   -0.601340   -3.253240
     32          7           0       -7.610567   -1.265562   -0.241546
     33          6           0       -8.586966   -2.098166   -0.598615
     34          6           0       -8.121182   -3.415134   -0.774343
     35          6           0       -6.838283   -3.390350   -0.300810
     36          6           0       -6.482573   -2.076488    0.120894
     37          6           0       -8.986765   -4.613091   -0.949490
     38          6           0       -5.755976   -4.236580   -0.045082
     39          8           0       -5.745688   -5.451942   -0.011145
     40          6           0       -4.567150   -3.350240    0.451077
     41          6           0       -3.789176   -3.789506    1.643304
     42          8           0       -3.957192   -3.287128    2.822642
     43          8           0       -2.948837   -4.758632    1.479029
     44          6           0       -2.261201   -5.416048    2.499851
     45          6           0        2.654946   -1.066486   -0.988254
     46          6           0        4.001258   -0.735211   -0.377920
     47          6           0        4.913996   -0.069530   -0.895905
     48          6           0        4.908666    0.472041   -2.319312
     49          6           0        6.280430    0.165760   -0.283024
     50          6           0        7.596975   -0.303328   -0.946802
     51          6           0        8.820895   -0.190437   -0.229263
     52          6           0       10.151449   -0.733255   -0.800796
     53          6           0       10.071765   -2.276509   -1.117355
     54          6           0       11.367770   -0.335998   -0.080009
     55          6           0       12.650178   -0.749348   -0.636714
     56          6           0       13.813741   -0.134080    0.323148
     57          6           0       15.243885   -0.128753   -0.300243
     58          6           0       15.715721   -1.614793   -0.677221
     59          6           0       16.338981    0.524212    0.541733
     60          6           0       17.595611    0.848717   -0.201107
     61          6           0       18.620740    1.595563    0.596134
     62          6           0       20.038684    1.847688    0.007228
     63          6           0       20.082099    2.375775   -1.482977
     64          6           0       21.058383    2.602796    1.069016
     65          1           0       -4.303591    3.307328    2.139081
     66          1           0       -9.959294    4.465003   -0.165311
     67          1           0      -10.654560   -2.271913   -1.050726
     68          1           0       -2.702731   -1.197616    2.310012
     69          1           0       -2.388116    1.457341    1.601087
     70          1           0       -1.980416    0.914102    3.828869
     71          1           0       -3.168548    2.131704    3.838786
     72          1           0       -3.699830    0.331958    3.862116
     73          1           0       -2.327177   -1.853498   -0.077460
     74          1           0       -2.245954   -0.299886   -0.545909
     75          1           0       -0.151603    0.138795    1.272039
     76          1           0       -0.608715   -1.442204    1.535744
     77          1           0       -4.477135    5.776319    0.969412
     78          1           0       -5.706563    6.739050    1.864693
     79          1           0       -4.850993    5.148421    2.638115
     80          1           0       -7.543468    7.194303    0.810545
     81          1           0       -9.738544    5.997338   -1.374680
     82          1           0       -9.365454    7.760827   -0.954299
     83          1           0      -12.492540    3.403721   -0.111477
     84          1           0      -11.863550    3.988770   -1.859817
     85          1           0      -13.336944    2.824348   -1.560544
     86          1           0      -12.818792   -0.878497   -1.157773
     87          1           0      -13.597100    0.600754   -1.981207
     88          1           0      -12.160606    0.107783   -4.016813
     89          1           0      -11.707497   -1.755666   -3.316534
     90          1           0      -13.421752   -1.188839   -3.417433
     91          1           0       -9.678727   -4.604806   -0.363263
     92          1           0       -9.234256   -4.580037   -2.142983
     93          1           0       -8.425070   -5.653868   -0.732502
     94          1           0       -3.732595   -3.342197   -0.309079
     95          1           0       -1.317176   -6.135029    2.086731
     96          1           0       -1.727163   -4.744813    3.143764
     97          1           0       -3.039877   -6.048126    3.098885
     98          1           0        2.498945   -2.059069   -1.348720
     99          1           0        2.482726   -0.334798   -1.900492
    100          1           0        4.114373   -1.092131    0.656287
    101          1           0        5.032065    1.663366   -2.385404
    102          1           0        5.673358    0.219501   -3.255541
    103          1           0        3.733407    0.461734   -2.739453
    104          1           0        6.434385    1.306560   -0.138881
    105          1           0        6.163942   -0.225422    0.808512
    106          1           0        7.439331   -1.547764   -1.021086
    107          1           0        7.421648   -0.006622   -2.170718
    108          1           0        8.851786    0.943848    0.048993
    109          1           0        8.676891   -0.722412    0.797338
    110          1           0       10.144068   -0.216629   -1.859823
    111          1           0        9.347953   -2.456695   -1.949270
    112          1           0       11.075206   -2.631765   -1.511701
    113          1           0        9.851796   -2.868769   -0.252173
    114          1           0       11.237951    0.750006    0.232646
    115          1           0       11.384274   -0.681578    1.013703
    116          1           0       12.908740   -1.877819   -0.479820
    117          1           0       12.899046   -0.152790   -1.612435
    118          1           0       13.555740    0.863114    0.377639
    119          1           0       13.858485   -0.386339    1.263335
    120          1           0       15.139329    0.406184   -1.150252
    121          1           0       15.044147   -1.907305   -1.785269
    122          1           0       16.660415   -1.347234   -1.148368
    123          1           0       15.851325   -2.170668    0.289257
    124          1           0       15.754455    1.528335    0.957884
    125          1           0       16.546651    0.000268    1.463581
    126          1           0       18.105205   -0.054180   -0.611857
    127          1           0       17.277346    1.596245   -1.240179
    128          1           0       18.043586    2.772051    1.026764
    129          1           0       18.856380    1.022157    1.691615
    130          1           0       20.544973    0.612604   -0.103401
    131          1           0       19.592449    3.488782   -1.511322
    132          1           0       21.190910    2.223741   -1.820603
    133          1           0       19.181825    1.898175   -1.970666
    134          1           0       21.029287    2.163603    1.941096
    135          1           0       22.003440    2.551694    0.741617
    136          1           0       20.656847    3.707018    1.167529
    137          1           0       -7.358693    1.809475    0.392031
    138          1           0       -7.664176   -0.113617   -0.283664
 ---------------------------------------------------------------------

 SCF Done:  E(RB3LYP) =  -2732.81687520     A.U. after   17 cycles

 Excitation energies and oscillator strengths:

 Excited State   1:      Singlet-A      2.0492 eV  605.05 nm  f=0.2378  <S**2>=0.000
     235 -> 237       -0.14067
     235 -> 238        0.24992
     236 -> 237        0.64084
 This state for optimization and/or second-order correction.
 Total Energy, E(TD-HF/TD-KS) =  -2732.74156987
 Copying the excited state density for this state as the 1-particle RhoCI density.

 The electronic state is 1-A.
 Alpha  occ. eigenvalues --  -19.19065 -19.17269 -19.13473 -19.11599 -19.10600
 Alpha  occ. eigenvalues --  -14.37092 -14.36231 -14.32144 -14.31084 -10.32169
 Alpha  occ. eigenvalues --  -10.31964 -10.27159 -10.26849 -10.24348 -10.24064
 Alpha  occ. eigenvalues --  -10.23277 -10.23211 -10.22996 -10.22698 -10.22414
 Alpha  occ. eigenvalues --  -10.22307 -10.22238 -10.22222 -10.22184 -10.22037
 Alpha  occ. eigenvalues --  -10.21803 -10.21747 -10.21708 -10.21682 -10.21533
 Alpha  occ. eigenvalues --  -10.21366 -10.21237 -10.21174 -10.20981 -10.20933
 Alpha  occ. eigenvalues --  -10.20858 -10.20661 -10.20569 -10.20433 -10.20335
 Alpha  occ. eigenvalues --  -10.20287 -10.20258 -10.20065 -10.19805 -10.19791
 Alpha  occ. eigenvalues --  -10.19705 -10.19701 -10.19573 -10.19467 -10.19387
 Alpha  occ. eigenvalues --  -10.19240 -10.19233 -10.19119 -10.19061 -10.18898
 Alpha  occ. eigenvalues --  -10.18838 -10.18704 -10.18317 -10.18134 -10.18038
 Alpha  occ. eigenvalues --  -10.17974 -10.17904 -10.17416 -10.16068  -1.11352
 Alpha  occ. eigenvalues --   -1.10918  -1.02380  -1.02348  -0.98869  -0.97699
 Alpha  occ. eigenvalues --   -0.96420  -0.95911  -0.95298  -0.85513  -0.83260
 Alpha  occ. eigenvalues --   -0.82333  -0.82192  -0.81957  -0.81562  -0.81178
 Alpha  occ. eigenvalues --   -0.80307  -0.80067  -0.78693  -0.78323  -0.77859
 Alpha  occ. eigenvalues --   -0.77259  -0.76618  -0.76377  -0.74856  -0.74425
 Alpha  occ. eigenvalues --   -0.74244  -0.73412  -0.72966  -0.71668  -0.71372
 Alpha  occ. eigenvalues --   -0.70148  -0.69821  -0.68725  -0.68064  -0.67708
 Alpha  occ. eigenvalues --   -0.67007  -0.66600  -0.66389  -0.66148  -0.65370
 Alpha  occ. eigenvalues --   -0.63824  -0.63089  -0.62470  -0.61785  -0.61615
 Alpha  occ. eigenvalues --   -0.60949  -0.58804  -0.58605  -0.57792  -0.57718
 Alpha  occ. eigenvalues --   -0.56999  -0.56664  -0.56270  -0.55708  -0.55373
 Alpha  occ. eigenvalues --   -0.54827  -0.54285  -0.54138  -0.53694  -0.52649
 Alpha  occ. eigenvalues --   -0.52387  -0.51627  -0.51517  -0.51112  -0.50738
 Alpha  occ. eigenvalues --   -0.50169  -0.49479  -0.49165  -0.49075  -0.48291
 Alpha  occ. eigenvalues --   -0.47865  -0.47748  -0.47461  -0.47352  -0.47245
 Alpha  occ. eigenvalues --   -0.46832  -0.46389  -0.46125  -0.45936  -0.45821
 Alpha  occ. eigenvalues --   -0.45500  -0.45418  -0.45193  -0.44884  -0.44801
 Alpha  occ. eigenvalues --   -0.44611  -0.44371  -0.44191  -0.43972  -0.43715
 Alpha  occ. eigenvalues --   -0.43599  -0.43424  -0.43306  -0.43250  -0.42775
 Alpha  occ. eigenvalues --   -0.42581  -0.42178  -0.41861  -0.41638  -0.41490
 Alpha  occ. eigenvalues --   -0.41024  -0.40947  -0.40715  -0.40392  -0.40152
 Alpha  occ. eigenvalues --   -0.40053  -0.39881  -0.39761  -0.39614  -0.39515
 Alpha  occ. eigenvalues --   -0.39410  -0.39157  -0.38947  -0.38757  -0.38676
 Alpha  occ. eigenvalues --   -0.38190  -0.38011  -0.37865  -0.37656  -0.37591
 Alpha  occ. eigenvalues --   -0.37441  -0.37200  -0.36976  -0.36881  -0.36746
 Alpha  occ. eigenvalues --   -0.36494  -0.36246  -0.35991  -0.35554  -0.35331
 Alpha  occ. eigenvalues --   -0.35221  -0.34959  -0.34803  -0.34764  -0.34569
 Alpha  occ. eigenvalues --   -0.34004  -0.33931  -0.33714  -0.33339  -0.33277
 Alpha  occ. eigenvalues --   -0.33071  -0.32731  -0.32707  -0.32099  -0.32065
 Alpha  occ. eigenvalues --   -0.31652  -0.31553  -0.31320  -0.31230  -0.30497
 Alpha  occ. eigenvalues --   -0.30367  -0.29849  -0.29609  -0.29222  -0.29212
 Alpha  occ. eigenvalues --   -0.28653  -0.28553  -0.28462  -0.28299  -0.28180
 Alpha  occ. eigenvalues --   -0.27401  -0.27296  -0.26925  -0.26197  -0.26032
 Alpha  occ. eigenvalues --   -0.25652  -0.24759  -0.24220  -0.23388  -0.20199
 Alpha  occ. eigenvalues --   -0.18723
 Alpha virt. eigenvalues --   -0.10605  -0.07251  -0.04546  -0.01568  -0.01129
 Alpha virt. eigenvalues --   -0.01017   0.00177   0.00940   0.01800   0.02555
 Alpha virt. eigenvalues --    0.02764   0.03223   0.03344   0.03654   0.03866

 Mulliken charges:
               1
     1  C    0.040301
     2  C   -0.049020
     3  C   -0.130024
     4  C   -0.134755
     5  N   -0.103777
     6  C   -0.092440
     7  C   -0.126582
     8  C    0.025481
     9  C   -0.009368
    10  C    0.012544
    11  C    0.177982
    12  C    0.043517
    13  C    0.192770
    14  O   -0.197757
    15  O   -0.312205
    16  N    0.013237
    17  C    0.084748
    18  C   -0.110082
    19  C   -0.034578
    20  C    0.014237
    21  C    0.052578
    22  C    0.027467
    23  C   -0.126974
    24  N   -0.199142
    25  C    0.044784
    26  C   -0.114790
    27  C   -0.117637
    28  C    0.175704
    29  C    0.048994
    30  C    0.088223
    31  C   -0.064297
    32  N   -0.149824
    33  C   -0.001458
    34  C   -0.145223
    35  C    0.039895
    36  C    0.103343
    37  C    0.116449
    38  C    0.058400
    39  O   -0.173535
    40  C   -0.023424
    41  C    0.175045
    42  O   -0.317131
    43  O   -0.224777
    44  C    0.131791
    45  C    0.253812
    46  C   -0.078399
    47  C   -0.031231
    48  C   -0.085988
    49  C    0.040039
    50  C   -0.068827
    51  C    0.021006
    52  C   -0.034300
    53  C    0.015579
    54  C    0.012130
    55  C    0.028943
    56  C    0.094916
    57  C   -0.027951
    58  C   -0.017369
    59  C    0.010404
    60  C   -0.010309
    61  C   -0.073351
    62  C   -0.183577
    63  C   -0.006380
    64  C    0.134126
    65  H   -0.018274
    66  H    0.029603
    67  H    0.022558
    68  H    0.047960
    69  H   -0.037312
    70  H    0.006661
    71  H    0.012476
    72  H    0.036890
    73  H   -0.009750
    74  H   -0.047084
    75  H    0.034862
    76  H   -0.025033
    77  H    0.014482
    78  H    0.041118
    79  H    0.045201
    80  H    0.036054
    81  H    0.060107
    82  H    0.035460
    83  H    0.042490
    84  H    0.048687
    85  H    0.010373
    86  H   -0.005740
    87  H    0.023336
    88  H    0.037017
    89  H    0.017225
    90  H    0.023126
    91  H   -0.042710
    92  H    0.044447
    93  H    0.056079
    94  H    0.065379
    95  H    0.054997
    96  H    0.027257
    97  H    0.060958
    98  H    0.016087
    99  H    0.016436
   100  H   -0.015511
   101  H    0.022847
   102  H    0.071735
   103  H    0.016276
   104  H    0.005900
   105  H   -0.007028
   106  H    0.002465
   107  H    0.023669
   108  H   -0.004734
   109  H    0.004071
   110  H   -0.007500
   111  H    0.020771
   112  H    0.015453
   113  H    0.002199
   114  H   -0.012078
   115  H   -0.019877
   116  H    0.051093
   117  H    0.014176
   118  H   -0.046714
   119  H   -0.059866
   120  H   -0.054356
   121  H    0.035208
   122  H   -0.003545
   123  H    0.030424
   124  H    0.003424
   125  H   -0.011794
   126  H    0.025784
   127  H    0.024146
   128  H    0.005104
   129  H    0.022602
   130  H   -0.002534
   131  H    0.015494
   132  H    0.054727
   133  H    0.018467
   134  H   -0.033307
   135  H   -0.019442
   136  H    0.023733
   137  H    0.078769
   138  H    0.226362
 Sum of Mulliken charges =   0.00000

 Dipole moment (field-independent basis, Debye):
    X=              1.5066    Y=              4.6945    Z=              0.7780  Tot=              4.9914
 Quadrupole moment (field-independent basis, Debye-Ang):
   XX=           -343.4273   YY=           -386.6243   ZZ=           -399.4711
   XY=            -32.7002   XZ=             16.5405   YZ=             -3.2858

 Normal termination of Gaussian 09 at Fri Jul 26 17:16:53 2019.
