 Gaussian 09, Revision D.01,
 Gaussian 09:  ES64L-G09RevD.01 24-Apr-2013

 --------------------------
 # td=(NStates=1) B3LYP/SVP
 --------------------------

 --
 TD
 --
 Symbolic Z-matrix:
 Charge =  0 Multiplicity = 1

                         Standard orientation:
 ---------------------------------------------------------------------
 Center     Atomic      Atomic             Coordinates (Angstroms)
 Number     Number       Type             X           Y           Z
 ---------------------------------------------------------------------
      1          6           0       -5.176296   -1.883350    0.517970
      2          6           0       -4.746306    2.812372    1.369525
      3          6           0       -9.369130    3.313703   -0.222387
      4          6           0       -9.840638   -1.390862   -0.846875
      5          7           0       -5.192555    0.402142    0.795600
      6          6           0       -4.507346   -0.742335    0.797591
      7          6           0       -2.993286   -0.515034    1.248805
      8          6           0       -3.050880    0.877140    1.705191
      9          6           0       -4.429208    1.466975    1.250475
     10          6           0       -2.911997    1.155992    3.322018
     11          6           0       -2.046943   -0.740253    0.133563
     12          6           0       -0.647226   -0.701823    0.477301
     13          6           0        0.387054   -1.029821   -0.738019
     14          8           0        0.057005   -1.555934   -1.806391
     15          8           0        1.638406   -0.457045   -0.479897
     16          7           0       -7.138846    2.746937    0.474918
     17          6           0       -6.004556    3.420989    0.996440
     18          6           0       -6.260197    4.791764    0.958981
     19          6           0       -7.505740    4.945450    0.516614
     20          6           0       -8.091249    3.671128    0.259904
     21          6           0       -5.165971    5.719875    1.370721
     22          6           0       -7.951039    6.237792    0.315122
     23          6           0       -8.813111    6.640315   -0.658721
     24          7           0       -9.146623    0.893940   -0.450069
     25          6           0       -9.887497    2.014818   -0.457566
     26          6           0      -11.297055    1.822009   -0.820647
     27          6           0      -11.444664    0.533483   -1.071067
     28          6           0      -10.164761   -0.079297   -0.909732
     29          6           0      -12.443888    2.996691   -0.899090
     30          6           0      -12.654425   -0.228052   -1.590465
     31          6           0      -12.669989   -0.632520   -3.064978
     32          7           0       -7.430358   -1.242426   -0.250137
     33          6           0       -8.586626   -2.009542   -0.612618
     34          6           0       -8.274774   -3.389540   -0.521970
     35          6           0       -6.900306   -3.387676   -0.258046
     36          6           0       -6.440189   -2.070330   -0.018144
     37          6           0       -9.147141   -4.670376   -0.764665
     38          6           0       -5.744339   -4.294677    0.055511
     39          8           0       -5.767852   -5.512594    0.045311
     40          6           0       -4.584770   -3.441489    0.352556
     41          6           0       -3.944946   -3.880810    1.715889
     42          8           0       -4.185030   -3.410043    2.781204
     43          8           0       -3.111920   -4.906081    1.578655
     44          6           0       -2.627245   -5.583089    2.712266
     45          6           0        2.676711   -0.835318   -1.374882
     46          6           0        4.034472   -0.531761   -0.601450
     47          6           0        5.042463    0.231348   -1.041954
     48          6           0        4.866088    0.943184   -2.340607
     49          6           0        6.377339    0.212395   -0.201394
     50          6           0        7.512745   -0.436664   -1.043094
     51          6           0        8.824241   -0.277373   -0.287896
     52          6           0       10.078553   -0.707487   -0.952219
     53          6           0       10.096927   -2.280279   -1.131403
     54          6           0       11.410807   -0.169117   -0.096815
     55          6           0       12.626724   -0.635224   -0.584289
     56          6           0       13.734331    0.025265    0.230500
     57          6           0       15.194403   -0.247790   -0.468289
     58          6           0       15.641587   -1.743417   -0.470571
     59          6           0       16.257467    0.667374    0.297487
     60          6           0       17.683314    0.647361   -0.238389
     61          6           0       18.525734    1.486176    0.775185
     62          6           0       20.070381    1.615443    0.379433
     63          6           0       20.283848    2.048045   -1.043439
     64          6           0       20.941492    2.370022    1.387993
     65          1           0       -4.120948    3.542155    2.049066
     66          1           0      -10.064828    4.067590   -0.291241
     67          1           0      -10.556348   -2.224363   -1.003324
     68          1           0       -2.791869   -1.102683    2.012573
     69          1           0       -2.352234    1.468983    1.165458
     70          1           0       -2.093849    0.575769    3.633520
     71          1           0       -2.940618    2.222823    3.446259
     72          1           0       -3.570165    0.631942    3.921738
     73          1           0       -2.319779   -1.761299   -0.380921
     74          1           0       -2.044830   -0.180813   -0.676591
     75          1           0       -0.251062    0.204328    1.033551
     76          1           0       -0.368655   -1.534246    1.183821
     77          1           0       -4.440474    6.041971    0.396996
     78          1           0       -5.515811    6.810964    1.838553
     79          1           0       -4.443160    5.322825    2.158306
     80          1           0       -7.670689    6.986579    1.017459
     81          1           0       -9.040362    5.961723   -1.563405
     82          1           0       -8.917972    7.774325   -0.507077
     83          1           0      -12.834910    3.494758    0.086897
     84          1           0      -11.885845    3.964885   -1.511509
     85          1           0      -13.276022    2.376461   -1.559074
     86          1           0      -12.809703   -1.123264   -0.993691
     87          1           0      -13.573906    0.319179   -1.217054
     88          1           0      -12.857880    0.183836   -3.640501
     89          1           0      -11.688386   -1.173973   -3.540744
     90          1           0      -13.507871   -1.210072   -3.355799
     91          1           0      -10.223978   -4.471260   -0.104826
     92          1           0       -9.260184   -4.711458   -1.878736
     93          1           0       -8.526064   -5.518586   -0.101191
     94          1           0       -3.856592   -3.848098   -0.315096
     95          1           0       -2.228778   -6.582514    2.369823
     96          1           0       -1.729980   -4.952435    3.197745
     97          1           0       -3.638636   -5.718208    3.312916
     98          1           0        2.932675   -1.941303   -1.610233
     99          1           0        2.556291   -0.329182   -2.342581
    100          1           0        4.016886   -1.111517    0.281252
    101          1           0        5.414428    2.092237   -2.315289
    102          1           0        5.550978    0.387417   -3.091875
    103          1           0        3.691017    1.038493   -2.721555
    104          1           0        6.769366    1.258358   -0.079906
    105          1           0        6.177462   -0.443213    0.600105
    106          1           0        7.369431   -1.447792   -1.347064
    107          1           0        7.498804    0.088518   -2.225214
    108          1           0        8.863983    0.840323   -0.063426
    109          1           0        8.796526   -0.704930    0.679347
    110          1           0       10.279872   -0.383478   -1.967362
    111          1           0        9.250601   -2.578808   -1.723763
    112          1           0       10.981326   -2.704541   -1.660582
    113          1           0        9.953822   -2.755934   -0.228873
    114          1           0       11.516367    0.845338   -0.013046
    115          1           0       11.405957   -0.721581    0.910131
    116          1           0       12.727858   -1.701866   -0.319034
    117          1           0       12.770887   -0.608429   -1.638845
    118          1           0       13.551932    1.083576    0.575691
    119          1           0       13.664026   -0.183749    1.336608
    120          1           0       15.051782    0.145344   -1.426218
    121          1           0       14.903909   -2.239985   -0.951298
    122          1           0       16.578957   -1.981172   -1.143198
    123          1           0       15.646161   -2.083610    0.584003
    124          1           0       15.927827    1.789338    0.048393
    125          1           0       16.245890    0.223064    1.413133
    126          1           0       18.114326   -0.279236   -0.255083
    127          1           0       17.831115    0.990963   -1.227006
    128          1           0       18.148269    2.551955    0.815254
    129          1           0       18.627651    1.057553    1.751750
    130          1           0       20.386598    0.597796    0.338452
    131          1           0       20.052432    3.009314   -1.145390
    132          1           0       21.351761    2.054646   -1.180291
    133          1           0       19.731885    1.295707   -1.798658
    134          1           0       20.665294    2.239649    2.352273
    135          1           0       22.140536    2.058131    1.192518
    136          1           0       20.606844    3.441424    1.424904
    137          1           0       -7.097038    1.843564    0.430528
    138          1           0       -7.596177   -0.231612   -0.277855
 ---------------------------------------------------------------------

 SCF Done:  E(RB3LYP) =  -2732.99730641     A.U. after   17 cycles

 Excitation energies and oscillator strengths:

 Excited State   1:      Singlet-A      2.1068 eV  588.48 nm  f=0.2042  <S**2>=0.000
     235 -> 237       -0.28656
     235 -> 238        0.24319
     236 -> 237        0.57138
     236 -> 238        0.17488
 This state for optimization and/or second-order correction.
 Total Energy, E(TD-HF/TD-KS) =  -2732.91988116
 Copying the excited state density for this state as the 1-particle RhoCI density.

 The electronic state is 1-A.
 Alpha  occ. eigenvalues --  -19.18558 -19.17225 -19.13650 -19.11870 -19.11190
 Alpha  occ. eigenvalues --  -14.36368 -14.35888 -14.31827 -14.30785 -10.32758
 Alpha  occ. eigenvalues --  -10.31138 -10.26887 -10.26158 -10.25301 -10.24095
 Alpha  occ. eigenvalues --  -10.23778 -10.23376 -10.23151 -10.23067 -10.22808
 Alpha  occ. eigenvalues --  -10.22742 -10.22646 -10.22590 -10.21952 -10.21521
 Alpha  occ. eigenvalues --  -10.21308 -10.21214 -10.21171 -10.21166 -10.20563
 Alpha  occ. eigenvalues --  -10.20465 -10.20389 -10.20219 -10.20018 -10.19919
 Alpha  occ. eigenvalues --  -10.19823 -10.19798 -10.19792 -10.19633 -10.19553
 Alpha  occ. eigenvalues --  -10.19517 -10.19499 -10.19418 -10.19369 -10.19169
 Alpha  occ. eigenvalues --  -10.18901 -10.18894 -10.18679 -10.18495 -10.18444
 Alpha  occ. eigenvalues --  -10.18357 -10.18280 -10.18267 -10.18118 -10.18106
 Alpha  occ. eigenvalues --  -10.18098 -10.17932 -10.17711 -10.17546 -10.17225
 Alpha  occ. eigenvalues --  -10.17129 -10.16725 -10.16611 -10.16523  -1.10523
 Alpha  occ. eigenvalues --   -1.08114  -1.01879  -1.01092  -1.00401  -0.99504
 Alpha  occ. eigenvalues --   -0.98036  -0.93697  -0.92747  -0.84531  -0.83765
 Alpha  occ. eigenvalues --   -0.82877  -0.82597  -0.81511  -0.81163  -0.80462
 Alpha  occ. eigenvalues --   -0.79818  -0.79692  -0.79113  -0.78631  -0.77391
 Alpha  occ. eigenvalues --   -0.77225  -0.76188  -0.75642  -0.74509  -0.74237
 Alpha  occ. eigenvalues --   -0.73579  -0.73216  -0.72804  -0.71585  -0.70490
 Alpha  occ. eigenvalues --   -0.69842  -0.69497  -0.68219  -0.67960  -0.67597
 Alpha  occ. eigenvalues --   -0.66763  -0.66630  -0.65777  -0.65607  -0.65022
 Alpha  occ. eigenvalues --   -0.64663  -0.63797  -0.63170  -0.62304  -0.61887
 Alpha  occ. eigenvalues --   -0.60851  -0.59547  -0.59103  -0.57963  -0.57739
 Alpha  occ. eigenvalues --   -0.57167  -0.56448  -0.56358  -0.55915  -0.55446
 Alpha  occ. eigenvalues --   -0.54891  -0.54774  -0.54517  -0.53753  -0.52806
 Alpha  occ. eigenvalues --   -0.52708  -0.52123  -0.51506  -0.50844  -0.49932
 Alpha  occ. eigenvalues --   -0.49578  -0.49449  -0.49088  -0.48857  -0.48448
 Alpha  occ. eigenvalues --   -0.48098  -0.48083  -0.47625  -0.47397  -0.47286
 Alpha  occ. eigenvalues --   -0.46956  -0.46392  -0.46192  -0.45832  -0.45521
 Alpha  occ. eigenvalues --   -0.45356  -0.45078  -0.44778  -0.44597  -0.44483
 Alpha  occ. eigenvalues --   -0.44355  -0.44094  -0.43994  -0.43757  -0.43369
 Alpha  occ. eigenvalues --   -0.43001  -0.42822  -0.42729  -0.42534  -0.42261
 Alpha  occ. eigenvalues --   -0.41999  -0.41911  -0.41732  -0.41450  -0.41079
 Alpha  occ. eigenvalues --   -0.40857  -0.40727  -0.40534  -0.40171  -0.39955
 Alpha  occ. eigenvalues --   -0.39677  -0.39502  -0.39472  -0.39281  -0.39123
 Alpha  occ. eigenvalues --   -0.38913  -0.38790  -0.38645  -0.38380  -0.38243
 Alpha  occ. eigenvalues --   -0.38110  -0.38034  -0.37756  -0.37652  -0.37560
 Alpha  occ. eigenvalues --   -0.37291  -0.37229  -0.37015  -0.36813  -0.36780
 Alpha  occ. eigenvalues --   -0.36616  -0.36206  -0.35986  -0.35838  -0.35797
 Alpha  occ. eigenvalues --   -0.35683  -0.35564  -0.35497  -0.35278  -0.35084
 Alpha  occ. eigenvalues --   -0.34825  -0.34775  -0.34361  -0.34170  -0.33384
 Alpha  occ. eigenvalues --   -0.33237  -0.32961  -0.32768  -0.32440  -0.32357
 Alpha  occ. eigenvalues --   -0.32161  -0.31928  -0.31686  -0.31612  -0.31368
 Alpha  occ. eigenvalues --   -0.31018  -0.30846  -0.30675  -0.30489  -0.30216
 Alpha  occ. eigenvalues --   -0.29984  -0.28912  -0.28437  -0.28164  -0.28106
 Alpha  occ. eigenvalues --   -0.27359  -0.27110  -0.26910  -0.26094  -0.25845
 Alpha  occ. eigenvalues --   -0.24451  -0.24368  -0.24286  -0.23807  -0.20011
 Alpha  occ. eigenvalues --   -0.19010
 Alpha virt. eigenvalues --   -0.10452  -0.07327  -0.03526  -0.01801  -0.01143
 Alpha virt. eigenvalues --    0.00000   0.01031   0.01553   0.02435   0.03137
 Alpha virt. eigenvalues --    0.03261   0.03614   0.04181   0.04259   0.04358

 Mulliken charges:
               1
     1  C    0.107169
     2  C   -0.083750
     3  C   -0.054395
     4  C   -0.065054
     5  N   -0.191709
     6  C   -0.152604
     7  C    0.170290
     8  C   -0.055983
     9  C    0.025175
    10  C    0.132427
    11  C    0.106707
    12  C    0.005284
    13  C    0.195235
    14  O   -0.237558
    15  O   -0.316212
    16  N    0.032054
    17  C    0.012418
    18  C   -0.049261
    19  C    0.100153
    20  C    0.108152
    21  C   -0.028043
    22  C   -0.120425
    23  C   -0.049727
    24  N   -0.291440
    25  C    0.070809
    26  C   -0.109343
    27  C   -0.067486
    28  C    0.124329
    29  C   -0.053559
    30  C    0.068323
    31  C    0.055341
    32  N   -0.015472
    33  C    0.000459
    34  C   -0.147510
    35  C   -0.022933
    36  C    0.066815
    37  C   -0.015622
    38  C    0.041152
    39  O   -0.186970
    40  C    0.017769
    41  C    0.154284
    42  O   -0.207249
    43  O   -0.278639
    44  C    0.113252
    45  C    0.219521
    46  C   -0.111889
    47  C   -0.098873
    48  C   -0.051353
    49  C    0.167814
    50  C   -0.074399
    51  C    0.096583
    52  C   -0.050752
    53  C    0.038126
    54  C    0.043021
    55  C    0.108009
    56  C   -0.060543
    57  C   -0.018348
    58  C    0.069102
    59  C   -0.039035
    60  C    0.103560
    61  C   -0.000232
    62  C   -0.111854
    63  C    0.084236
    64  C    0.063660
    65  H    0.018289
    66  H   -0.071768
    67  H   -0.022515
    68  H   -0.073931
    69  H   -0.020402
    70  H   -0.014301
    71  H    0.017950
    72  H   -0.007605
    73  H    0.026878
    74  H   -0.047903
    75  H    0.038853
    76  H    0.017905
    77  H    0.058390
    78  H    0.038600
    79  H    0.041523
    80  H   -0.007161
    81  H    0.054114
    82  H    0.035721
    83  H    0.064453
    84  H    0.050518
    85  H    0.057376
    86  H   -0.008195
    87  H   -0.001241
    88  H   -0.022283
    89  H    0.039012
    90  H   -0.006227
    91  H    0.051875
    92  H    0.070071
    93  H    0.093089
    94  H    0.027473
    95  H    0.048286
    96  H    0.049499
    97  H    0.059886
    98  H    0.043628
    99  H    0.011532
   100  H   -0.026000
   101  H    0.029291
   102  H    0.046232
   103  H    0.065055
   104  H    0.013034
   105  H   -0.009203
   106  H   -0.011484
   107  H    0.004322
   108  H   -0.011305
   109  H   -0.022478
   110  H   -0.018390
   111  H   -0.006444
   112  H    0.015570
   113  H   -0.020311
   114  H   -0.027447
   115  H   -0.007134
   116  H   -0.005197
   117  H   -0.022713
   118  H   -0.022441
   119  H   -0.030777
   120  H   -0.030501
   121  H   -0.027920
   122  H    0.027651
   123  H    0.012386
   124  H    0.017052
   125  H    0.017207
   126  H   -0.041537
   127  H   -0.017469
   128  H   -0.006791
   129  H   -0.007041
   130  H   -0.029420
   131  H   -0.039959
   132  H   -0.018003
   133  H    0.029557
   134  H   -0.038780
   135  H    0.042281
   136  H   -0.007999
   137  H    0.051848
   138  H    0.140858
 Sum of Mulliken charges =   0.00000

 Dipole moment (field-independent basis, Debye):
    X=              1.4843    Y=              3.6686    Z=              0.8689  Tot=              4.0517
 Quadrupole moment (field-independent basis, Debye-Ang):
   XX=           -358.0366   YY=           -384.4026   ZZ=           -393.7938
   XY=            -32.7696   XZ=              8.8491   YZ=              1.1999

 Normal termination of Gaussian 09 at Wed Jul 31 20:18:26 2019.
