 Gaussian 09, Revision D.01,
 Gaussian 09:  ES64L-G09RevD.01 24-Apr-2013

 --------------------------
 # td=(NStates=1) B3LYP/SVP
 --------------------------

 --
 TD
 --
 Symbolic Z-matrix:
 Charge =  0 Multiplicity = 1

                         Standard orientation:
 ---------------------------------------------------------------------
 Center     Atomic      Atomic             Coordinates (Angstroms)
 Number     Number       Type             X           Y           Z
 ---------------------------------------------------------------------
      1          6           0       -5.089765   -1.933516    0.514319
      2          6           0       -4.616407    2.806469    1.435762
      3          6           0       -9.304910    3.352014   -0.092785
      4          6           0       -9.761220   -1.353786   -0.947195
      5          7           0       -5.005886    0.463231    0.785269
      6          6           0       -4.464713   -0.739073    0.852611
      7          6           0       -2.936959   -0.639101    1.346212
      8          6           0       -3.042151    0.797610    1.972939
      9          6           0       -4.318961    1.397632    1.414637
     10          6           0       -2.926838    0.900462    3.448075
     11          6           0       -1.974635   -0.763030    0.042515
     12          6           0       -0.611964   -0.924752    0.559461
     13          6           0        0.406283   -1.125659   -0.656255
     14          8           0        0.117942   -1.524153   -1.768988
     15          8           0        1.656940   -0.777829   -0.247425
     16          7           0       -6.999727    2.710189    0.517824
     17          6           0       -5.860698    3.413453    0.972880
     18          6           0       -6.131353    4.827151    1.062255
     19          6           0       -7.472179    4.894929    0.569926
     20          6           0       -7.966634    3.645616    0.229135
     21          6           0       -5.187394    5.905207    1.522126
     22          6           0       -8.146139    6.193047    0.450216
     23          6           0       -9.054650    6.469772   -0.511191
     24          7           0       -9.226529    0.916489   -0.471517
     25          6           0       -9.820340    2.131662   -0.633930
     26          6           0      -11.109793    2.030784   -1.149766
     27          6           0      -11.328221    0.662792   -1.423945
     28          6           0      -10.051858   -0.015323   -0.914852
     29          6           0      -12.103693    3.088624   -1.283059
     30          6           0      -12.483989   -0.096341   -1.856044
     31          6           0      -12.495056   -0.461490   -3.414627
     32          7           0       -7.488095   -1.227935   -0.138840
     33          6           0       -8.564837   -1.995472   -0.628284
     34          6           0       -8.225870   -3.457407   -0.540024
     35          6           0       -6.857641   -3.444322   -0.165632
     36          6           0       -6.436075   -2.091760    0.115069
     37          6           0       -9.141955   -4.617994   -0.902637
     38          6           0       -5.764221   -4.322046    0.111964
     39          8           0       -5.716013   -5.519214    0.188584
     40          6           0       -4.575296   -3.370365    0.479679
     41          6           0       -3.856516   -3.719611    1.837993
     42          8           0       -4.136120   -3.224267    2.898680
     43          8           0       -3.206646   -4.844946    1.707654
     44          6           0       -2.547425   -5.594242    2.783833
     45          6           0        2.656776   -1.045931   -1.102362
     46          6           0        3.983786   -0.721250   -0.552125
     47          6           0        4.920190    0.081024   -1.084470
     48          6           0        4.751705    0.751779   -2.473292
     49          6           0        6.107129    0.261862   -0.318978
     50          6           0        7.362403   -0.477540   -0.959801
     51          6           0        8.660671   -0.356782   -0.231269
     52          6           0        9.996110   -0.816969   -0.932228
     53          6           0       10.006467   -2.316329   -1.176325
     54          6           0       11.200426   -0.254209   -0.215970
     55          6           0       12.575488   -0.579540   -0.695312
     56          6           0       13.814623    0.042475    0.069761
     57          6           0       15.211416   -0.079686   -0.578329
     58          6           0       15.616360   -1.589629   -0.810537
     59          6           0       16.146599    0.661618    0.377879
     60          6           0       17.528663    0.731954   -0.094201
     61          6           0       18.487097    1.651602    0.687782
     62          6           0       20.034691    1.625990    0.353379
     63          6           0       20.292956    2.012637   -1.134979
     64          6           0       20.756734    2.580158    1.355650
     65          1           0       -3.907068    3.494032    1.941941
     66          1           0       -9.884186    4.196045   -0.018951
     67          1           0      -10.761205   -2.031954   -1.266294
     68          1           0       -2.510062   -1.525823    2.038697
     69          1           0       -2.176649    1.576942    1.545470
     70          1           0       -1.926242    0.534925    3.666428
     71          1           0       -2.997126    1.805601    3.754658
     72          1           0       -4.065636    0.355029    3.741222
     73          1           0       -2.451520   -1.754751   -0.446167
     74          1           0       -2.360931   -0.057613   -0.604545
     75          1           0       -0.233760   -0.047416    1.014294
     76          1           0       -0.553499   -1.693993    1.316752
     77          1           0       -4.298712    5.850013    1.117547
     78          1           0       -5.621306    6.875096    1.415533
     79          1           0       -5.142943    5.702533    2.620068
     80          1           0       -7.805821    6.949578    1.119236
     81          1           0       -9.464240    5.842058   -1.365326
     82          1           0       -9.526433    7.425353   -0.515009
     83          1           0      -12.448559    3.460061   -0.144500
     84          1           0      -11.799325    3.833535   -1.751292
     85          1           0      -13.146331    2.778152   -1.419824
     86          1           0      -12.423111   -0.936397   -1.367989
     87          1           0      -13.458243    0.239863   -1.683038
     88          1           0      -12.444202    0.319823   -4.292684
     89          1           0      -11.555116   -1.159120   -3.692136
     90          1           0      -13.175543   -1.176777   -3.805306
     91          1           0      -10.308012   -4.398510   -0.707491
     92          1           0       -9.207538   -4.468664   -1.968951
     93          1           0       -8.630325   -5.560641   -0.761432
     94          1           0       -3.862488   -3.569148   -0.250524
     95          1           0       -1.902152   -6.424244    2.336729
     96          1           0       -2.305162   -4.978477    3.658203
     97          1           0       -3.536301   -6.131944    3.332602
     98          1           0        2.615948   -2.138856   -1.355634
     99          1           0        2.559629   -0.530696   -2.074233
    100          1           0        4.304520   -1.007489    0.411161
    101          1           0        4.878726    1.890860   -2.147467
    102          1           0        5.693306    0.539715   -3.193668
    103          1           0        3.848174    0.370624   -2.985727
    104          1           0        6.224905    1.367622    0.089791
    105          1           0        5.955701   -0.194453    0.713251
    106          1           0        6.978525   -1.558015   -0.911360
    107          1           0        7.557993   -0.072565   -1.929645
    108          1           0        8.730216    0.804890    0.291572
    109          1           0        8.748439   -0.826970    0.839909
    110          1           0        9.981080   -0.155630   -1.990101
    111          1           0        9.063205   -2.439296   -1.768343
    112          1           0       10.932798   -2.721459   -1.790967
    113          1           0        9.891626   -3.052795   -0.427349
    114          1           0       11.174899    0.948730    0.012552
    115          1           0       11.274146   -0.359916    0.937236
    116          1           0       12.808888   -1.737213   -0.734504
    117          1           0       12.739687   -0.324500   -1.788608
    118          1           0       13.608269    1.128274    0.158801
    119          1           0       13.788949   -0.494425    1.095929
    120          1           0       15.288137    0.499944   -1.399280
    121          1           0       14.837209   -2.045088   -1.537551
    122          1           0       16.607857   -1.559374   -1.381082
    123          1           0       15.645413   -2.383425    0.162998
    124          1           0       15.654709    1.645960    0.711174
    125          1           0       16.278623    0.190981    1.391385
    126          1           0       18.149016   -0.150162    0.020214
    127          1           0       17.595877    1.128348   -1.079924
    128          1           0       18.167103    2.638220    0.560704
    129          1           0       18.225493    1.494314    1.742414
    130          1           0       20.483818    0.710541    0.658069
    131          1           0       19.594694    2.868788   -1.418351
    132          1           0       21.465047    1.980304   -1.390110
    133          1           0       19.994503    1.141408   -1.862006
    134          1           0       20.646281    2.103178    2.334667
    135          1           0       21.866485    2.742758    1.149661
    136          1           0       20.396532    3.644343    1.233154
    137          1           0       -7.098412    1.721819    0.294184
    138          1           0       -7.672759   -0.134017    0.208063
 ---------------------------------------------------------------------

 SCF Done:  E(RB3LYP) =  -2733.04363424     A.U. after   17 cycles

 Excitation energies and oscillator strengths:

 Excited State   1:      Singlet-A      2.0258 eV  612.03 nm  f=0.1168  <S**2>=0.000
     235 -> 237       -0.19852
     235 -> 238       -0.31907
     236 -> 237        0.57678
     236 -> 238       -0.14741
 This state for optimization and/or second-order correction.
 Total Energy, E(TD-HF/TD-KS) =  -2732.96918746
 Copying the excited state density for this state as the 1-particle RhoCI density.

 The electronic state is 1-A.
 Alpha  occ. eigenvalues --  -19.18267 -19.17704 -19.13293 -19.11908 -19.11412
 Alpha  occ. eigenvalues --  -14.37148 -14.36773 -14.31558 -14.29827 -10.32089
 Alpha  occ. eigenvalues --  -10.31067 -10.27288 -10.27047 -10.24407 -10.24069
 Alpha  occ. eigenvalues --  -10.24004 -10.23585 -10.23158 -10.23000 -10.22827
 Alpha  occ. eigenvalues --  -10.22744 -10.21399 -10.21170 -10.21095 -10.20992
 Alpha  occ. eigenvalues --  -10.20969 -10.20927 -10.20918 -10.20645 -10.20495
 Alpha  occ. eigenvalues --  -10.20417 -10.20416 -10.20404 -10.20384 -10.20271
 Alpha  occ. eigenvalues --  -10.20252 -10.19963 -10.19951 -10.19873 -10.19806
 Alpha  occ. eigenvalues --  -10.19716 -10.19653 -10.19533 -10.19514 -10.19480
 Alpha  occ. eigenvalues --  -10.19447 -10.19366 -10.19286 -10.19213 -10.19177
 Alpha  occ. eigenvalues --  -10.18788 -10.18720 -10.18696 -10.18683 -10.18576
 Alpha  occ. eigenvalues --  -10.18383 -10.18365 -10.18273 -10.18143 -10.17999
 Alpha  occ. eigenvalues --  -10.17961 -10.17446 -10.17094 -10.16705  -1.11138
 Alpha  occ. eigenvalues --   -1.09628  -1.03170  -1.01739  -1.00103  -0.97259
 Alpha  occ. eigenvalues --   -0.96274  -0.95017  -0.93964  -0.84522  -0.83281
 Alpha  occ. eigenvalues --   -0.82017  -0.81926  -0.80943  -0.80612  -0.80603
 Alpha  occ. eigenvalues --   -0.79896  -0.79499  -0.79062  -0.78970  -0.77969
 Alpha  occ. eigenvalues --   -0.76787  -0.75821  -0.75578  -0.75017  -0.74562
 Alpha  occ. eigenvalues --   -0.73663  -0.73260  -0.72445  -0.72022  -0.71583
 Alpha  occ. eigenvalues --   -0.69696  -0.68963  -0.68382  -0.68162  -0.68036
 Alpha  occ. eigenvalues --   -0.66577  -0.66479  -0.66038  -0.65652  -0.65008
 Alpha  occ. eigenvalues --   -0.64417  -0.62768  -0.62522  -0.62162  -0.61472
 Alpha  occ. eigenvalues --   -0.60919  -0.58894  -0.58046  -0.57378  -0.57258
 Alpha  occ. eigenvalues --   -0.56669  -0.56361  -0.56038  -0.55753  -0.55593
 Alpha  occ. eigenvalues --   -0.55092  -0.54701  -0.54166  -0.53592  -0.53364
 Alpha  occ. eigenvalues --   -0.52698  -0.51743  -0.51261  -0.50980  -0.50528
 Alpha  occ. eigenvalues --   -0.50106  -0.49738  -0.48721  -0.48672  -0.48402
 Alpha  occ. eigenvalues --   -0.47738  -0.47636  -0.47167  -0.47097  -0.46999
 Alpha  occ. eigenvalues --   -0.46535  -0.46405  -0.46313  -0.46069  -0.45774
 Alpha  occ. eigenvalues --   -0.45589  -0.45513  -0.45206  -0.45050  -0.44770
 Alpha  occ. eigenvalues --   -0.44534  -0.44479  -0.44273  -0.43976  -0.43591
 Alpha  occ. eigenvalues --   -0.43474  -0.43305  -0.43156  -0.42842  -0.42751
 Alpha  occ. eigenvalues --   -0.42600  -0.42499  -0.42312  -0.42140  -0.41870
 Alpha  occ. eigenvalues --   -0.41490  -0.41299  -0.41064  -0.40984  -0.40816
 Alpha  occ. eigenvalues --   -0.40384  -0.39959  -0.39687  -0.39583  -0.39497
 Alpha  occ. eigenvalues --   -0.39045  -0.38815  -0.38737  -0.38594  -0.38420
 Alpha  occ. eigenvalues --   -0.38202  -0.37878  -0.37779  -0.37710  -0.37630
 Alpha  occ. eigenvalues --   -0.37360  -0.37227  -0.37125  -0.37081  -0.36765
 Alpha  occ. eigenvalues --   -0.36623  -0.36484  -0.36248  -0.35896  -0.35604
 Alpha  occ. eigenvalues --   -0.35554  -0.35208  -0.34930  -0.34565  -0.34531
 Alpha  occ. eigenvalues --   -0.33943  -0.33866  -0.33815  -0.33596  -0.33475
 Alpha  occ. eigenvalues --   -0.33098  -0.32724  -0.32484  -0.32362  -0.32113
 Alpha  occ. eigenvalues --   -0.31832  -0.31445  -0.31390  -0.30870  -0.30811
 Alpha  occ. eigenvalues --   -0.30794  -0.30495  -0.30415  -0.30198  -0.29595
 Alpha  occ. eigenvalues --   -0.29135  -0.29058  -0.28349  -0.28324  -0.27863
 Alpha  occ. eigenvalues --   -0.27198  -0.26599  -0.25899  -0.25843  -0.25440
 Alpha  occ. eigenvalues --   -0.24884  -0.24515  -0.23758  -0.22158  -0.19400
 Alpha  occ. eigenvalues --   -0.18888
 Alpha virt. eigenvalues --   -0.10153  -0.07942  -0.04368  -0.01553  -0.00438
 Alpha virt. eigenvalues --   -0.00123   0.00158   0.00993   0.01987   0.03594
 Alpha virt. eigenvalues --    0.03782   0.04317   0.04489   0.04569   0.04916

 Mulliken charges:
               1
     1  C    0.105899
     2  C   -0.075311
     3  C   -0.062904
     4  C   -0.114944
     5  N   -0.102031
     6  C   -0.125031
     7  C   -0.136119
     8  C   -0.096937
     9  C   -0.017337
    10  C    0.162393
    11  C    0.052026
    12  C    0.120838
    13  C    0.177887
    14  O   -0.223789
    15  O   -0.266680
    16  N   -0.078857
    17  C    0.098007
    18  C   -0.180007
    19  C    0.012344
    20  C    0.088709
    21  C    0.219590
    22  C   -0.023760
    23  C   -0.046996
    24  N   -0.230227
    25  C    0.096370
    26  C   -0.151478
    27  C   -0.065073
    28  C    0.008744
    29  C    0.192407
    30  C    0.204276
    31  C   -0.071859
    32  N   -0.158641
    33  C    0.085827
    34  C   -0.138944
    35  C   -0.014063
    36  C    0.058750
    37  C    0.136410
    38  C    0.058435
    39  O   -0.151019
    40  C   -0.022620
    41  C    0.161964
    42  O   -0.225072
    43  O   -0.275328
    44  C    0.128073
    45  C    0.311427
    46  C   -0.070591
    47  C   -0.176896
    48  C    0.023695
    49  C    0.023000
    50  C    0.087800
    51  C   -0.093608
    52  C   -0.023183
    53  C    0.033878
    54  C   -0.010732
    55  C    0.005790
    56  C   -0.017716
    57  C    0.017349
    58  C   -0.048639
    59  C    0.000574
    60  C    0.091803
    61  C    0.000341
    62  C   -0.054388
    63  C   -0.030725
    64  C    0.005641
    65  H   -0.015560
    66  H   -0.057920
    67  H    0.022110
    68  H    0.036734
    69  H    0.001575
    70  H    0.011863
    71  H   -0.054937
    72  H    0.044323
    73  H    0.024143
    74  H   -0.012780
    75  H    0.005266
    76  H    0.021979
    77  H   -0.006594
    78  H   -0.000057
    79  H    0.029391
    80  H   -0.007832
    81  H    0.050656
    82  H    0.008861
    83  H    0.011082
    84  H   -0.048338
    85  H    0.002326
    86  H   -0.059028
    87  H   -0.017864
    88  H    0.031526
    89  H   -0.001464
    90  H   -0.006475
    91  H    0.043199
    92  H    0.018723
    93  H    0.043219
    94  H    0.019138
    95  H    0.079848
    96  H    0.050422
    97  H    0.042971
    98  H    0.004203
    99  H   -0.011470
   100  H   -0.047079
   101  H    0.042375
   102  H    0.038999
   103  H    0.030868
   104  H    0.015737
   105  H   -0.007653
   106  H    0.023491
   107  H    0.001826
   108  H    0.003862
   109  H   -0.002053
   110  H    0.016936
   111  H    0.005219
   112  H    0.032514
   113  H    0.001600
   114  H   -0.010039
   115  H   -0.016757
   116  H    0.007049
   117  H   -0.014821
   118  H   -0.004871
   119  H    0.009203
   120  H   -0.042317
   121  H    0.024571
   122  H    0.027911
   123  H    0.040478
   124  H   -0.006371
   125  H   -0.018906
   126  H   -0.000789
   127  H   -0.029235
   128  H   -0.039924
   129  H   -0.026138
   130  H   -0.016304
   131  H    0.032532
   132  H    0.030473
   133  H    0.016989
   134  H    0.015948
   135  H    0.004342
   136  H    0.007282
   137  H    0.132868
   138  H    0.228206
 Sum of Mulliken charges =   0.00000

 Dipole moment (field-independent basis, Debye):
    X=              1.5525    Y=              3.2410    Z=              0.9253  Tot=              3.7109
 Quadrupole moment (field-independent basis, Debye-Ang):
   XX=           -352.7394   YY=           -373.7467   ZZ=           -398.5243
   XY=            -25.3107   XZ=              8.3126   YZ=              1.2237

 Normal termination of Gaussian 09 at Fri Aug  2 22:00:27 2019.
