 Gaussian 09, Revision D.01,
 Gaussian 09:  ES64L-G09RevD.01 24-Apr-2013

 --------------------------
 # td=(NStates=1) B3LYP/SVP
 --------------------------

 --
 TD
 --
 Symbolic Z-matrix:
 Charge =  0 Multiplicity = 1

                         Standard orientation:
 ---------------------------------------------------------------------
 Center     Atomic      Atomic             Coordinates (Angstroms)
 Number     Number       Type             X           Y           Z
 ---------------------------------------------------------------------
      1          6           0       -5.026801   -1.741005    0.394352
      2          6           0       -4.842302    2.958803    1.340779
      3          6           0       -9.447186    3.109638   -0.207963
      4          6           0       -9.829816   -1.694511   -0.794750
      5          7           0       -5.305453    0.561930    0.777460
      6          6           0       -4.546805   -0.574868    0.729882
      7          6           0       -2.981320   -0.433301    1.231629
      8          6           0       -3.120536    1.128741    1.724650
      9          6           0       -4.473215    1.615449    1.206536
     10          6           0       -2.885834    1.392916    3.205640
     11          6           0       -2.029798   -0.760335    0.110129
     12          6           0       -0.551546   -0.459035    0.487740
     13          6           0        0.413581   -0.943011   -0.633127
     14          8           0        0.019798   -1.154366   -1.761517
     15          8           0        1.683802   -0.828249   -0.153271
     16          7           0       -7.025867    2.745778    0.315526
     17          6           0       -6.055347    3.503587    0.884789
     18          6           0       -6.556415    4.862309    0.875787
     19          6           0       -7.845861    4.856209    0.357149
     20          6           0       -8.188850    3.481252    0.088446
     21          6           0       -5.694211    5.923718    1.196580
     22          6           0       -8.540293    6.018674    0.188370
     23          6           0       -9.319275    6.406841   -0.837805
     24          7           0       -9.281237    0.683192   -0.400569
     25          6           0       -9.943225    1.804919   -0.424072
     26          6           0      -11.377256    1.645645   -0.904779
     27          6           0      -11.509303    0.314612   -1.058482
     28          6           0      -10.161639   -0.281999   -0.843551
     29          6           0      -12.555542    2.693387   -0.697203
     30          6           0      -12.710662   -0.522025   -1.483917
     31          6           0      -12.645644   -0.789974   -3.038649
     32          7           0       -7.542902   -1.298064   -0.129453
     33          6           0       -8.615424   -2.167771   -0.610577
     34          6           0       -8.122349   -3.448398   -0.521221
     35          6           0       -6.670729   -3.393946   -0.148192
     36          6           0       -6.389050   -1.976906    0.031511
     37          6           0       -8.834524   -4.854351   -0.681973
     38          6           0       -5.593958   -4.232454    0.131685
     39          8           0       -5.422297   -5.426251    0.154766
     40          6           0       -4.406170   -3.247254    0.386865
     41          6           0       -3.838027   -3.623202    1.780179
     42          8           0       -4.105895   -3.221803    2.888520
     43          8           0       -2.889180   -4.575955    1.646167
     44          6           0       -2.138836   -5.126585    2.731331
     45          6           0        2.699519   -1.159711   -1.133960
     46          6           0        4.101832   -0.835195   -0.653298
     47          6           0        5.032641   -0.051691   -1.272092
     48          6           0        4.949013    0.692165   -2.535765
     49          6           0        6.298174    0.176081   -0.398720
     50          6           0        7.534325   -0.416233   -1.022299
     51          6           0        8.809858   -0.201862   -0.294401
     52          6           0       10.101631   -0.731945   -0.968282
     53          6           0       10.082254   -2.253372   -1.249629
     54          6           0       11.341207   -0.328348   -0.087341
     55          6           0       12.670472   -0.647388   -0.562016
     56          6           0       13.829555    0.184186    0.111869
     57          6           0       15.366403   -0.126691   -0.339295
     58          6           0       15.715539   -1.664969   -0.235092
     59          6           0       16.257066    0.758120    0.371183
     60          6           0       17.751825    0.625912   -0.033656
     61          6           0       18.631705    1.675882    0.703482
     62          6           0       20.154810    1.623873    0.335270
     63          6           0       20.311568    2.026629   -1.204159
     64          6           0       20.937192    2.443607    1.272510
     65          1           0       -4.085613    3.690484    1.515505
     66          1           0      -10.219339    3.984097   -0.420269
     67          1           0      -10.792564   -2.221202   -1.065580
     68          1           0       -2.677160   -0.953687    2.168482
     69          1           0       -2.348602    1.478177    1.155520
     70          1           0       -1.876553    1.122649    3.469768
     71          1           0       -3.096614    2.530624    3.462694
     72          1           0       -3.592066    0.822641    3.898787
     73          1           0       -2.001864   -1.709286   -0.278885
     74          1           0       -2.271573   -0.108447   -0.825582
     75          1           0       -0.178189    0.560901    0.689984
     76          1           0       -0.169959   -0.819767    1.643769
     77          1           0       -4.780413    6.017136    0.409589
     78          1           0       -6.216906    6.794546    0.905458
     79          1           0       -5.318517    5.673923    2.238805
     80          1           0       -8.472922    6.756705    1.006466
     81          1           0       -9.442228    5.625303   -1.654333
     82          1           0       -9.993809    7.448321   -0.734010
     83          1           0      -12.457662    3.342513    0.183010
     84          1           0      -12.818236    3.201855   -1.588915
     85          1           0      -13.663254    2.172224   -0.758296
     86          1           0      -12.681253   -1.531215   -0.950972
     87          1           0      -13.666544    0.028364   -1.268727
     88          1           0      -12.728476    0.194335   -3.564627
     89          1           0      -11.628597   -1.098145   -3.294276
     90          1           0      -13.469949   -1.604429   -3.310853
     91          1           0       -9.658865   -4.765817    0.018630
     92          1           0       -9.252444   -4.917430   -1.740266
     93          1           0       -8.245866   -5.697877   -0.505482
     94          1           0       -3.532068   -3.318179   -0.320223
     95          1           0       -1.509111   -6.056344    2.292729
     96          1           0       -1.538345   -4.253602    3.149804
     97          1           0       -2.771471   -5.429410    3.510185
     98          1           0        2.849725   -2.079895   -1.326164
     99          1           0        2.510422   -0.709485   -2.191002
    100          1           0        4.111350   -1.227478    0.391750
    101          1           0        5.383100    1.580385   -2.405753
    102          1           0        5.424042    0.156124   -3.239263
    103          1           0        4.044264    0.742356   -3.036407
    104          1           0        6.435624    1.219289   -0.221723
    105          1           0        6.223546    0.033901    0.680100
    106          1           0        7.421346   -1.482777   -1.190045
    107          1           0        7.870186   -0.100183   -2.035490
    108          1           0        8.914246    0.814668    0.036855
    109          1           0        8.601758   -0.682563    0.630452
    110          1           0       10.136427   -0.020002   -1.973546
    111          1           0        9.415424   -2.570500   -2.236963
    112          1           0       11.069518   -2.748458   -1.624974
    113          1           0        9.706911   -2.793925   -0.342592
    114          1           0       11.211706    0.803166    0.225967
    115          1           0       11.091500   -0.927367    0.921066
    116          1           0       13.115604   -1.686887   -0.474242
    117          1           0       12.798025   -0.641455   -1.727140
    118          1           0       13.724830    1.313061   -0.055378
    119          1           0       13.882635   -0.006624    1.166880
    120          1           0       15.577063    0.089305   -1.461381
    121          1           0       14.897518   -2.401486   -0.631539
    122          1           0       16.559173   -1.938774   -0.790635
    123          1           0       15.710260   -1.837479    0.852720
    124          1           0       15.951777    1.951467    0.224200
    125          1           0       16.072410    0.681803    1.597070
    126          1           0       18.163863   -0.257426    0.412168
    127          1           0       17.856339    0.536913   -1.153604
    128          1           0       18.192506    2.625521    0.481394
    129          1           0       18.458693    1.436405    1.822774
    130          1           0       20.429226    0.613343    0.528675
    131          1           0       19.729311    3.028363   -1.319263
    132          1           0       21.477215    2.282848   -1.222984
    133          1           0       20.025334    1.109085   -1.806546
    134          1           0       20.629835    2.009243    2.250896
    135          1           0       22.113049    2.459585    1.269123
    136          1           0       20.582721    3.563520    1.283873
    137          1           0       -6.830251    1.770236    0.055442
    138          1           0       -7.837334   -0.273581    0.046815
 ---------------------------------------------------------------------

 SCF Done:  E(RB3LYP) =  -2733.11469958     A.U. after   16 cycles

 Excitation energies and oscillator strengths:

 Excited State   1:      Singlet-A      2.1378 eV  579.95 nm  f=0.1670  <S**2>=0.000
     235 -> 238        0.30651
     236 -> 237        0.62757
 This state for optimization and/or second-order correction.
 Total Energy, E(TD-HF/TD-KS) =  -2733.03613507
 Copying the excited state density for this state as the 1-particle RhoCI density.

 The electronic state is 1-A.
 Alpha  occ. eigenvalues --  -19.18863 -19.15528 -19.13303 -19.10965 -19.10639
 Alpha  occ. eigenvalues --  -14.36887 -14.36065 -14.32713 -14.30977 -10.32150
 Alpha  occ. eigenvalues --  -10.30545 -10.26234 -10.24653 -10.23863 -10.23767
 Alpha  occ. eigenvalues --  -10.23761 -10.23709 -10.23455 -10.22732 -10.22435
 Alpha  occ. eigenvalues --  -10.22052 -10.21919 -10.21859 -10.21667 -10.21443
 Alpha  occ. eigenvalues --  -10.21305 -10.21126 -10.20899 -10.20693 -10.20634
 Alpha  occ. eigenvalues --  -10.20604 -10.20538 -10.20490 -10.20352 -10.20344
 Alpha  occ. eigenvalues --  -10.20169 -10.20147 -10.19966 -10.19812 -10.19808
 Alpha  occ. eigenvalues --  -10.19761 -10.19744 -10.19686 -10.19629 -10.19575
 Alpha  occ. eigenvalues --  -10.19549 -10.19468 -10.19434 -10.19278 -10.19223
 Alpha  occ. eigenvalues --  -10.18986 -10.18920 -10.18904 -10.18880 -10.18731
 Alpha  occ. eigenvalues --  -10.18626 -10.18615 -10.18390 -10.18366 -10.18305
 Alpha  occ. eigenvalues --  -10.18240 -10.17603 -10.17133 -10.17042  -1.09093
 Alpha  occ. eigenvalues --   -1.07824  -1.01828  -1.01477  -0.98627  -0.98494
 Alpha  occ. eigenvalues --   -0.96400  -0.94636  -0.92331  -0.84193  -0.83647
 Alpha  occ. eigenvalues --   -0.82837  -0.81599  -0.81522  -0.80891  -0.80348
 Alpha  occ. eigenvalues --   -0.80006  -0.79557  -0.79236  -0.78944  -0.77575
 Alpha  occ. eigenvalues --   -0.77209  -0.76451  -0.75665  -0.74765  -0.73922
 Alpha  occ. eigenvalues --   -0.73783  -0.73251  -0.72592  -0.72062  -0.71291
 Alpha  occ. eigenvalues --   -0.69929  -0.69158  -0.68642  -0.68236  -0.67406
 Alpha  occ. eigenvalues --   -0.67004  -0.66410  -0.66197  -0.65697  -0.64964
 Alpha  occ. eigenvalues --   -0.64353  -0.63362  -0.62485  -0.61893  -0.61353
 Alpha  occ. eigenvalues --   -0.61099  -0.58937  -0.58550  -0.58081  -0.57339
 Alpha  occ. eigenvalues --   -0.56770  -0.56131  -0.55266  -0.55223  -0.54732
 Alpha  occ. eigenvalues --   -0.54689  -0.53873  -0.53677  -0.53315  -0.53213
 Alpha  occ. eigenvalues --   -0.52749  -0.52199  -0.51491  -0.50607  -0.49988
 Alpha  occ. eigenvalues --   -0.49569  -0.49044  -0.48708  -0.48463  -0.48160
 Alpha  occ. eigenvalues --   -0.47908  -0.47620  -0.47394  -0.47266  -0.46762
 Alpha  occ. eigenvalues --   -0.46449  -0.46283  -0.46026  -0.45885  -0.45709
 Alpha  occ. eigenvalues --   -0.45329  -0.45096  -0.44762  -0.44601  -0.44409
 Alpha  occ. eigenvalues --   -0.44323  -0.44089  -0.43784  -0.43634  -0.43392
 Alpha  occ. eigenvalues --   -0.43041  -0.42825  -0.42636  -0.42611  -0.42391
 Alpha  occ. eigenvalues --   -0.42304  -0.41954  -0.41940  -0.41689  -0.41557
 Alpha  occ. eigenvalues --   -0.41153  -0.41035  -0.40832  -0.40722  -0.40534
 Alpha  occ. eigenvalues --   -0.40529  -0.40308  -0.40025  -0.39473  -0.39319
 Alpha  occ. eigenvalues --   -0.39205  -0.39147  -0.38839  -0.38653  -0.38535
 Alpha  occ. eigenvalues --   -0.38460  -0.38326  -0.37950  -0.37848  -0.37785
 Alpha  occ. eigenvalues --   -0.37465  -0.37459  -0.36893  -0.36822  -0.36602
 Alpha  occ. eigenvalues --   -0.36365  -0.36189  -0.35836  -0.35688  -0.35529
 Alpha  occ. eigenvalues --   -0.35428  -0.35190  -0.35071  -0.34662  -0.34460
 Alpha  occ. eigenvalues --   -0.34427  -0.34176  -0.34057  -0.33866  -0.33628
 Alpha  occ. eigenvalues --   -0.33462  -0.33010  -0.32683  -0.32547  -0.32419
 Alpha  occ. eigenvalues --   -0.32115  -0.31902  -0.31687  -0.31485  -0.31156
 Alpha  occ. eigenvalues --   -0.30786  -0.30411  -0.30234  -0.29650  -0.29557
 Alpha  occ. eigenvalues --   -0.29136  -0.28696  -0.28611  -0.28571  -0.28348
 Alpha  occ. eigenvalues --   -0.27834  -0.27270  -0.26594  -0.26276  -0.24837
 Alpha  occ. eigenvalues --   -0.24553  -0.24092  -0.23979  -0.23818  -0.20194
 Alpha  occ. eigenvalues --   -0.19570
 Alpha virt. eigenvalues --   -0.10527  -0.07809  -0.04162  -0.02088  -0.00437
 Alpha virt. eigenvalues --    0.00129   0.00397   0.01377   0.02794   0.03627
 Alpha virt. eigenvalues --    0.03873   0.04008   0.04258   0.04396   0.04910

 Mulliken charges:
               1
     1  C    0.033730
     2  C   -0.062310
     3  C   -0.148642
     4  C   -0.100255
     5  N   -0.227504
     6  C   -0.079607
     7  C   -0.095420
     8  C    0.067367
     9  C    0.038604
    10  C    0.034635
    11  C    0.141309
    12  C   -0.098305
    13  C    0.216252
    14  O   -0.230400
    15  O   -0.317092
    16  N   -0.071664
    17  C    0.066929
    18  C   -0.127662
    19  C    0.108667
    20  C    0.176094
    21  C    0.075894
    22  C   -0.142443
    23  C   -0.080971
    24  N   -0.188908
    25  C    0.001079
    26  C   -0.136986
    27  C   -0.065162
    28  C   -0.033457
    29  C    0.054700
    30  C    0.036646
    31  C   -0.011130
    32  N   -0.130748
    33  C    0.206050
    34  C   -0.121685
    35  C   -0.035963
    36  C    0.129590
    37  C    0.136452
    38  C    0.042559
    39  O   -0.170912
    40  C   -0.060187
    41  C    0.190114
    42  O   -0.228603
    43  O   -0.314812
    44  C    0.175178
    45  C    0.330643
    46  C   -0.159066
    47  C   -0.143957
    48  C    0.270783
    49  C    0.108844
    50  C    0.052785
    51  C    0.036863
    52  C   -0.093109
    53  C   -0.034840
    54  C    0.013734
    55  C    0.055140
    56  C    0.001757
    57  C   -0.077439
    58  C    0.017502
    59  C   -0.067775
    60  C    0.043254
    61  C   -0.015487
    62  C   -0.056280
    63  C   -0.021456
    64  C    0.000327
    65  H   -0.024682
    66  H    0.024854
    67  H    0.002541
    68  H    0.023714
    69  H   -0.045886
    70  H    0.011086
    71  H    0.025048
    72  H    0.037636
    73  H   -0.004550
    74  H    0.025744
    75  H    0.036295
    76  H    0.034871
    77  H    0.041871
    78  H   -0.006380
    79  H    0.054788
    80  H    0.016989
    81  H    0.042315
    82  H    0.059327
    83  H    0.049521
    84  H   -0.001394
    85  H    0.012723
    86  H    0.019002
    87  H    0.009024
    88  H    0.014997
    89  H    0.013837
    90  H    0.038405
    91  H    0.022742
    92  H    0.029764
    93  H    0.026329
    94  H    0.064129
    95  H    0.062129
    96  H    0.025872
    97  H    0.018949
    98  H   -0.036159
    99  H    0.015710
   100  H    0.005393
   101  H   -0.014613
   102  H   -0.017534
   103  H   -0.025127
   104  H   -0.030944
   105  H   -0.020675
   106  H   -0.016650
   107  H   -0.022232
   108  H   -0.028533
   109  H   -0.040159
   110  H    0.009465
   111  H    0.027778
   112  H    0.030082
   113  H    0.027631
   114  H    0.015432
   115  H    0.002465
   116  H   -0.006096
   117  H   -0.006049
   118  H    0.007146
   119  H   -0.008727
   120  H   -0.004754
   121  H    0.017786
   122  H    0.007270
   123  H    0.006539
   124  H    0.010879
   125  H    0.002996
   126  H   -0.010819
   127  H    0.008580
   128  H   -0.018080
   129  H    0.001760
   130  H   -0.022452
   131  H    0.031409
   132  H    0.023162
   133  H    0.041629
   134  H    0.002053
   135  H    0.026503
   136  H    0.009953
   137  H    0.147200
   138  H    0.175927
 Sum of Mulliken charges =   0.00000

 Dipole moment (field-independent basis, Debye):
    X=              1.7856    Y=              5.1979    Z=             -0.2155  Tot=              5.5003
 Quadrupole moment (field-independent basis, Debye-Ang):
   XX=           -334.0033   YY=           -385.8208   ZZ=           -398.1359
   XY=            -40.8517   XZ=             12.0844   YZ=              3.2869

 Normal termination of Gaussian 09 at Fri Aug  2 04:57:10 2019.
