 Gaussian 09, Revision D.01,
 Gaussian 09:  ES64L-G09RevD.01 24-Apr-2013

 --------------------------
 # td=(NStates=1) B3LYP/SVP
 --------------------------

 --
 TD
 --
 Symbolic Z-matrix:
 Charge =  0 Multiplicity = 1

                         Standard orientation:
 ---------------------------------------------------------------------
 Center     Atomic      Atomic             Coordinates (Angstroms)
 Number     Number       Type             X           Y           Z
 ---------------------------------------------------------------------
      1          6           0       -5.117565   -1.984356    0.526892
      2          6           0       -4.853806    2.670024    1.631852
      3          6           0       -9.355898    3.453614   -0.387510
      4          6           0       -9.691224   -1.348162   -1.075526
      5          7           0       -5.283662    0.381074    0.895041
      6          6           0       -4.493198   -0.813359    0.910986
      7          6           0       -3.112632   -0.562671    1.299610
      8          6           0       -3.156401    0.935244    1.894963
      9          6           0       -4.471369    1.376843    1.383630
     10          6           0       -2.969647    0.823150    3.402405
     11          6           0       -2.111468   -0.767905    0.105716
     12          6           0       -0.580835   -0.807163    0.564572
     13          6           0        0.377291   -1.126719   -0.642311
     14          8           0        0.031320   -1.724666   -1.728456
     15          8           0        1.621652   -0.892204   -0.239674
     16          7           0       -7.078000    2.842967    0.502590
     17          6           0       -6.021353    3.293113    1.161191
     18          6           0       -6.217898    4.685389    1.130677
     19          6           0       -7.507127    4.894273    0.530579
     20          6           0       -8.056960    3.774783    0.051518
     21          6           0       -5.289119    5.712463    1.983027
     22          6           0       -8.162885    6.265737    0.586894
     23          6           0       -8.909237    6.745245   -0.372745
     24          7           0       -9.183163    1.060570   -0.594185
     25          6           0       -9.846886    2.206108   -0.633907
     26          6           0      -11.195558    1.923392   -1.065822
     27          6           0      -11.327778    0.561579   -1.376261
     28          6           0       -9.988730   -0.007946   -1.060905
     29          6           0      -12.290009    3.015111   -1.233059
     30          6           0      -12.466699   -0.173906   -1.829780
     31          6           0      -12.537392   -0.458086   -3.387465
     32          7           0       -7.356236   -1.280045   -0.249893
     33          6           0       -8.514270   -1.988925   -0.734630
     34          6           0       -8.212198   -3.375435   -0.649101
     35          6           0       -6.819409   -3.449658   -0.232053
     36          6           0       -6.394512   -2.126995    0.104138
     37          6           0       -8.972738   -4.569254   -1.164830
     38          6           0       -5.757174   -4.351302    0.171506
     39          8           0       -5.798292   -5.552882    0.244095
     40          6           0       -4.466790   -3.443115    0.591802
     41          6           0       -3.848800   -3.939187    1.860416
     42          8           0       -4.063085   -3.464109    3.032849
     43          8           0       -3.129259   -5.011651    1.734605
     44          6           0       -2.509742   -5.603513    2.830481
     45          6           0        2.639697   -1.061555   -1.262429
     46          6           0        3.918710   -0.596102   -0.751603
     47          6           0        4.907011    0.167017   -1.241411
     48          6           0        4.908327    0.724677   -2.591927
     49          6           0        6.240265    0.350332   -0.457284
     50          6           0        7.453780   -0.258905   -1.065896
     51          6           0        8.762784   -0.202764   -0.215381
     52          6           0       10.098811   -0.741943   -0.941376
     53          6           0        9.974429   -2.237566   -1.025624
     54          6           0       11.258594   -0.356710   -0.058417
     55          6           0       12.651685   -0.543018   -0.760947
     56          6           0       13.819394   -0.007202    0.107495
     57          6           0       15.177147   -0.137754   -0.555882
     58          6           0       15.690772   -1.616000   -0.580378
     59          6           0       16.258041    0.643425    0.318219
     60          6           0       17.689424    0.702463   -0.245240
     61          6           0       18.546966    1.467524    0.726608
     62          6           0       20.041060    1.673593    0.252822
     63          6           0       20.111176    2.491648   -1.065972
     64          6           0       20.896829    2.319582    1.408555
     65          1           0       -3.937997    3.397449    2.029745
     66          1           0       -9.938789    4.375993   -0.366524
     67          1           0      -10.482523   -1.954677   -1.522017
     68          1           0       -2.948928   -1.305539    2.240653
     69          1           0       -2.391533    1.626223    1.435337
     70          1           0       -2.189342    0.310948    3.867045
     71          1           0       -2.962222    1.700203    3.820291
     72          1           0       -3.949897    0.403188    3.807682
     73          1           0       -2.527004   -1.642248   -0.430379
     74          1           0       -2.124001    0.134330   -0.533452
     75          1           0       -0.375182    0.208903    0.958143
     76          1           0       -0.326654   -1.528450    1.342502
     77          1           0       -4.409221    5.734298    1.504915
     78          1           0       -5.735477    6.796343    1.770081
     79          1           0       -5.200649    5.316122    3.068682
     80          1           0       -7.551178    6.966470    1.216940
     81          1           0       -9.377160    6.123983   -1.266946
     82          1           0       -9.128412    7.856849   -0.440295
     83          1           0      -12.431696    3.638464   -0.348875
     84          1           0      -12.010412    3.761432   -1.851502
     85          1           0      -13.188152    2.564395   -1.578222
     86          1           0      -12.536481   -1.070820   -1.208200
     87          1           0      -13.410661    0.410371   -1.457841
     88          1           0      -12.654143    0.552052   -3.882447
     89          1           0      -11.562274   -0.902176   -3.719580
     90          1           0      -13.300959   -1.156322   -3.561496
     91          1           0       -9.887152   -4.598335   -0.750720
     92          1           0       -9.180904   -4.478324   -2.286794
     93          1           0       -8.251449   -5.357400   -0.975202
     94          1           0       -3.720379   -3.501719   -0.123925
     95          1           0       -1.650023   -6.278612    2.588124
     96          1           0       -2.252447   -4.664605    3.410784
     97          1           0       -3.476160   -5.795721    3.617923
     98          1           0        2.569931   -2.205126   -1.548895
     99          1           0        2.405085   -0.363518   -2.198180
    100          1           0        4.220641   -1.066754    0.247530
    101          1           0        5.139189    1.726918   -2.445464
    102          1           0        5.844699    0.195240   -3.304857
    103          1           0        3.876983    0.709976   -3.163431
    104          1           0        6.350762    1.430936   -0.312571
    105          1           0        6.045399   -0.004759    0.599294
    106          1           0        7.347647   -1.345779   -1.552106
    107          1           0        7.459933    0.492888   -1.945573
    108          1           0        8.914903    0.881344    0.026212
    109          1           0        8.588875   -0.569714    0.717024
    110          1           0       10.074213   -0.150188   -1.952073
    111          1           0        8.942354   -2.448622   -1.739575
    112          1           0       10.916258   -2.589020   -1.537416
    113          1           0        9.955973   -2.642010    0.036764
    114          1           0       11.277763    0.756440    0.182007
    115          1           0       11.144322   -0.788865    0.849463
    116          1           0       12.823457   -1.519864   -1.060244
    117          1           0       12.674946   -0.047712   -1.761500
    118          1           0       13.787402    1.033365    0.167425
    119          1           0       13.571642   -0.372055    1.136797
    120          1           0       15.081175    0.163322   -1.424450
    121          1           0       15.074561   -2.238130   -1.198453
    122          1           0       16.600772   -1.647770   -1.128224
    123          1           0       15.820236   -1.872459    0.306045
    124          1           0       15.978852    1.617138    0.658821
    125          1           0       16.325384   -0.026424    1.331629
    126          1           0       17.970378   -0.355451   -0.569684
    127          1           0       17.490519    1.353159   -1.117068
    128          1           0       18.199169    2.556410    0.866580
    129          1           0       18.862791    0.762166    1.562383
    130          1           0       20.621320    0.694291    0.179324
    131          1           0       19.545042    3.567577   -0.676023
    132          1           0       21.123697    2.640868   -1.300210
    133          1           0       19.591911    1.858852   -1.752680
    134          1           0       20.712617    1.701067    2.227584
    135          1           0       22.021322    2.324381    0.959331
    136          1           0       20.477282    3.271093    1.722251
    137          1           0       -7.181188    1.781025    0.484467
    138          1           0       -7.339318   -0.090098   -0.394197
 ---------------------------------------------------------------------

 SCF Done:  E(RB3LYP) =  -2733.04223623     A.U. after   17 cycles

 Excitation energies and oscillator strengths:

 Excited State   1:      Singlet-A      2.0839 eV  594.96 nm  f=0.1858  <S**2>=0.000
     235 -> 237       -0.19555
     235 -> 238       -0.27745
     236 -> 237        0.60833
 This state for optimization and/or second-order correction.
 Total Energy, E(TD-HF/TD-KS) =  -2732.96565347
 Copying the excited state density for this state as the 1-particle RhoCI density.

 The electronic state is 1-A.
 Alpha  occ. eigenvalues --  -19.19094 -19.18575 -19.12371 -19.12210 -19.11123
 Alpha  occ. eigenvalues --  -14.37009 -14.35823 -14.32584 -14.29883 -10.32359
 Alpha  occ. eigenvalues --  -10.31634 -10.28016 -10.26554 -10.25837 -10.23454
 Alpha  occ. eigenvalues --  -10.23042 -10.22925 -10.22894 -10.22881 -10.22356
 Alpha  occ. eigenvalues --  -10.22034 -10.21606 -10.21559 -10.21287 -10.20936
 Alpha  occ. eigenvalues --  -10.20887 -10.20820 -10.20674 -10.20656 -10.20584
 Alpha  occ. eigenvalues --  -10.20533 -10.20509 -10.20462 -10.20288 -10.20220
 Alpha  occ. eigenvalues --  -10.20193 -10.20150 -10.20148 -10.20139 -10.19886
 Alpha  occ. eigenvalues --  -10.19789 -10.19752 -10.19602 -10.19519 -10.19205
 Alpha  occ. eigenvalues --  -10.19138 -10.19052 -10.19007 -10.18984 -10.18908
 Alpha  occ. eigenvalues --  -10.18624 -10.18604 -10.18507 -10.18427 -10.18261
 Alpha  occ. eigenvalues --  -10.18231 -10.17998 -10.17902 -10.17770 -10.17628
 Alpha  occ. eigenvalues --  -10.17433 -10.17324 -10.17243 -10.15407  -1.11397
 Alpha  occ. eigenvalues --   -1.09573  -1.03153  -0.98315  -0.97547  -0.97093
 Alpha  occ. eigenvalues --   -0.96882  -0.93127  -0.92847  -0.84367  -0.83201
 Alpha  occ. eigenvalues --   -0.82312  -0.81930  -0.81171  -0.80680  -0.79906
 Alpha  occ. eigenvalues --   -0.79840  -0.79687  -0.79317  -0.78764  -0.77935
 Alpha  occ. eigenvalues --   -0.77269  -0.76237  -0.75652  -0.75059  -0.74763
 Alpha  occ. eigenvalues --   -0.74279  -0.73743  -0.72967  -0.72396  -0.70975
 Alpha  occ. eigenvalues --   -0.70210  -0.69523  -0.68655  -0.68263  -0.68029
 Alpha  occ. eigenvalues --   -0.67628  -0.67430  -0.66574  -0.66034  -0.65668
 Alpha  occ. eigenvalues --   -0.64990  -0.62950  -0.62566  -0.62124  -0.61721
 Alpha  occ. eigenvalues --   -0.60574  -0.58804  -0.58658  -0.58291  -0.58039
 Alpha  occ. eigenvalues --   -0.56992  -0.56504  -0.55907  -0.55595  -0.55554
 Alpha  occ. eigenvalues --   -0.55063  -0.53410  -0.53252  -0.53006  -0.52466
 Alpha  occ. eigenvalues --   -0.52259  -0.51735  -0.51371  -0.51120  -0.50045
 Alpha  occ. eigenvalues --   -0.49658  -0.49431  -0.49096  -0.48429  -0.48135
 Alpha  occ. eigenvalues --   -0.47893  -0.47662  -0.47373  -0.47231  -0.47075
 Alpha  occ. eigenvalues --   -0.46881  -0.46445  -0.46363  -0.46142  -0.45867
 Alpha  occ. eigenvalues --   -0.45688  -0.45423  -0.44912  -0.44763  -0.44582
 Alpha  occ. eigenvalues --   -0.44562  -0.44426  -0.44381  -0.43655  -0.43421
 Alpha  occ. eigenvalues --   -0.43117  -0.42935  -0.42791  -0.42773  -0.42626
 Alpha  occ. eigenvalues --   -0.42497  -0.42375  -0.42115  -0.41972  -0.41882
 Alpha  occ. eigenvalues --   -0.41438  -0.41197  -0.40885  -0.40643  -0.40623
 Alpha  occ. eigenvalues --   -0.40553  -0.40169  -0.39892  -0.39725  -0.39576
 Alpha  occ. eigenvalues --   -0.39471  -0.39104  -0.38945  -0.38748  -0.38459
 Alpha  occ. eigenvalues --   -0.38290  -0.38097  -0.38080  -0.37870  -0.37549
 Alpha  occ. eigenvalues --   -0.37336  -0.37315  -0.37043  -0.36830  -0.36759
 Alpha  occ. eigenvalues --   -0.36666  -0.36615  -0.36171  -0.35988  -0.35745
 Alpha  occ. eigenvalues --   -0.35690  -0.35596  -0.35475  -0.35396  -0.35011
 Alpha  occ. eigenvalues --   -0.34848  -0.34370  -0.34002  -0.33850  -0.33750
 Alpha  occ. eigenvalues --   -0.33556  -0.33158  -0.33120  -0.32985  -0.32741
 Alpha  occ. eigenvalues --   -0.32642  -0.31927  -0.31909  -0.31289  -0.31249
 Alpha  occ. eigenvalues --   -0.31187  -0.31092  -0.30639  -0.30396  -0.30041
 Alpha  occ. eigenvalues --   -0.29364  -0.28750  -0.28130  -0.28079  -0.27937
 Alpha  occ. eigenvalues --   -0.27483  -0.26943  -0.26560  -0.25620  -0.25241
 Alpha  occ. eigenvalues --   -0.25155  -0.24716  -0.23100  -0.22049  -0.19926
 Alpha  occ. eigenvalues --   -0.19701
 Alpha virt. eigenvalues --   -0.11035  -0.07477  -0.04200  -0.01690  -0.01227
 Alpha virt. eigenvalues --   -0.00823  -0.00670   0.00517   0.01596   0.03329
 Alpha virt. eigenvalues --    0.03523   0.03850   0.04091   0.04147   0.04930

 Mulliken charges:
               1
     1  C   -0.006370
     2  C   -0.122148
     3  C   -0.104622
     4  C   -0.085240
     5  N   -0.240190
     6  C   -0.070801
     7  C   -0.065896
     8  C   -0.054776
     9  C    0.013683
    10  C    0.162702
    11  C    0.076602
    12  C    0.027731
    13  C    0.206511
    14  O   -0.303620
    15  O   -0.286170
    16  N   -0.102678
    17  C    0.099128
    18  C   -0.188814
    19  C   -0.014384
    20  C    0.085314
    21  C    0.106831
    22  C    0.015267
    23  C   -0.087158
    24  N   -0.240430
    25  C    0.134607
    26  C   -0.171840
    27  C   -0.082805
    28  C    0.073736
    29  C    0.205250
    30  C   -0.007746
    31  C    0.044354
    32  N   -0.139668
    33  C    0.121603
    34  C   -0.156096
    35  C   -0.016942
    36  C    0.078295
    37  C    0.156677
    38  C    0.053629
    39  O   -0.160431
    40  C    0.040515
    41  C    0.185738
    42  O   -0.316433
    43  O   -0.227919
    44  C    0.123151
    45  C    0.234337
    46  C   -0.092116
    47  C   -0.157937
    48  C    0.020367
    49  C    0.077246
    50  C   -0.038462
    51  C    0.063344
    52  C   -0.085976
    53  C    0.003859
    54  C    0.062180
    55  C    0.057962
    56  C    0.062774
    57  C    0.050643
    58  C    0.156549
    59  C   -0.050952
    60  C    0.051798
    61  C    0.017121
    62  C   -0.197964
    63  C    0.053422
    64  C    0.053747
    65  H    0.025978
    66  H   -0.016212
    67  H   -0.020484
    68  H    0.059126
    69  H    0.001596
    70  H    0.005950
    71  H   -0.057903
    72  H    0.021622
    73  H    0.025608
    74  H    0.011193
    75  H    0.026675
    76  H    0.037599
    77  H   -0.006618
    78  H    0.026475
    79  H    0.061363
    80  H    0.002815
    81  H    0.053356
    82  H    0.035054
    83  H   -0.002602
    84  H   -0.030041
    85  H   -0.004104
    86  H    0.001028
    87  H    0.010416
    88  H    0.027711
    89  H    0.016180
    90  H    0.009684
    91  H   -0.006488
    92  H    0.032685
    93  H    0.044251
    94  H    0.024427
    95  H    0.068973
    96  H    0.026390
    97  H    0.052658
    98  H    0.059002
    99  H    0.035613
   100  H   -0.003603
   101  H    0.000225
   102  H    0.064598
   103  H    0.030380
   104  H    0.001253
   105  H   -0.011109
   106  H    0.025747
   107  H    0.006196
   108  H   -0.020981
   109  H   -0.039659
   110  H    0.006487
   111  H    0.038210
   112  H    0.020943
   113  H    0.022540
   114  H   -0.009518
   115  H   -0.039949
   116  H   -0.036944
   117  H   -0.022373
   118  H   -0.032130
   119  H   -0.006650
   120  H   -0.102564
   121  H   -0.011552
   122  H   -0.017777
   123  H   -0.060093
   124  H   -0.019425
   125  H   -0.005731
   126  H    0.014909
   127  H   -0.006571
   128  H    0.016853
   129  H    0.010432
   130  H   -0.004843
   131  H    0.018006
   132  H   -0.001741
   133  H    0.018286
   134  H   -0.017231
   135  H    0.033594
   136  H   -0.007399
   137  H    0.157730
   138  H    0.232383
 Sum of Mulliken charges =   0.00000

 Dipole moment (field-independent basis, Debye):
    X=              3.9513    Y=              4.3229    Z=             -0.6257  Tot=              5.8900
 Quadrupole moment (field-independent basis, Debye-Ang):
   XX=           -349.9747   YY=           -389.7559   ZZ=           -397.5797
   XY=            -25.1691   XZ=             14.8456   YZ=              1.3774

 Normal termination of Gaussian 09 at Wed Jul 31 23:51:50 2019.
