 Gaussian 09, Revision D.01,
 Gaussian 09:  ES64L-G09RevD.01 24-Apr-2013

 --------------------------
 # td=(NStates=1) B3LYP/SVP
 --------------------------

 --
 TD
 --
 Symbolic Z-matrix:
 Charge =  0 Multiplicity = 1

                         Standard orientation:
 ---------------------------------------------------------------------
 Center     Atomic      Atomic             Coordinates (Angstroms)
 Number     Number       Type             X           Y           Z
 ---------------------------------------------------------------------
      1          6           0       -5.136951   -1.923077    0.582174
      2          6           0       -4.657649    2.712505    1.429320
      3          6           0       -9.285962    3.322738   -0.262442
      4          6           0       -9.807801   -1.466767   -1.037604
      5          7           0       -5.075857    0.441160    0.783524
      6          6           0       -4.446395   -0.781303    0.768732
      7          6           0       -2.981742   -0.576744    1.231366
      8          6           0       -2.993124    0.819449    1.876253
      9          6           0       -4.327302    1.353901    1.393356
     10          6           0       -2.735005    1.059082    3.336346
     11          6           0       -2.057258   -0.712709    0.108163
     12          6           0       -0.556827   -0.762543    0.534365
     13          6           0        0.351790   -1.062693   -0.675435
     14          8           0       -0.028114   -1.530957   -1.770916
     15          8           0        1.600614   -0.746218   -0.370194
     16          7           0       -7.064697    2.649809    0.468332
     17          6           0       -5.968239    3.366852    1.088426
     18          6           0       -6.209344    4.793080    1.009618
     19          6           0       -7.414702    4.901134    0.473042
     20          6           0       -8.037376    3.624168    0.183815
     21          6           0       -5.212155    5.852892    1.456871
     22          6           0       -8.072591    6.175867    0.398988
     23          6           0       -9.069768    6.614754   -0.481029
     24          7           0       -9.153824    0.844912   -0.446994
     25          6           0       -9.811201    2.048533   -0.524845
     26          6           0      -11.131763    1.878707   -0.903473
     27          6           0      -11.310930    0.554120   -1.176093
     28          6           0      -10.077570   -0.089992   -0.874321
     29          6           0      -12.222626    2.954087   -1.185349
     30          6           0      -12.637192   -0.251657   -1.479632
     31          6           0      -12.856221   -0.467136   -2.981093
     32          7           0       -7.531565   -1.280338   -0.267922
     33          6           0       -8.549125   -1.949021   -0.634818
     34          6           0       -8.143356   -3.313607   -0.729450
     35          6           0       -6.891765   -3.376182   -0.272193
     36          6           0       -6.483309   -2.042764    0.032161
     37          6           0       -9.050059   -4.457666   -1.077115
     38          6           0       -5.754814   -4.265965    0.051171
     39          8           0       -5.611293   -5.468956   -0.126739
     40          6           0       -4.581774   -3.349900    0.440934
     41          6           0       -4.014542   -3.747757    1.843381
     42          8           0       -4.435635   -3.398036    2.883683
     43          8           0       -3.232943   -4.794822    1.779343
     44          6           0       -2.885233   -5.457765    2.880629
     45          6           0        2.666305   -0.808194   -1.475024
     46          6           0        3.969232   -0.653814   -0.792370
     47          6           0        5.011203    0.137423   -1.156588
     48          6           0        4.810714    1.244364   -2.136627
     49          6           0        6.322539    0.059659   -0.361570
     50          6           0        7.608831   -0.259589   -1.040711
     51          6           0        8.820359   -0.312709   -0.213819
     52          6           0       10.051808   -0.839774   -0.917029
     53          6           0       10.064463   -2.346630   -1.182453
     54          6           0       11.256817   -0.447431    0.013536
     55          6           0       12.627174   -0.606341   -0.708701
     56          6           0       13.760922   -0.228556    0.255227
     57          6           0       15.244774   -0.253112   -0.427023
     58          6           0       15.775489   -1.661425   -0.775805
     59          6           0       16.255816    0.495350    0.494181
     60          6           0       17.711745    0.615483   -0.143569
     61          6           0       18.551297    1.580991    0.640470
     62          6           0       20.034879    1.684228    0.278845
     63          6           0       20.250714    2.477548   -1.114517
     64          6           0       20.875116    2.313470    1.469219
     65          1           0       -3.698216    3.200288    1.921170
     66          1           0       -9.857782    4.216102   -0.193844
     67          1           0      -10.592980   -2.056721   -1.418713
     68          1           0       -2.617385   -1.493058    1.972090
     69          1           0       -2.459860    1.171401    1.033032
     70          1           0       -1.725409    0.923868    3.594123
     71          1           0       -2.795783    2.137817    3.554261
     72          1           0       -3.470042    0.282172    3.865734
     73          1           0       -2.286808   -1.791360   -0.250237
     74          1           0       -2.170630    0.110351   -0.680677
     75          1           0       -0.237393    0.291662    0.725399
     76          1           0       -0.302862   -1.607627    1.122487
     77          1           0       -4.343148    5.738562    0.672355
     78          1           0       -5.565265    6.919853    1.301231
     79          1           0       -4.760132    5.711735    2.663533
     80          1           0       -7.548789    6.817375    1.242700
     81          1           0       -9.331607    5.892058   -1.113860
     82          1           0       -9.424493    7.609466   -0.648546
     83          1           0      -12.636204    3.503936   -0.169689
     84          1           0      -12.019941    3.902527   -1.945962
     85          1           0      -13.258455    2.772521   -1.244379
     86          1           0      -12.771014   -1.342823   -1.201404
     87          1           0      -13.491560    0.341056   -1.076257
     88          1           0      -12.921892    0.420727   -3.509995
     89          1           0      -11.836824   -1.005477   -3.206871
     90          1           0      -13.668848   -1.004209   -3.472116
     91          1           0       -9.594621   -4.822214   -0.018398
     92          1           0       -9.826212   -4.565861   -1.950749
     93          1           0       -8.408960   -5.440993   -1.232460
     94          1           0       -3.777142   -3.412670   -0.379529
     95          1           0       -2.278178   -6.374363    2.542304
     96          1           0       -2.355018   -4.673199    3.429738
     97          1           0       -3.701873   -5.838075    3.676139
     98          1           0        2.371667   -1.849776   -1.809282
     99          1           0        2.021662   -0.021007   -2.277000
    100          1           0        4.232848   -1.481059   -0.056874
    101          1           0        5.385033    2.320585   -1.821146
    102          1           0        5.455437    0.794141   -2.937292
    103          1           0        3.795323    1.513547   -2.759741
    104          1           0        6.467732    1.079481    0.080683
    105          1           0        5.944431   -0.693117    0.595896
    106          1           0        7.558096   -1.429190   -1.314345
    107          1           0        7.710947    0.431793   -1.844956
    108          1           0        9.102623    0.583262    0.026933
    109          1           0        8.621274   -1.002498    0.786354
    110          1           0       10.082185   -0.277581   -1.904378
    111          1           0        9.033762   -2.475568   -1.771860
    112          1           0       11.034874   -2.596308   -1.560632
    113          1           0        9.815787   -2.884962   -0.315368
    114          1           0       10.865655    0.389153    0.486429
    115          1           0       11.407771   -1.073876    0.901788
    116          1           0       13.105453   -1.607015   -1.149658
    117          1           0       12.657155    0.149623   -1.539587
    118          1           0       13.412976    0.797033    0.708925
    119          1           0       13.900813   -0.959776    1.137786
    120          1           0       15.096172    0.344088   -1.377042
    121          1           0       14.940161   -2.121790   -1.481415
    122          1           0       16.698993   -1.352640   -1.486120
    123          1           0       16.041231   -2.358612    0.013981
    124          1           0       15.967267    1.500705    0.592305
    125          1           0       16.247711   -0.077820    1.396474
    126          1           0       18.222579   -0.354579    0.042164
    127          1           0       17.549486    0.857213   -1.092240
    128          1           0       18.120006    2.609326    0.731911
    129          1           0       18.421590    1.172097    1.818600
    130          1           0       20.324702    0.720983    0.015626
    131          1           0       20.056623    3.692502   -0.928889
    132          1           0       21.323352    2.136723   -1.479710
    133          1           0       19.572195    2.144236   -1.951687
    134          1           0       20.786184    1.776765    2.307602
    135          1           0       22.000235    2.105314    1.377270
    136          1           0       20.736420    3.342818    1.573838
    137          1           0       -7.267770    1.711566    0.713259
    138          1           0       -7.546640   -0.172900   -0.150561
 ---------------------------------------------------------------------

 SCF Done:  E(RB3LYP) =  -2732.95614771     A.U. after   17 cycles

 Excitation energies and oscillator strengths:

 Excited State   1:      Singlet-A      2.0853 eV  594.56 nm  f=0.1068  <S**2>=0.000
     235 -> 238       -0.35740
     236 -> 237        0.59920
 This state for optimization and/or second-order correction.
 Total Energy, E(TD-HF/TD-KS) =  -2732.87951433
 Copying the excited state density for this state as the 1-particle RhoCI density.

 The electronic state is 1-A.
 Alpha  occ. eigenvalues --  -19.17395 -19.16870 -19.12091 -19.12019 -19.11337
 Alpha  occ. eigenvalues --  -14.37211 -14.36653 -14.31224 -14.29694 -10.31090
 Alpha  occ. eigenvalues --  -10.30685 -10.27918 -10.27221 -10.25480 -10.24760
 Alpha  occ. eigenvalues --  -10.23266 -10.23243 -10.23223 -10.22400 -10.22398
 Alpha  occ. eigenvalues --  -10.22174 -10.22137 -10.22007 -10.21881 -10.21646
 Alpha  occ. eigenvalues --  -10.21597 -10.21478 -10.20951 -10.20852 -10.20697
 Alpha  occ. eigenvalues --  -10.20649 -10.20639 -10.20558 -10.20486 -10.20417
 Alpha  occ. eigenvalues --  -10.20371 -10.20340 -10.20231 -10.20200 -10.20177
 Alpha  occ. eigenvalues --  -10.20041 -10.19989 -10.19908 -10.19875 -10.19773
 Alpha  occ. eigenvalues --  -10.19739 -10.19710 -10.19339 -10.19333 -10.19209
 Alpha  occ. eigenvalues --  -10.19153 -10.19111 -10.19067 -10.18924 -10.18583
 Alpha  occ. eigenvalues --  -10.18325 -10.18281 -10.18142 -10.18113 -10.17806
 Alpha  occ. eigenvalues --  -10.17478 -10.17400 -10.17379 -10.17153  -1.13079
 Alpha  occ. eigenvalues --   -1.07579  -1.02516  -1.02229  -1.01538  -0.97812
 Alpha  occ. eigenvalues --   -0.96600  -0.94362  -0.93509  -0.84920  -0.84014
 Alpha  occ. eigenvalues --   -0.83159  -0.82259  -0.81881  -0.81013  -0.80875
 Alpha  occ. eigenvalues --   -0.80238  -0.79139  -0.79049  -0.78241  -0.77859
 Alpha  occ. eigenvalues --   -0.77374  -0.76101  -0.75638  -0.74837  -0.74336
 Alpha  occ. eigenvalues --   -0.73839  -0.73271  -0.72177  -0.71948  -0.70450
 Alpha  occ. eigenvalues --   -0.70220  -0.69739  -0.68813  -0.68120  -0.67508
 Alpha  occ. eigenvalues --   -0.67465  -0.67006  -0.66050  -0.65848  -0.65428
 Alpha  occ. eigenvalues --   -0.65043  -0.63675  -0.62468  -0.61746  -0.61138
 Alpha  occ. eigenvalues --   -0.60592  -0.59221  -0.58548  -0.57697  -0.56956
 Alpha  occ. eigenvalues --   -0.56590  -0.55920  -0.55842  -0.55773  -0.55626
 Alpha  occ. eigenvalues --   -0.55389  -0.54278  -0.53748  -0.53626  -0.52871
 Alpha  occ. eigenvalues --   -0.52256  -0.51917  -0.51560  -0.51285  -0.50372
 Alpha  occ. eigenvalues --   -0.50160  -0.49836  -0.49558  -0.49473  -0.48421
 Alpha  occ. eigenvalues --   -0.48303  -0.48155  -0.47785  -0.47612  -0.47445
 Alpha  occ. eigenvalues --   -0.46619  -0.46499  -0.46387  -0.46149  -0.45962
 Alpha  occ. eigenvalues --   -0.45773  -0.45732  -0.45375  -0.45034  -0.44850
 Alpha  occ. eigenvalues --   -0.44316  -0.44143  -0.43947  -0.43845  -0.43595
 Alpha  occ. eigenvalues --   -0.43486  -0.43285  -0.42905  -0.42787  -0.42527
 Alpha  occ. eigenvalues --   -0.42379  -0.41860  -0.41548  -0.41460  -0.41347
 Alpha  occ. eigenvalues --   -0.41231  -0.40860  -0.40572  -0.40473  -0.40327
 Alpha  occ. eigenvalues --   -0.40050  -0.39848  -0.39584  -0.39395  -0.39253
 Alpha  occ. eigenvalues --   -0.39208  -0.38874  -0.38723  -0.38659  -0.38643
 Alpha  occ. eigenvalues --   -0.38446  -0.38155  -0.37645  -0.37638  -0.37332
 Alpha  occ. eigenvalues --   -0.37093  -0.36824  -0.36785  -0.36702  -0.36446
 Alpha  occ. eigenvalues --   -0.36075  -0.35880  -0.35696  -0.35221  -0.35122
 Alpha  occ. eigenvalues --   -0.35077  -0.34836  -0.34720  -0.34666  -0.34318
 Alpha  occ. eigenvalues --   -0.34162  -0.33854  -0.33771  -0.33527  -0.33479
 Alpha  occ. eigenvalues --   -0.33379  -0.33219  -0.32952  -0.32674  -0.32603
 Alpha  occ. eigenvalues --   -0.32420  -0.32004  -0.31883  -0.31705  -0.31251
 Alpha  occ. eigenvalues --   -0.31107  -0.30752  -0.30254  -0.30130  -0.29744
 Alpha  occ. eigenvalues --   -0.29572  -0.29514  -0.28134  -0.27746  -0.27326
 Alpha  occ. eigenvalues --   -0.27264  -0.26935  -0.26682  -0.26319  -0.25590
 Alpha  occ. eigenvalues --   -0.25048  -0.24907  -0.24311  -0.22541  -0.19611
 Alpha  occ. eigenvalues --   -0.19283
 Alpha virt. eigenvalues --   -0.10165  -0.08256  -0.04372  -0.02244  -0.01928
 Alpha virt. eigenvalues --   -0.00175   0.00528   0.00946   0.02038   0.02839
 Alpha virt. eigenvalues --    0.03334   0.03528   0.03770   0.04175   0.04388

 Mulliken charges:
               1
     1  C    0.045274
     2  C   -0.044806
     3  C   -0.095729
     4  C   -0.055612
     5  N   -0.174690
     6  C   -0.028661
     7  C   -0.178000
     8  C    0.112140
     9  C   -0.152780
    10  C    0.152248
    11  C    0.001896
    12  C    0.103779
    13  C    0.138591
    14  O   -0.285825
    15  O   -0.337533
    16  N   -0.099142
    17  C    0.082559
    18  C   -0.093221
    19  C    0.056061
    20  C    0.074753
    21  C    0.004954
    22  C   -0.131246
    23  C    0.043629
    24  N   -0.284285
    25  C    0.131171
    26  C   -0.071839
    27  C   -0.061143
    28  C    0.046009
    29  C    0.006084
    30  C    0.052649
    31  C   -0.014334
    32  N    0.052967
    33  C    0.065496
    34  C   -0.156114
    35  C    0.042378
    36  C    0.013668
    37  C   -0.047167
    38  C    0.106509
    39  O   -0.173754
    40  C   -0.097676
    41  C    0.155601
    42  O   -0.194333
    43  O   -0.211273
    44  C    0.121106
    45  C    0.183250
    46  C   -0.057944
    47  C   -0.102575
    48  C   -0.029354
    49  C    0.011214
    50  C    0.047443
    51  C    0.069995
    52  C   -0.137294
    53  C    0.090568
    54  C    0.090191
    55  C    0.012241
    56  C   -0.049650
    57  C   -0.110236
    58  C   -0.021656
    59  C    0.069780
    60  C    0.090937
    61  C   -0.053065
    62  C   -0.026552
    63  C   -0.070709
    64  C    0.103712
    65  H    0.003150
    66  H   -0.034506
    67  H   -0.034985
    68  H    0.020454
    69  H   -0.044536
    70  H   -0.007235
    71  H   -0.000393
    72  H    0.064713
    73  H    0.025191
    74  H    0.025248
    75  H    0.033825
    76  H    0.020612
    77  H    0.055275
    78  H    0.033435
    79  H    0.068225
    80  H    0.023772
    81  H   -0.009042
    82  H    0.029123
    83  H    0.001127
    84  H    0.048765
    85  H   -0.005546
    86  H    0.022419
    87  H    0.004317
    88  H   -0.009995
    89  H    0.009483
    90  H    0.011170
    91  H    0.050720
    92  H    0.055978
    93  H    0.045771
    94  H    0.086714
    95  H    0.046439
    96  H    0.007333
    97  H    0.039720
    98  H    0.046062
    99  H    0.072945
   100  H    0.013336
   101  H    0.044636
   102  H    0.034029
   103  H    0.056567
   104  H    0.006705
   105  H    0.026172
   106  H    0.010457
   107  H   -0.007460
   108  H   -0.069328
   109  H    0.010745
   110  H   -0.007826
   111  H    0.008755
   112  H    0.014986
   113  H   -0.020062
   114  H   -0.038767
   115  H   -0.018849
   116  H    0.031218
   117  H   -0.002001
   118  H    0.005779
   119  H    0.004059
   120  H   -0.009629
   121  H    0.021955
   122  H    0.036983
   123  H    0.026787
   124  H   -0.019567
   125  H   -0.012351
   126  H    0.003922
   127  H   -0.033549
   128  H   -0.010014
   129  H   -0.003710
   130  H   -0.035786
   131  H    0.033413
   132  H    0.030456
   133  H    0.020516
   134  H   -0.029059
   135  H   -0.006645
   136  H    0.005448
   137  H    0.146069
   138  H    0.195206
 Sum of Mulliken charges =   0.00000

 Dipole moment (field-independent basis, Debye):
    X=              4.7918    Y=              5.0270    Z=              0.9237  Tot=              7.0061
 Quadrupole moment (field-independent basis, Debye-Ang):
   XX=           -351.4836   YY=           -385.4891   ZZ=           -399.7077
   XY=            -25.3365   XZ=              5.4244   YZ=             -3.6526

 Normal termination of Gaussian 09 at Sat Aug  3 17:10:40 2019.
