 Gaussian 09, Revision D.01,
 Gaussian 09:  ES64L-G09RevD.01 24-Apr-2013

 --------------------------
 # td=(NStates=1) B3LYP/SVP
 --------------------------

 --
 TD
 --
 Symbolic Z-matrix:
 Charge =  0 Multiplicity = 1

                         Standard orientation:
 ---------------------------------------------------------------------
 Center     Atomic      Atomic             Coordinates (Angstroms)
 Number     Number       Type             X           Y           Z
 ---------------------------------------------------------------------
      1          6           0       -5.190536   -1.932622    0.523137
      2          6           0       -4.625003    2.698621    1.430738
      3          6           0       -9.168187    3.446711   -0.230850
      4          6           0       -9.915574   -1.244627   -0.909081
      5          7           0       -5.158147    0.424241    0.873406
      6          6           0       -4.490257   -0.774931    0.943510
      7          6           0       -3.040847   -0.671204    1.409332
      8          6           0       -2.951141    0.719770    1.849595
      9          6           0       -4.252901    1.372978    1.389919
     10          6           0       -2.786494    0.861098    3.435705
     11          6           0       -2.003156   -1.002223    0.173581
     12          6           0       -0.624185   -0.937803    0.585682
     13          6           0        0.320020   -1.204423   -0.537602
     14          8           0        0.017908   -1.570933   -1.599322
     15          8           0        1.569164   -0.765229   -0.256631
     16          7           0       -6.905705    2.744984    0.600960
     17          6           0       -5.839384    3.344815    1.091626
     18          6           0       -6.160181    4.706540    1.181994
     19          6           0       -7.429070    5.008923    0.679151
     20          6           0       -7.833995    3.639016    0.252501
     21          6           0       -5.107405    5.729071    1.602153
     22          6           0       -8.041687    6.268901    0.542909
     23          6           0       -8.904466    6.697744   -0.513021
     24          7           0       -9.234581    0.917056   -0.463301
     25          6           0       -9.742653    2.177697   -0.515505
     26          6           0      -11.147226    2.131253   -0.997354
     27          6           0      -11.431958    0.742868   -1.175833
     28          6           0      -10.143430    0.099225   -0.939233
     29          6           0      -12.151578    3.191015   -1.334199
     30          6           0      -12.670182    0.017076   -1.646633
     31          6           0      -12.769032   -0.376397   -3.166984
     32          7           0       -7.583096   -1.237482   -0.237824
     33          6           0       -8.666653   -1.992794   -0.640460
     34          6           0       -8.366201   -3.359523   -0.606468
     35          6           0       -7.070430   -3.395679   -0.240199
     36          6           0       -6.525174   -2.055736    0.010038
     37          6           0       -9.173025   -4.488870   -1.135587
     38          6           0       -5.919454   -4.376556    0.131667
     39          8           0       -5.931754   -5.593571    0.098622
     40          6           0       -4.618322   -3.376484    0.387354
     41          6           0       -4.008651   -3.937979    1.696254
     42          8           0       -4.166735   -3.519161    2.763283
     43          8           0       -3.178205   -4.995213    1.354575
     44          6           0       -2.652021   -5.618482    2.534788
     45          6           0        2.637698   -1.111639   -1.196954
     46          6           0        3.926373   -0.660765   -0.613987
     47          6           0        4.949844   -0.001008   -1.288259
     48          6           0        4.884264    0.520234   -2.734817
     49          6           0        6.222040    0.353627   -0.505871
     50          6           0        7.443276   -0.450761   -1.006835
     51          6           0        8.634490   -0.033406   -0.201411
     52          6           0       10.077493   -0.514963   -0.970238
     53          6           0       10.120971   -2.116418   -0.949806
     54          6           0       11.317666   -0.177329   -0.079641
     55          6           0       12.706310   -0.576424   -0.510734
     56          6           0       13.804962    0.243955    0.159266
     57          6           0       15.256514   -0.228914   -0.330014
     58          6           0       15.515319   -1.749045   -0.207955
     59          6           0       16.318434    0.668294    0.453806
     60          6           0       17.780569    0.596112   -0.130294
     61          6           0       18.596214    1.539237    0.681304
     62          6           0       20.035768    1.578387    0.146285
     63          6           0       20.204717    2.065447   -1.282259
     64          6           0       21.067463    2.472271    1.067949
     65          1           0       -3.964585    3.297173    1.942902
     66          1           0       -9.824382    4.306095   -0.212432
     67          1           0      -10.563112   -2.062967   -0.940321
     68          1           0       -2.862644   -1.367725    2.227410
     69          1           0       -2.123376    1.250354    1.448155
     70          1           0       -1.922228    0.559259    3.879988
     71          1           0       -2.755666    1.958816    3.539195
     72          1           0       -3.534197    0.567318    4.156901
     73          1           0       -2.130356   -2.045593   -0.384108
     74          1           0       -2.284513   -0.233147   -0.523982
     75          1           0       -0.301820   -0.045696    1.191309
     76          1           0       -0.600096   -1.715220    1.315186
     77          1           0       -4.147787    5.384204    0.952742
     78          1           0       -5.568380    6.730900    1.305358
     79          1           0       -4.682956    5.445482    2.682900
     80          1           0       -7.727709    7.107435    1.289919
     81          1           0       -9.019534    6.187675   -1.546257
     82          1           0       -9.160789    7.836257   -0.800380
     83          1           0      -12.455666    3.757183   -0.232859
     84          1           0      -11.638052    3.883086   -2.096443
     85          1           0      -13.131016    2.949683   -1.701845
     86          1           0      -12.702437   -0.880376   -1.122157
     87          1           0      -13.474876    0.592207   -1.224155
     88          1           0      -12.373935    0.636713   -3.658706
     89          1           0      -12.028180   -1.101237   -3.517147
     90          1           0      -13.774345   -0.621496   -3.545169
     91          1           0      -10.193852   -4.486673   -0.750422
     92          1           0       -9.390318   -4.472739   -2.249436
     93          1           0       -8.598393   -5.392267   -0.801426
     94          1           0       -3.864011   -3.513000   -0.552297
     95          1           0       -2.139941   -6.440898    1.897492
     96          1           0       -2.081065   -5.038978    3.316314
     97          1           0       -3.399334   -5.946938    3.206090
     98          1           0        2.452150   -2.130249   -1.587160
     99          1           0        2.583633   -0.628314   -2.213374
    100          1           0        4.035359   -1.088195    0.437428
    101          1           0        5.099465    1.734168   -2.763703
    102          1           0        5.501497    0.171309   -3.404223
    103          1           0        3.820744    0.159443   -3.162625
    104          1           0        6.385139    1.400174   -0.434227
    105          1           0        6.102808   -0.074135    0.438258
    106          1           0        7.412659   -1.517611   -0.933024
    107          1           0        7.519383   -0.267565   -2.058266
    108          1           0        8.769797    1.093999   -0.215483
    109          1           0        8.652109   -0.377352    0.801195
    110          1           0        9.918117   -0.105270   -2.010295
    111          1           0        9.291492   -2.488570   -1.403057
    112          1           0       11.220176   -2.532465   -1.583710
    113          1           0       10.028009   -2.576777    0.063897
    114          1           0       11.218821    1.080150   -0.230087
    115          1           0       11.128346   -0.664871    0.946057
    116          1           0       12.923496   -1.689738   -0.355441
    117          1           0       12.697325   -0.446807   -1.727390
    118          1           0       13.685362    1.456944    0.120707
    119          1           0       13.695733    0.091459    1.385231
    120          1           0       15.080651   -0.038012   -1.353682
    121          1           0       14.781809   -2.527208   -0.775365
    122          1           0       16.440277   -2.024723   -0.736444
    123          1           0       15.797261   -1.933617    1.043032
    124          1           0       15.820786    1.794226    0.315899
    125          1           0       16.155696    0.437805    1.490383
    126          1           0       18.058434   -0.514596    0.030766
    127          1           0       18.034855    1.115433   -1.098509
    128          1           0       18.009765    2.503198    0.642957
    129          1           0       18.775217    1.221740    1.748359
    130          1           0       20.392332    0.556411    0.265339
    131          1           0       19.802034    3.009104   -1.275246
    132          1           0       21.239164    2.187114   -1.629286
    133          1           0       19.667307    1.511033   -2.043312
    134          1           0       21.162887    2.019937    1.995163
    135          1           0       22.082660    2.396478    0.574940
    136          1           0       20.833285    3.589277    1.167019
    137          1           0       -6.974320    1.702371    0.479630
    138          1           0       -7.594155   -0.222610   -0.314520
 ---------------------------------------------------------------------

 SCF Done:  E(RB3LYP) =  -2733.06994852     A.U. after   17 cycles

 Excitation energies and oscillator strengths:

 Excited State   1:      Singlet-A      2.0387 eV  608.14 nm  f=0.1969  <S**2>=0.000
     235 -> 237       -0.32243
     235 -> 238       -0.24729
     236 -> 237        0.54552
     236 -> 238       -0.17679
 This state for optimization and/or second-order correction.
 Total Energy, E(TD-HF/TD-KS) =  -2732.99502607
 Copying the excited state density for this state as the 1-particle RhoCI density.

 The electronic state is 1-A.
 Alpha  occ. eigenvalues --  -19.17266 -19.17029 -19.13673 -19.13429 -19.12619
 Alpha  occ. eigenvalues --  -14.37908 -14.36364 -14.32781 -14.29558 -10.31263
 Alpha  occ. eigenvalues --  -10.30980 -10.29145 -10.24741 -10.24060 -10.24037
 Alpha  occ. eigenvalues --  -10.23535 -10.23349 -10.23219 -10.23081 -10.23033
 Alpha  occ. eigenvalues --  -10.23025 -10.22755 -10.22124 -10.21748 -10.21662
 Alpha  occ. eigenvalues --  -10.21534 -10.20929 -10.20864 -10.20718 -10.20677
 Alpha  occ. eigenvalues --  -10.20651 -10.20643 -10.20580 -10.20569 -10.20499
 Alpha  occ. eigenvalues --  -10.20433 -10.20273 -10.20213 -10.20199 -10.20091
 Alpha  occ. eigenvalues --  -10.19986 -10.19970 -10.19874 -10.19789 -10.19767
 Alpha  occ. eigenvalues --  -10.19643 -10.19487 -10.19294 -10.19148 -10.19056
 Alpha  occ. eigenvalues --  -10.19051 -10.18988 -10.18983 -10.18963 -10.18851
 Alpha  occ. eigenvalues --  -10.18834 -10.18472 -10.18429 -10.18329 -10.18186
 Alpha  occ. eigenvalues --  -10.18109 -10.18003 -10.17994 -10.16717  -1.10367
 Alpha  occ. eigenvalues --   -1.10321  -1.03006  -1.02324  -1.01595  -1.00795
 Alpha  occ. eigenvalues --   -0.98226  -0.94196  -0.93563  -0.82801  -0.82529
 Alpha  occ. eigenvalues --   -0.82267  -0.82055  -0.81396  -0.81334  -0.80393
 Alpha  occ. eigenvalues --   -0.80040  -0.78979  -0.78729  -0.78578  -0.78113
 Alpha  occ. eigenvalues --   -0.76675  -0.75766  -0.74744  -0.74357  -0.73739
 Alpha  occ. eigenvalues --   -0.73179  -0.72471  -0.72051  -0.71214  -0.70515
 Alpha  occ. eigenvalues --   -0.69685  -0.68560  -0.68110  -0.68094  -0.67496
 Alpha  occ. eigenvalues --   -0.66844  -0.66089  -0.65933  -0.65435  -0.65087
 Alpha  occ. eigenvalues --   -0.64315  -0.63342  -0.62209  -0.61867  -0.61176
 Alpha  occ. eigenvalues --   -0.60819  -0.59235  -0.58931  -0.58318  -0.57656
 Alpha  occ. eigenvalues --   -0.57030  -0.56557  -0.56146  -0.55750  -0.54864
 Alpha  occ. eigenvalues --   -0.54844  -0.54513  -0.54294  -0.53962  -0.53759
 Alpha  occ. eigenvalues --   -0.52971  -0.52251  -0.51810  -0.50951  -0.50220
 Alpha  occ. eigenvalues --   -0.49761  -0.49526  -0.48686  -0.48530  -0.48384
 Alpha  occ. eigenvalues --   -0.47985  -0.47799  -0.47432  -0.46958  -0.46934
 Alpha  occ. eigenvalues --   -0.46827  -0.46565  -0.46372  -0.45928  -0.45751
 Alpha  occ. eigenvalues --   -0.45365  -0.45311  -0.45073  -0.44609  -0.44462
 Alpha  occ. eigenvalues --   -0.44260  -0.44027  -0.43885  -0.43672  -0.43373
 Alpha  occ. eigenvalues --   -0.43140  -0.42840  -0.42775  -0.42532  -0.42328
 Alpha  occ. eigenvalues --   -0.42125  -0.42020  -0.41739  -0.41534  -0.40937
 Alpha  occ. eigenvalues --   -0.40909  -0.40396  -0.40184  -0.40072  -0.39780
 Alpha  occ. eigenvalues --   -0.39740  -0.39639  -0.39507  -0.39364  -0.39241
 Alpha  occ. eigenvalues --   -0.39106  -0.38806  -0.38601  -0.38374  -0.38357
 Alpha  occ. eigenvalues --   -0.38257  -0.38210  -0.38130  -0.37785  -0.37740
 Alpha  occ. eigenvalues --   -0.37630  -0.37526  -0.37328  -0.37077  -0.37041
 Alpha  occ. eigenvalues --   -0.36823  -0.36618  -0.36379  -0.36307  -0.35949
 Alpha  occ. eigenvalues --   -0.35844  -0.35655  -0.35350  -0.35069  -0.35032
 Alpha  occ. eigenvalues --   -0.34941  -0.34828  -0.33908  -0.33811  -0.33564
 Alpha  occ. eigenvalues --   -0.33416  -0.33380  -0.33351  -0.33139  -0.33016
 Alpha  occ. eigenvalues --   -0.32406  -0.32117  -0.31888  -0.31795  -0.31646
 Alpha  occ. eigenvalues --   -0.31005  -0.30695  -0.30262  -0.30134  -0.29929
 Alpha  occ. eigenvalues --   -0.29236  -0.29006  -0.28964  -0.28401  -0.27798
 Alpha  occ. eigenvalues --   -0.27343  -0.27071  -0.26891  -0.26629  -0.26171
 Alpha  occ. eigenvalues --   -0.25017  -0.24681  -0.23412  -0.21964  -0.19598
 Alpha  occ. eigenvalues --   -0.18879
 Alpha virt. eigenvalues --   -0.10489  -0.07554  -0.04748  -0.03390  -0.01362
 Alpha virt. eigenvalues --   -0.00304   0.00611   0.01052   0.01902   0.03540
 Alpha virt. eigenvalues --    0.03962   0.04147   0.04321   0.04543   0.04559

 Mulliken charges:
               1
     1  C    0.049772
     2  C   -0.036464
     3  C   -0.110003
     4  C   -0.013697
     5  N   -0.234437
     6  C   -0.055773
     7  C    0.040268
     8  C    0.025274
     9  C    0.005645
    10  C    0.088605
    11  C   -0.020384
    12  C    0.079098
    13  C    0.155877
    14  O   -0.180969
    15  O   -0.330113
    16  N    0.025965
    17  C    0.080899
    18  C   -0.149219
    19  C    0.059148
    20  C    0.062642
    21  C    0.025495
    22  C   -0.093767
    23  C   -0.125298
    24  N   -0.211206
    25  C    0.086737
    26  C   -0.148989
    27  C   -0.134719
    28  C    0.137662
    29  C    0.030678
    30  C    0.150138
    31  C   -0.018025
    32  N   -0.025265
    33  C   -0.067521
    34  C   -0.137439
    35  C   -0.022351
    36  C    0.053201
    37  C    0.073645
    38  C    0.123338
    39  O   -0.165227
    40  C   -0.161556
    41  C    0.194242
    42  O   -0.160752
    43  O   -0.323111
    44  C    0.175475
    45  C    0.254339
    46  C   -0.084427
    47  C   -0.134022
    48  C    0.068283
    49  C    0.137502
    50  C    0.037411
    51  C    0.017352
    52  C   -0.122147
    53  C   -0.006960
    54  C    0.022867
    55  C   -0.012033
    56  C   -0.064648
    57  C   -0.013233
    58  C   -0.054923
    59  C   -0.012371
    60  C    0.048830
    61  C    0.016017
    62  C   -0.103398
    63  C    0.072820
    64  C    0.016290
    65  H   -0.079896
    66  H   -0.002885
    67  H   -0.058969
    68  H    0.007790
    69  H   -0.012927
    70  H   -0.014251
    71  H   -0.011093
    72  H    0.017752
    73  H    0.048787
    74  H    0.001277
    75  H    0.030742
    76  H    0.007870
    77  H    0.042353
    78  H    0.041700
    79  H    0.047636
    80  H    0.045194
    81  H    0.053143
    82  H    0.049706
    83  H    0.035987
    84  H    0.040816
    85  H    0.014017
    86  H   -0.026268
    87  H   -0.009769
    88  H    0.017728
    89  H    0.016493
    90  H    0.026643
    91  H    0.014276
    92  H    0.041955
    93  H    0.051983
    94  H    0.102565
    95  H    0.057259
    96  H    0.022803
    97  H    0.007760
    98  H    0.022532
    99  H   -0.007133
   100  H    0.012234
   101  H    0.040260
   102  H   -0.008689
   103  H    0.020210
   104  H    0.003095
   105  H   -0.031467
   106  H   -0.006561
   107  H   -0.023043
   108  H   -0.001392
   109  H   -0.008172
   110  H    0.013458
   111  H   -0.023197
   112  H    0.032306
   113  H    0.010568
   114  H    0.009081
   115  H    0.015172
   116  H    0.028430
   117  H    0.004781
   118  H    0.020665
   119  H   -0.003083
   120  H   -0.022571
   121  H    0.040071
   122  H    0.014420
   123  H    0.022414
   124  H    0.008368
   125  H    0.000278
   126  H    0.015325
   127  H    0.007958
   128  H   -0.000571
   129  H   -0.009034
   130  H   -0.013688
   131  H   -0.023332
   132  H    0.001944
   133  H    0.011066
   134  H   -0.008936
   135  H    0.006410
   136  H    0.021197
   137  H    0.164625
   138  H    0.134754
 Sum of Mulliken charges =   0.00000

 Dipole moment (field-independent basis, Debye):
    X=              3.1712    Y=              3.5200    Z=             -0.0331  Tot=              4.7379
 Quadrupole moment (field-independent basis, Debye-Ang):
   XX=           -363.2246   YY=           -390.5252   ZZ=           -391.1276
   XY=            -22.3586   XZ=              5.5724   YZ=             -2.8240

 Normal termination of Gaussian 09 at Wed Jul 31 01:20:58 2019.
