 Gaussian 09, Revision D.01,
 Gaussian 09:  ES64L-G09RevD.01 24-Apr-2013

 --------------------------
 # td=(NStates=1) B3LYP/SVP
 --------------------------

 --
 TD
 --
 Symbolic Z-matrix:
 Charge =  0 Multiplicity = 1

                         Standard orientation:
 ---------------------------------------------------------------------
 Center     Atomic      Atomic             Coordinates (Angstroms)
 Number     Number       Type             X           Y           Z
 ---------------------------------------------------------------------
      1          6           0       -5.102309   -1.911284    0.428136
      2          6           0       -4.771140    2.752682    1.265434
      3          6           0       -9.354855    3.369427   -0.184924
      4          6           0       -9.857268   -1.444367   -0.908285
      5          7           0       -5.157314    0.414587    0.744054
      6          6           0       -4.494448   -0.782122    0.775105
      7          6           0       -3.044072   -0.623057    1.142771
      8          6           0       -2.970572    0.869354    1.584069
      9          6           0       -4.384982    1.400850    1.198973
     10          6           0       -2.750918    1.131840    3.206915
     11          6           0       -1.960362   -0.796694   -0.076571
     12          6           0       -0.629123   -0.567448    0.407264
     13          6           0        0.425594   -1.004948   -0.613232
     14          8           0        0.128444   -1.406619   -1.705150
     15          8           0        1.701412   -0.835470   -0.106312
     16          7           0       -7.054677    2.735371    0.514058
     17          6           0       -5.951841    3.409080    0.966560
     18          6           0       -6.244380    4.816895    1.054048
     19          6           0       -7.639780    5.029542    0.575195
     20          6           0       -8.099931    3.691516    0.196408
     21          6           0       -5.278087    5.824689    1.639580
     22          6           0       -8.168187    6.282516    0.341545
     23          6           0       -9.100745    6.610194   -0.672080
     24          7           0       -9.220004    0.881886   -0.480562
     25          6           0       -9.941330    2.087884   -0.553621
     26          6           0      -11.376159    1.963760   -0.881601
     27          6           0      -11.431218    0.571510   -1.102703
     28          6           0      -10.088231   -0.087854   -0.876198
     29          6           0      -12.320751    2.938856   -1.081186
     30          6           0      -12.720715   -0.150847   -1.584021
     31          6           0      -12.691509   -0.726678   -3.137040
     32          7           0       -7.513124   -1.305303   -0.094534
     33          6           0       -8.557465   -2.033561   -0.564579
     34          6           0       -8.151844   -3.368477   -0.711510
     35          6           0       -6.859761   -3.305163   -0.295260
     36          6           0       -6.469872   -2.080685    0.012788
     37          6           0       -9.035891   -4.500945   -0.890794
     38          6           0       -5.705465   -4.324290   -0.066719
     39          8           0       -5.591313   -5.522825   -0.061918
     40          6           0       -4.582550   -3.326795    0.466940
     41          6           0       -4.018765   -3.860768    1.787100
     42          8           0       -4.443087   -3.453122    2.832507
     43          8           0       -3.023439   -4.762662    1.595154
     44          6           0       -2.464699   -5.277553    2.815430
     45          6           0        2.672396   -1.223794   -0.991123
     46          6           0        4.043859   -0.814727   -0.538925
     47          6           0        5.006426   -0.116436   -1.094308
     48          6           0        4.921359    0.683266   -2.438981
     49          6           0        6.385814    0.285039   -0.488886
     50          6           0        7.589071   -0.502567   -0.978782
     51          6           0        8.832898   -0.268025   -0.182327
     52          6           0       10.118504   -0.895111   -0.767117
     53          6           0        9.971225   -2.451051   -0.733476
     54          6           0       11.355061   -0.404533    0.048630
     55          6           0       12.600798   -0.712983   -0.598425
     56          6           0       13.802308    0.018861    0.236418
     57          6           0       15.236929   -0.246206   -0.276303
     58          6           0       15.707132   -1.681054   -0.353604
     59          6           0       16.303738    0.612017    0.407401
     60          6           0       17.727333    0.877769   -0.261987
     61          6           0       18.587318    1.674094    0.576682
     62          6           0       19.994293    1.817107    0.126983
     63          6           0       20.213593    2.397086   -1.273253
     64          6           0       20.844609    2.603873    1.115724
     65          1           0       -4.058622    3.478079    1.741603
     66          1           0      -10.237024    4.052793   -0.181945
     67          1           0      -10.688148   -2.048873   -1.196079
     68          1           0       -2.585831   -1.329299    1.912646
     69          1           0       -2.100962    1.323653    1.017948
     70          1           0       -1.860547    0.481400    3.572928
     71          1           0       -2.742497    2.232184    3.489446
     72          1           0       -3.750092    0.854146    3.579560
     73          1           0       -2.182882   -1.783733   -0.345693
     74          1           0       -2.486406   -0.280205   -1.026733
     75          1           0       -0.334858    0.461309    0.888880
     76          1           0       -0.357909   -1.296645    1.088793
     77          1           0       -4.327904    5.884056    1.074656
     78          1           0       -5.795086    6.809822    1.888711
     79          1           0       -5.031980    5.489024    2.714643
     80          1           0       -7.797682    7.048708    0.961232
     81          1           0       -9.575515    5.916347   -1.318064
     82          1           0       -9.584859    7.646371   -0.611381
     83          1           0      -12.509748    3.368255   -0.252098
     84          1           0      -11.919718    3.636784   -1.886427
     85          1           0      -13.297153    2.481598   -1.509058
     86          1           0      -13.137251   -0.985101   -1.024098
     87          1           0      -13.543783    0.620990   -1.617394
     88          1           0      -12.763578    0.374332   -3.670862
     89          1           0      -11.653089   -1.202573   -3.257568
     90          1           0      -13.592134   -1.159125   -3.397764
     91          1           0       -9.781313   -4.719415    0.153285
     92          1           0       -9.936076   -4.239973   -1.620976
     93          1           0       -8.457428   -5.590690   -1.058266
     94          1           0       -3.656546   -3.302613   -0.227587
     95          1           0       -1.632264   -5.915545    2.636707
     96          1           0       -2.101480   -4.318851    3.521407
     97          1           0       -3.332680   -5.895127    3.452184
     98          1           0        2.788625   -2.373279   -0.967454
     99          1           0        2.501311   -0.972794   -1.999719
    100          1           0        3.995968   -1.152813    0.502590
    101          1           0        4.731641    1.840763   -2.337757
    102          1           0        5.830835    0.433207   -3.090364
    103          1           0        3.991073    0.307830   -3.278822
    104          1           0        6.411931    1.404548   -0.644554
    105          1           0        6.339240   -0.096928    0.681473
    106          1           0        7.689065   -1.461026   -1.348864
    107          1           0        7.832301   -0.351890   -2.144608
    108          1           0        9.078285    0.799303   -0.188025
    109          1           0        8.818155   -0.532594    0.901631
    110          1           0       10.310146   -0.680176   -1.877215
    111          1           0        9.093891   -3.145414   -1.240351
    112          1           0       10.804674   -2.921465   -1.210708
    113          1           0       10.131952   -2.990883    0.255659
    114          1           0       11.178250    0.675085    0.220940
    115          1           0       11.247960   -0.743433    0.870566
    116          1           0       12.680777   -1.974703   -0.556699
    117          1           0       12.779695   -0.286920   -1.489271
    118          1           0       13.289907    0.958858    0.420814
    119          1           0       13.675517   -0.409542    1.150173
    120          1           0       15.367819    0.164420   -1.314127
    121          1           0       15.067485   -2.365779   -0.986860
    122          1           0       16.568311   -1.791774   -0.957166
    123          1           0       15.964648   -2.179179    0.684957
    124          1           0       15.783706    1.649308    0.656431
    125          1           0       16.509939    0.122686    1.403787
    126          1           0       18.174518   -0.072649   -0.335204
    127          1           0       17.482313    1.147792   -1.280456
    128          1           0       18.245412    2.729456    0.456388
    129          1           0       18.536292    1.276976    1.570273
    130          1           0       20.092217    0.774807   -0.015172
    131          1           0       20.148847    3.370580   -1.431206
    132          1           0       21.065091    2.196734   -1.505336
    133          1           0       19.711504    2.022253   -2.125035
    134          1           0       20.576633    2.354976    2.137781
    135          1           0       21.939469    2.644722    0.895073
    136          1           0       20.592157    3.711473    1.197096
    137          1           0       -7.122024    1.615047    0.534220
    138          1           0       -7.379001   -0.407957   -0.112531
 ---------------------------------------------------------------------

 SCF Done:  E(RB3LYP) =  -2732.94244807     A.U. after   17 cycles

 Excitation energies and oscillator strengths:

 Excited State   1:      Singlet-A      2.0909 eV  592.98 nm  f=0.1337  <S**2>=0.000
     235 -> 237        0.59752
     236 -> 237       -0.14408
     236 -> 238        0.33745
 This state for optimization and/or second-order correction.
 Total Energy, E(TD-HF/TD-KS) =  -2732.86561024
 Copying the excited state density for this state as the 1-particle RhoCI density.

 The electronic state is 1-A.
 Alpha  occ. eigenvalues --  -19.18778 -19.18642 -19.13593 -19.13303 -19.12446
 Alpha  occ. eigenvalues --  -14.36880 -14.36473 -14.32305 -14.30032 -10.32297
 Alpha  occ. eigenvalues --  -10.31578 -10.28724 -10.26634 -10.24376 -10.24102
 Alpha  occ. eigenvalues --  -10.23783 -10.23417 -10.23280 -10.22649 -10.22239
 Alpha  occ. eigenvalues --  -10.22210 -10.21909 -10.21827 -10.21759 -10.21464
 Alpha  occ. eigenvalues --  -10.21448 -10.21313 -10.21239 -10.21080 -10.21030
 Alpha  occ. eigenvalues --  -10.21010 -10.20827 -10.20803 -10.20782 -10.20530
 Alpha  occ. eigenvalues --  -10.20462 -10.20340 -10.20137 -10.20028 -10.19966
 Alpha  occ. eigenvalues --  -10.19836 -10.19785 -10.19709 -10.19688 -10.19571
 Alpha  occ. eigenvalues --  -10.19363 -10.19300 -10.18777 -10.18718 -10.18628
 Alpha  occ. eigenvalues --  -10.18622 -10.18550 -10.18414 -10.18320 -10.18242
 Alpha  occ. eigenvalues --  -10.18183 -10.17979 -10.17975 -10.17888 -10.17446
 Alpha  occ. eigenvalues --  -10.17146 -10.16683 -10.16088 -10.13865  -1.10756
 Alpha  occ. eigenvalues --   -1.09519  -1.03751  -1.02821  -1.02129  -1.01364
 Alpha  occ. eigenvalues --   -0.95886  -0.94422  -0.92104  -0.84987  -0.82992
 Alpha  occ. eigenvalues --   -0.82689  -0.82489  -0.82323  -0.81882  -0.81158
 Alpha  occ. eigenvalues --   -0.81004  -0.80027  -0.79886  -0.78339  -0.77886
 Alpha  occ. eigenvalues --   -0.76503  -0.76072  -0.75457  -0.75070  -0.74488
 Alpha  occ. eigenvalues --   -0.73858  -0.73078  -0.72719  -0.71722  -0.70169
 Alpha  occ. eigenvalues --   -0.69771  -0.69669  -0.68852  -0.68422  -0.68233
 Alpha  occ. eigenvalues --   -0.67642  -0.66723  -0.66101  -0.65963  -0.65669
 Alpha  occ. eigenvalues --   -0.64208  -0.63022  -0.62728  -0.62095  -0.61760
 Alpha  occ. eigenvalues --   -0.60743  -0.60422  -0.58924  -0.58739  -0.57925
 Alpha  occ. eigenvalues --   -0.57316  -0.56920  -0.56497  -0.56364  -0.56266
 Alpha  occ. eigenvalues --   -0.55255  -0.54795  -0.54687  -0.54063  -0.53165
 Alpha  occ. eigenvalues --   -0.52701  -0.51996  -0.51936  -0.51284  -0.50626
 Alpha  occ. eigenvalues --   -0.50319  -0.49328  -0.49236  -0.48623  -0.48526
 Alpha  occ. eigenvalues --   -0.48312  -0.48051  -0.47698  -0.47650  -0.47420
 Alpha  occ. eigenvalues --   -0.46848  -0.46506  -0.46319  -0.46172  -0.45878
 Alpha  occ. eigenvalues --   -0.45784  -0.45602  -0.45418  -0.45182  -0.45100
 Alpha  occ. eigenvalues --   -0.44866  -0.44666  -0.44593  -0.44114  -0.43908
 Alpha  occ. eigenvalues --   -0.43682  -0.43354  -0.43202  -0.42945  -0.42648
 Alpha  occ. eigenvalues --   -0.42468  -0.42395  -0.41949  -0.41911  -0.41712
 Alpha  occ. eigenvalues --   -0.41421  -0.41349  -0.41035  -0.40878  -0.40820
 Alpha  occ. eigenvalues --   -0.40599  -0.40121  -0.39903  -0.39639  -0.39391
 Alpha  occ. eigenvalues --   -0.39210  -0.39120  -0.39064  -0.38897  -0.38803
 Alpha  occ. eigenvalues --   -0.38349  -0.38242  -0.37992  -0.37795  -0.37649
 Alpha  occ. eigenvalues --   -0.37575  -0.37334  -0.37279  -0.37136  -0.36805
 Alpha  occ. eigenvalues --   -0.36699  -0.36464  -0.36110  -0.35960  -0.35945
 Alpha  occ. eigenvalues --   -0.35827  -0.35625  -0.35579  -0.34965  -0.34328
 Alpha  occ. eigenvalues --   -0.34242  -0.33996  -0.33795  -0.33693  -0.33621
 Alpha  occ. eigenvalues --   -0.33330  -0.33092  -0.32946  -0.32755  -0.32458
 Alpha  occ. eigenvalues --   -0.32294  -0.32168  -0.31518  -0.31501  -0.31457
 Alpha  occ. eigenvalues --   -0.30933  -0.30699  -0.30509  -0.30457  -0.30015
 Alpha  occ. eigenvalues --   -0.28869  -0.28791  -0.28390  -0.28289  -0.27667
 Alpha  occ. eigenvalues --   -0.27568  -0.27305  -0.26554  -0.26302  -0.26166
 Alpha  occ. eigenvalues --   -0.25170  -0.25092  -0.22811  -0.22368  -0.19662
 Alpha  occ. eigenvalues --   -0.19512
 Alpha virt. eigenvalues --   -0.10667  -0.07992  -0.04227  -0.02647  -0.00354
 Alpha virt. eigenvalues --   -0.00090   0.00514   0.00623   0.01828   0.03121
 Alpha virt. eigenvalues --    0.03521   0.03873   0.03960   0.04471   0.04518

 Mulliken charges:
               1
     1  C    0.092163
     2  C   -0.054128
     3  C   -0.107884
     4  C   -0.045917
     5  N   -0.182472
     6  C   -0.083059
     7  C   -0.104802
     8  C   -0.038397
     9  C   -0.002021
    10  C    0.005631
    11  C    0.051901
    12  C    0.114321
    13  C    0.151512
    14  O   -0.204768
    15  O   -0.303252
    16  N   -0.173191
    17  C    0.095557
    18  C   -0.136047
    19  C    0.072727
    20  C    0.207100
    21  C    0.062714
    22  C   -0.059157
    23  C   -0.036785
    24  N   -0.252847
    25  C   -0.021143
    26  C   -0.127385
    27  C   -0.073098
    28  C    0.075374
    29  C    0.170947
    30  C   -0.004054
    31  C   -0.039139
    32  N    0.169716
    33  C    0.049459
    34  C   -0.108095
    35  C   -0.035996
    36  C   -0.036806
    37  C   -0.071553
    38  C    0.156138
    39  O   -0.141565
    40  C   -0.087369
    41  C    0.194658
    42  O   -0.207747
    43  O   -0.294416
    44  C    0.113017
    45  C    0.282554
    46  C   -0.116520
    47  C   -0.056752
    48  C   -0.078157
    49  C    0.073514
    50  C    0.074856
    51  C    0.065494
    52  C   -0.117675
    53  C   -0.036575
    54  C    0.165846
    55  C    0.029474
    56  C    0.079674
    57  C    0.004778
    58  C    0.027325
    59  C   -0.065443
    60  C    0.072063
    61  C    0.066427
    62  C   -0.050235
    63  C    0.209801
    64  C    0.055905
    65  H   -0.029871
    66  H   -0.016168
    67  H   -0.027977
    68  H    0.011145
    69  H    0.019712
    70  H    0.041512
    71  H    0.026664
    72  H    0.027854
    73  H   -0.029233
    74  H    0.036424
    75  H    0.063655
    76  H   -0.007526
    77  H    0.048412
    78  H    0.024789
    79  H    0.035788
    80  H   -0.019434
    81  H    0.020862
    82  H    0.036040
    83  H   -0.020374
    84  H    0.037242
    85  H    0.017878
    86  H    0.010056
    87  H   -0.008131
    88  H    0.016438
    89  H    0.048126
    90  H    0.011923
    91  H    0.051454
    92  H    0.042466
    93  H    0.080975
    94  H    0.063168
    95  H    0.035741
    96  H    0.049250
    97  H    0.061495
    98  H    0.012658
    99  H   -0.012137
   100  H   -0.014720
   101  H    0.061908
   102  H    0.039329
   103  H    0.024064
   104  H    0.030188
   105  H    0.022810
   106  H   -0.057193
   107  H   -0.033444
   108  H   -0.021443
   109  H   -0.003101
   110  H    0.002537
   111  H    0.032830
   112  H   -0.013876
   113  H   -0.001205
   114  H   -0.022903
   115  H   -0.118388
   116  H    0.026231
   117  H   -0.033363
   118  H   -0.019147
   119  H   -0.048610
   120  H   -0.019218
   121  H    0.004894
   122  H   -0.011033
   123  H    0.018764
   124  H    0.003959
   125  H   -0.015282
   126  H   -0.037943
   127  H   -0.009667
   128  H   -0.023232
   129  H   -0.013308
   130  H   -0.043534
   131  H   -0.047259
   132  H   -0.095722
   133  H   -0.031702
   134  H   -0.008855
   135  H    0.015997
   136  H   -0.001541
   137  H    0.210544
   138  H    0.054561
 Sum of Mulliken charges =   0.00000

 Dipole moment (field-independent basis, Debye):
    X=              2.1359    Y=              4.3183    Z=              1.1161  Tot=              4.9453
 Quadrupole moment (field-independent basis, Debye-Ang):
   XX=           -334.4963   YY=           -382.9479   ZZ=           -398.3948
   XY=            -29.3545   XZ=              1.6668   YZ=              0.7853

 Normal termination of Gaussian 09 at Wed Jul 24 17:52:21 2019.
