 Gaussian 09, Revision D.01,
 Gaussian 09:  ES64L-G09RevD.01 24-Apr-2013

 --------------------------
 # td=(NStates=1) B3LYP/SVP
 --------------------------

 --
 TD
 --
 Symbolic Z-matrix:
 Charge =  0 Multiplicity = 1

                         Standard orientation:
 ---------------------------------------------------------------------
 Center     Atomic      Atomic             Coordinates (Angstroms)
 Number     Number       Type             X           Y           Z
 ---------------------------------------------------------------------
      1          6           0       -5.059660   -1.874969    0.338902
      2          6           0       -4.949668    2.823157    1.363750
      3          6           0       -9.555699    3.104588   -0.375666
      4          6           0       -9.839509   -1.683334   -0.694545
      5          7           0       -5.316317    0.505881    0.791522
      6          6           0       -4.514556   -0.615610    0.811801
      7          6           0       -3.029629   -0.361335    1.233499
      8          6           0       -3.210953    1.144017    1.680643
      9          6           0       -4.543929    1.465173    1.343911
     10          6           0       -2.900319    1.401078    3.176349
     11          6           0       -2.039352   -0.779769    0.196795
     12          6           0       -0.618396   -0.381729    0.596820
     13          6           0        0.389116   -0.782305   -0.508206
     14          8           0        0.038007   -1.145635   -1.616226
     15          8           0        1.705313   -0.543543   -0.199956
     16          7           0       -7.228179    2.780098    0.480047
     17          6           0       -6.173355    3.419389    1.033318
     18          6           0       -6.593450    4.854084    0.954540
     19          6           0       -7.751878    4.996539    0.389147
     20          6           0       -8.335329    3.535695    0.099812
     21          6           0       -5.704783    5.934451    1.389562
     22          6           0       -8.672328    6.146455    0.187366
     23          6           0       -9.502184    6.348900   -0.829596
     24          7           0       -9.275369    0.770468   -0.445073
     25          6           0      -10.074549    1.814599   -0.499779
     26          6           0      -11.382529    1.535641   -0.934447
     27          6           0      -11.479647    0.134451   -1.002497
     28          6           0      -10.093603   -0.315533   -0.702640
     29          6           0      -12.585581    2.567590   -1.112459
     30          6           0      -12.647924   -0.703333   -1.518156
     31          6           0      -12.538807   -0.977252   -3.104467
     32          7           0       -7.485837   -1.347750   -0.089967
     33          6           0       -8.589180   -2.285204   -0.374879
     34          6           0       -8.046202   -3.573977   -0.333066
     35          6           0       -6.674695   -3.409404   -0.093553
     36          6           0       -6.364729   -2.125059    0.042528
     37          6           0       -8.848594   -4.704476   -0.803416
     38          6           0       -5.459749   -4.204052    0.015518
     39          8           0       -5.215595   -5.370946   -0.063138
     40          6           0       -4.338239   -3.252325    0.415167
     41          6           0       -3.691299   -3.670276    1.706587
     42          8           0       -3.888165   -3.145991    2.744938
     43          8           0       -2.696329   -4.600835    1.534115
     44          6           0       -1.940135   -5.052746    2.686103
     45          6           0        2.640255   -0.866654   -1.254551
     46          6           0        4.083612   -0.703710   -0.622270
     47          6           0        4.985293    0.096712   -1.238391
     48          6           0        5.019689    0.852812   -2.608989
     49          6           0        6.288842    0.254681   -0.360343
     50          6           0        7.506738   -0.319896   -1.160654
     51          6           0        8.802901   -0.075641   -0.453249
     52          6           0       10.102928   -0.770483   -0.783744
     53          6           0        9.892975   -2.348327   -0.785882
     54          6           0       11.293768   -0.341321    0.056469
     55          6           0       12.747506   -0.555793   -0.528293
     56          6           0       13.878279    0.090498    0.245499
     57          6           0       15.237515   -0.182962   -0.467008
     58          6           0       15.559694   -1.726176   -0.259758
     59          6           0       16.413722    0.651770    0.377296
     60          6           0       17.714684    0.667050   -0.158087
     61          6           0       18.766148    1.464863    0.609802
     62          6           0       20.233559    1.592888    0.077811
     63          6           0       20.193457    2.351377   -1.183180
     64          6           0       21.191783    2.142223    1.148370
     65          1           0       -4.254279    3.422119    1.692452
     66          1           0      -10.314805    3.898667   -0.482851
     67          1           0      -10.553557   -2.317479   -1.264591
     68          1           0       -3.030683   -0.980888    2.295502
     69          1           0       -2.398506    1.814375    1.085287
     70          1           0       -2.094529    0.521877    3.621127
     71          1           0       -2.710924    2.475298    3.504007
     72          1           0       -3.807298    1.052936    3.793295
     73          1           0       -1.934479   -1.808516    0.062287
     74          1           0       -2.296859   -0.296808   -0.758644
     75          1           0       -0.370561    0.680932    0.684737
     76          1           0       -0.425754   -0.903675    1.615742
     77          1           0       -4.590331    5.626007    1.092377
     78          1           0       -6.178411    6.807972    1.020163
     79          1           0       -5.356834    6.002036    2.494650
     80          1           0       -8.571031    7.059395    0.755073
     81          1           0       -9.773984    5.533700   -1.648617
     82          1           0      -10.196029    7.416557   -0.794600
     83          1           0      -12.945115    3.070370   -0.128616
     84          1           0      -12.473247    3.400337   -1.914429
     85          1           0      -13.548214    1.916626   -1.487224
     86          1           0      -12.861648   -1.756381   -1.109586
     87          1           0      -13.526217   -0.084692   -1.301476
     88          1           0      -12.849888   -0.127779   -3.676774
     89          1           0      -11.665163   -1.486712   -3.283860
     90          1           0      -13.444784   -1.757215   -3.408898
     91          1           0       -9.763099   -4.559024   -0.325027
     92          1           0       -9.063462   -4.627971   -1.867718
     93          1           0       -8.456524   -5.572514   -0.435639
     94          1           0       -3.765628   -3.290364   -0.517524
     95          1           0       -1.087350   -5.648942    2.276250
     96          1           0       -1.511360   -4.269831    3.243085
     97          1           0       -2.765457   -5.319510    3.303273
     98          1           0        2.439643   -1.820910   -1.605578
     99          1           0        2.528718   -0.029157   -2.047071
    100          1           0        4.421155   -0.949082    0.515957
    101          1           0        5.570403    1.756788   -2.462091
    102          1           0        5.706032    0.318530   -3.194091
    103          1           0        3.857995    0.962684   -2.893573
    104          1           0        6.459799    1.261204    0.054499
    105          1           0        6.067607   -0.262551    0.562119
    106          1           0        7.290192   -1.335051   -1.256725
    107          1           0        7.548998    0.150472   -2.261963
    108          1           0        9.004480    0.958383   -0.330698
    109          1           0        8.748260   -0.345710    0.661001
    110          1           0       10.283795   -0.356951   -1.763938
    111          1           0        8.978280   -2.679850   -1.613977
    112          1           0       10.818199   -2.915479   -1.338276
    113          1           0        9.792264   -2.722312    0.276423
    114          1           0       11.035441    0.630434    0.371834
    115          1           0       11.254786   -0.728771    0.953067
    116          1           0       12.835153   -1.834906   -0.463909
    117          1           0       12.773581   -0.379813   -1.675628
    118          1           0       13.752356    1.141981    0.269827
    119          1           0       14.090032   -0.332836    1.315880
    120          1           0       15.223733   -0.029476   -1.528659
    121          1           0       14.583682   -2.359674   -0.667191
    122          1           0       16.406634   -2.099432   -0.802299
    123          1           0       15.617695   -2.046073    0.959566
    124          1           0       15.901131    1.690863    0.237465
    125          1           0       16.382856    0.239922    1.385754
    126          1           0       18.142661   -0.306900   -0.213148
    127          1           0       17.596277    1.152559   -1.249630
    128          1           0       18.562556    2.608377    0.684175
    129          1           0       18.764280    1.163641    1.737236
    130          1           0       20.528152    0.510328   -0.139230
    131          1           0       20.083930    3.477497   -1.036587
    132          1           0       21.216617    2.432957   -1.370295
    133          1           0       19.517553    1.915889   -2.049573
    134          1           0       21.260673    1.549838    2.168488
    135          1           0       22.236042    2.277987    0.684631
    136          1           0       20.546127    3.197752    1.569730
    137          1           0       -7.214541    1.590948    0.588670
    138          1           0       -7.585331   -0.332472   -0.072548
 ---------------------------------------------------------------------

 SCF Done:  E(RB3LYP) =  -2733.02736342     A.U. after   16 cycles

 Excitation energies and oscillator strengths:

 Excited State   1:      Singlet-A      2.1364 eV  580.34 nm  f=0.1322  <S**2>=0.000
     235 -> 238        0.33873
     236 -> 237        0.60776
 This state for optimization and/or second-order correction.
 Total Energy, E(TD-HF/TD-KS) =  -2732.94885202
 Copying the excited state density for this state as the 1-particle RhoCI density.

 The electronic state is 1-A.
 Alpha  occ. eigenvalues --  -19.17564 -19.16487 -19.12748 -19.12618 -19.11092
 Alpha  occ. eigenvalues --  -14.37577 -14.35353 -14.33133 -14.29520 -10.31738
 Alpha  occ. eigenvalues --  -10.31643 -10.26531 -10.25288 -10.24623 -10.24421
 Alpha  occ. eigenvalues --  -10.24003 -10.23506 -10.22988 -10.22647 -10.21927
 Alpha  occ. eigenvalues --  -10.21780 -10.21736 -10.21706 -10.21671 -10.21564
 Alpha  occ. eigenvalues --  -10.21439 -10.21225 -10.21158 -10.21062 -10.20810
 Alpha  occ. eigenvalues --  -10.20808 -10.20783 -10.20712 -10.20634 -10.20530
 Alpha  occ. eigenvalues --  -10.20430 -10.20374 -10.20345 -10.20328 -10.20260
 Alpha  occ. eigenvalues --  -10.20220 -10.19923 -10.19759 -10.19690 -10.19648
 Alpha  occ. eigenvalues --  -10.19548 -10.19376 -10.19333 -10.19327 -10.19109
 Alpha  occ. eigenvalues --  -10.18991 -10.18945 -10.18926 -10.18819 -10.18711
 Alpha  occ. eigenvalues --  -10.18639 -10.18553 -10.18505 -10.18328 -10.18001
 Alpha  occ. eigenvalues --  -10.17836 -10.17675 -10.17575 -10.16682  -1.09245
 Alpha  occ. eigenvalues --   -1.08676  -1.03133  -1.00900  -1.00216  -0.97205
 Alpha  occ. eigenvalues --   -0.96478  -0.95000  -0.93965  -0.85153  -0.82328
 Alpha  occ. eigenvalues --   -0.82213  -0.81766  -0.81675  -0.81194  -0.80707
 Alpha  occ. eigenvalues --   -0.80426  -0.79627  -0.79489  -0.78104  -0.77627
 Alpha  occ. eigenvalues --   -0.76964  -0.76470  -0.75551  -0.75111  -0.74176
 Alpha  occ. eigenvalues --   -0.73292  -0.72850  -0.72526  -0.70886  -0.70666
 Alpha  occ. eigenvalues --   -0.69707  -0.69396  -0.68700  -0.67856  -0.66963
 Alpha  occ. eigenvalues --   -0.66517  -0.66193  -0.65894  -0.65490  -0.65117
 Alpha  occ. eigenvalues --   -0.64375  -0.63073  -0.61907  -0.61582  -0.61005
 Alpha  occ. eigenvalues --   -0.60447  -0.59212  -0.58660  -0.57988  -0.56723
 Alpha  occ. eigenvalues --   -0.56487  -0.55846  -0.55788  -0.55367  -0.54996
 Alpha  occ. eigenvalues --   -0.54534  -0.53894  -0.53869  -0.53286  -0.52998
 Alpha  occ. eigenvalues --   -0.52928  -0.51623  -0.51275  -0.50710  -0.50640
 Alpha  occ. eigenvalues --   -0.50275  -0.49356  -0.48942  -0.48513  -0.48386
 Alpha  occ. eigenvalues --   -0.48345  -0.47711  -0.47656  -0.47174  -0.46928
 Alpha  occ. eigenvalues --   -0.46711  -0.46337  -0.45883  -0.45803  -0.45406
 Alpha  occ. eigenvalues --   -0.45269  -0.45163  -0.45142  -0.45071  -0.44871
 Alpha  occ. eigenvalues --   -0.44464  -0.44226  -0.43987  -0.43814  -0.43617
 Alpha  occ. eigenvalues --   -0.43290  -0.43017  -0.42904  -0.42358  -0.42295
 Alpha  occ. eigenvalues --   -0.42102  -0.42002  -0.41888  -0.41748  -0.41493
 Alpha  occ. eigenvalues --   -0.41040  -0.40894  -0.40744  -0.40347  -0.40199
 Alpha  occ. eigenvalues --   -0.39945  -0.39794  -0.39540  -0.39423  -0.39365
 Alpha  occ. eigenvalues --   -0.38982  -0.38819  -0.38551  -0.38448  -0.38104
 Alpha  occ. eigenvalues --   -0.38080  -0.37830  -0.37723  -0.37622  -0.37487
 Alpha  occ. eigenvalues --   -0.37250  -0.37093  -0.36927  -0.36780  -0.36486
 Alpha  occ. eigenvalues --   -0.36415  -0.36253  -0.36114  -0.35899  -0.35840
 Alpha  occ. eigenvalues --   -0.35532  -0.35434  -0.35280  -0.35171  -0.34701
 Alpha  occ. eigenvalues --   -0.34620  -0.34383  -0.33922  -0.33820  -0.33568
 Alpha  occ. eigenvalues --   -0.33522  -0.33475  -0.33120  -0.33060  -0.32985
 Alpha  occ. eigenvalues --   -0.32316  -0.31996  -0.31733  -0.31487  -0.31038
 Alpha  occ. eigenvalues --   -0.31002  -0.30700  -0.30466  -0.30312  -0.29664
 Alpha  occ. eigenvalues --   -0.29303  -0.28956  -0.28666  -0.28379  -0.27917
 Alpha  occ. eigenvalues --   -0.27826  -0.27442  -0.26626  -0.26144  -0.25386
 Alpha  occ. eigenvalues --   -0.25098  -0.24810  -0.24149  -0.22520  -0.19957
 Alpha  occ. eigenvalues --   -0.18876
 Alpha virt. eigenvalues --   -0.09730  -0.08016  -0.03880  -0.01599  -0.00149
 Alpha virt. eigenvalues --   -0.00023   0.00716   0.00773   0.01799   0.03357
 Alpha virt. eigenvalues --    0.03424   0.03757   0.04079   0.04153   0.04223

 Mulliken charges:
               1
     1  C   -0.093721
     2  C    0.003223
     3  C   -0.073569
     4  C   -0.117134
     5  N   -0.186503
     6  C   -0.102472
     7  C   -0.048769
     8  C   -0.083303
     9  C    0.046756
    10  C   -0.033512
    11  C    0.163661
    12  C   -0.015311
    13  C    0.177973
    14  O   -0.247822
    15  O   -0.334740
    16  N   -0.156879
    17  C    0.121919
    18  C   -0.104970
    19  C    0.049850
    20  C    0.097259
    21  C    0.060932
    22  C   -0.021126
    23  C   -0.123504
    24  N   -0.209203
    25  C    0.042882
    26  C   -0.101795
    27  C   -0.079304
    28  C    0.075801
    29  C   -0.021339
    30  C    0.020711
    31  C    0.009342
    32  N   -0.122816
    33  C    0.095336
    34  C   -0.186015
    35  C    0.007108
    36  C    0.159712
    37  C    0.214452
    38  C   -0.029317
    39  O   -0.147502
    40  C    0.018293
    41  C    0.243810
    42  O   -0.195641
    43  O   -0.340828
    44  C    0.232668
    45  C    0.289317
    46  C   -0.118786
    47  C   -0.207483
    48  C    0.123853
    49  C    0.051056
    50  C    0.067850
    51  C    0.002796
    52  C   -0.018514
    53  C   -0.067044
    54  C    0.156739
    55  C   -0.062654
    56  C    0.091282
    57  C   -0.104432
    58  C   -0.067658
    59  C    0.029987
    60  C    0.100806
    61  C   -0.049223
    62  C   -0.091500
    63  C    0.067012
    64  C   -0.063380
    65  H   -0.124360
    66  H   -0.010399
    67  H    0.003999
    68  H    0.055962
    69  H    0.037332
    70  H    0.040329
    71  H    0.043484
    72  H    0.028619
    73  H    0.002419
    74  H    0.019553
    75  H    0.034129
    76  H    0.044109
    77  H    0.028290
    78  H    0.019726
    79  H    0.028458
    80  H   -0.001474
    81  H    0.061314
    82  H    0.052529
    83  H    0.046848
    84  H    0.039067
    85  H    0.024016
    86  H    0.021492
    87  H    0.003000
    88  H    0.020282
    89  H    0.007429
    90  H    0.006084
    91  H   -0.012187
    92  H    0.034571
    93  H    0.000364
    94  H    0.053355
    95  H    0.055170
    96  H   -0.003826
    97  H    0.021600
    98  H    0.015293
    99  H    0.028539
   100  H    0.037942
   101  H    0.005393
   102  H    0.021963
   103  H    0.047981
   104  H   -0.000614
   105  H   -0.026845
   106  H   -0.015511
   107  H    0.009797
   108  H   -0.027950
   109  H   -0.028120
   110  H   -0.031834
   111  H    0.034824
   112  H    0.029189
   113  H    0.030413
   114  H   -0.051672
   115  H   -0.072409
   116  H    0.027837
   117  H    0.015039
   118  H   -0.013041
   119  H    0.014551
   120  H   -0.009869
   121  H    0.019166
   122  H    0.016608
   123  H    0.021935
   124  H    0.003769
   125  H   -0.009443
   126  H   -0.017637
   127  H    0.002070
   128  H   -0.013596
   129  H   -0.007808
   130  H   -0.005330
   131  H   -0.004498
   132  H   -0.031545
   133  H    0.049007
   134  H    0.037187
   135  H    0.039018
   136  H    0.020763
   137  H    0.232920
   138  H    0.130616
 Sum of Mulliken charges =   0.00000

 Dipole moment (field-independent basis, Debye):
    X=              2.8540    Y=              4.7581    Z=              0.9876  Tot=              5.6357
 Quadrupole moment (field-independent basis, Debye-Ang):
   XX=           -350.0654   YY=           -389.5574   ZZ=           -393.5375
   XY=            -22.8729   XZ=              3.6748   YZ=             -0.6805

 Normal termination of Gaussian 09 at Wed Jul 31 00:32:16 2019.
