 Gaussian 09, Revision D.01,
 Gaussian 09:  ES64L-G09RevD.01 24-Apr-2013

 --------------------------
 # td=(NStates=1) B3LYP/SVP
 --------------------------

 --
 TD
 --
 Symbolic Z-matrix:
 Charge =  0 Multiplicity = 1

                         Standard orientation:
 ---------------------------------------------------------------------
 Center     Atomic      Atomic             Coordinates (Angstroms)
 Number     Number       Type             X           Y           Z
 ---------------------------------------------------------------------
      1          6           0       -5.071544   -1.959383    0.332882
      2          6           0       -4.726511    2.753975    1.312208
      3          6           0       -9.227628    3.336983   -0.146655
      4          6           0       -9.803923   -1.479396   -0.825130
      5          7           0       -5.181647    0.472169    0.774523
      6          6           0       -4.462231   -0.761818    0.741763
      7          6           0       -3.016029   -0.573414    1.215522
      8          6           0       -3.130268    0.832497    1.918572
      9          6           0       -4.406827    1.383451    1.214075
     10          6           0       -3.266000    0.785173    3.561732
     11          6           0       -2.067756   -0.768751    0.141086
     12          6           0       -0.654698   -0.900235    0.604740
     13          6           0        0.312459   -0.957524   -0.510876
     14          8           0       -0.019822   -1.635883   -1.627480
     15          8           0        1.656021   -0.671662   -0.284313
     16          7           0       -6.970160    2.825729    0.539241
     17          6           0       -5.798613    3.400810    0.976459
     18          6           0       -6.078139    4.777426    0.990726
     19          6           0       -7.412712    4.981975    0.586669
     20          6           0       -7.983057    3.623769    0.247576
     21          6           0       -5.151217    5.881328    1.553648
     22          6           0       -8.159680    6.181897    0.517420
     23          6           0       -8.955583    6.584245   -0.584917
     24          7           0       -9.176491    0.919570   -0.369954
     25          6           0       -9.813707    2.088204   -0.500847
     26          6           0      -11.203685    1.981285   -0.928967
     27          6           0      -11.414014    0.627334   -1.125132
     28          6           0      -10.160023   -0.052948   -0.779206
     29          6           0      -12.196154    2.990105   -1.203875
     30          6           0      -12.509293   -0.246811   -1.589284
     31          6           0      -12.566425   -0.219878   -3.169856
     32          7           0       -7.534628   -1.183546   -0.211756
     33          6           0       -8.604830   -2.033057   -0.621166
     34          6           0       -8.175349   -3.377515   -0.668927
     35          6           0       -6.874740   -3.309000   -0.218856
     36          6           0       -6.481337   -2.005218    0.011652
     37          6           0       -9.070428   -4.572055   -1.059261
     38          6           0       -5.727361   -4.295403    0.012082
     39          8           0       -5.671418   -5.483568   -0.115922
     40          6           0       -4.522097   -3.350761    0.439991
     41          6           0       -3.930167   -3.871700    1.759261
     42          8           0       -4.255493   -3.408315    2.785467
     43          8           0       -3.083486   -5.013624    1.599802
     44          6           0       -2.697164   -5.656212    2.779714
     45          6           0        2.716594   -1.093161   -1.277332
     46          6           0        3.917351   -0.602330   -0.717643
     47          6           0        4.943457    0.028585   -1.315216
     48          6           0        4.788250    0.652747   -2.665013
     49          6           0        6.202861    0.203243   -0.535376
     50          6           0        7.435098   -0.426051   -1.098624
     51          6           0        8.805667   -0.071395   -0.359087
     52          6           0       10.063959   -0.591860   -0.991766
     53          6           0       10.137069   -2.189136   -0.859774
     54          6           0       11.280288   -0.116228   -0.157103
     55          6           0       12.649781   -0.294902   -0.728619
     56          6           0       13.711679    0.149828    0.216005
     57          6           0       15.231783   -0.205043   -0.265495
     58          6           0       15.540930   -1.791445   -0.190531
     59          6           0       16.317772    0.720884    0.479685
     60          6           0       17.692912    0.655662   -0.046965
     61          6           0       18.595966    1.588606    0.815630
     62          6           0       20.008555    1.557437    0.237355
     63          6           0       20.362135    1.952215   -1.247882
     64          6           0       20.984135    2.474381    1.171754
     65          1           0       -4.045170    3.460445    2.080504
     66          1           0       -9.827857    4.318497   -0.271774
     67          1           0      -10.361810   -2.082583   -1.411777
     68          1           0       -2.983911   -1.396958    2.066675
     69          1           0       -2.316822    1.664664    1.847006
     70          1           0       -2.416546    0.312643    3.864393
     71          1           0       -3.459441    1.824044    4.050087
     72          1           0       -4.154597   -0.215685    3.634416
     73          1           0       -1.990846   -1.765949   -0.506864
     74          1           0       -2.431761    0.016296   -0.748840
     75          1           0       -0.280090   -0.069728    1.302199
     76          1           0       -0.423632   -1.935982    1.184357
     77          1           0       -4.445326    6.032048    1.024248
     78          1           0       -5.759857    6.790056    1.464819
     79          1           0       -5.254184    5.384945    2.605792
     80          1           0       -7.992564    6.673155    1.535451
     81          1           0       -8.935987    5.790288   -1.398502
     82          1           0       -9.414885    7.530982   -0.341567
     83          1           0      -12.216847    3.766889   -0.357268
     84          1           0      -12.230010    3.762631   -2.067311
     85          1           0      -13.195557    2.491625   -1.365867
     86          1           0      -12.669016   -1.275065   -1.031703
     87          1           0      -13.493287    0.297104   -1.393754
     88          1           0      -12.441557    0.826674   -3.842001
     89          1           0      -11.415963   -0.600919   -3.573660
     90          1           0      -13.238429   -0.889786   -3.651069
     91          1           0      -10.030055   -4.699511   -0.678954
     92          1           0       -9.586822   -4.433871   -1.939565
     93          1           0       -8.545339   -5.484519   -0.975102
     94          1           0       -3.758274   -3.454855   -0.339955
     95          1           0       -2.327545   -6.719915    2.370838
     96          1           0       -1.839369   -4.993782    3.203342
     97          1           0       -3.667775   -5.806518    3.358729
     98          1           0        2.536175   -2.205585   -1.265780
     99          1           0        2.517523   -0.678324   -2.162900
    100          1           0        3.976362   -0.973039    0.236577
    101          1           0        5.164347    1.645033   -2.732728
    102          1           0        5.510883    0.158676   -3.354699
    103          1           0        3.762035    0.588320   -3.114318
    104          1           0        6.511340    1.380828   -0.488655
    105          1           0        6.161623   -0.115991    0.474147
    106          1           0        7.432489   -1.567507   -1.124057
    107          1           0        7.529806   -0.204381   -2.248503
    108          1           0        8.803849    0.906541   -0.395768
    109          1           0        8.840206   -0.391269    0.576914
    110          1           0       10.275735   -0.340534   -2.022029
    111          1           0        9.177564   -2.645633   -1.301571
    112          1           0       11.016884   -2.551879   -1.552226
    113          1           0       10.349372   -2.559999    0.273880
    114          1           0       11.032523    1.084245   -0.179941
    115          1           0       11.446852   -0.474756    0.914936
    116          1           0       12.958638   -1.328831   -1.198678
    117          1           0       12.754368    0.174873   -1.737435
    118          1           0       13.575567    1.209257    0.363877
    119          1           0       13.587771   -0.303007    1.469668
    120          1           0       15.181174   -0.176183   -1.389760
    121          1           0       14.928011   -2.366769   -0.582923
    122          1           0       16.320820   -2.065788   -0.722466
    123          1           0       15.738810   -2.060237    0.776337
    124          1           0       15.789738    1.634427    0.496611
    125          1           0       16.197799    0.475149    1.498644
    126          1           0       17.971525   -0.355447    0.037769
    127          1           0       17.750003    0.830276   -1.190017
    128          1           0       18.174357    2.622632    0.678416
    129          1           0       18.595356    1.143705    1.855586
    130          1           0       20.464196    0.480944    0.451454
    131          1           0       20.018409    3.081571   -1.622490
    132          1           0       21.562578    1.889150   -1.001437
    133          1           0       19.921574    1.183952   -1.869036
    134          1           0       20.694228    2.168670    2.223010
    135          1           0       21.953764    2.538081    0.922555
    136          1           0       20.658340    3.442248    1.020884
    137          1           0       -7.056314    1.712405    0.669552
    138          1           0       -7.878148   -0.164729   -0.058494
 ---------------------------------------------------------------------

 SCF Done:  E(RB3LYP) =  -2732.86927282     A.U. after   17 cycles

 Excitation energies and oscillator strengths:

 Excited State   1:      Singlet-A      2.1427 eV  578.62 nm  f=0.1355  <S**2>=0.000
     235 -> 237       -0.17637
     235 -> 238       -0.27870
     236 -> 237        0.59051
     236 -> 238       -0.19551
 This state for optimization and/or second-order correction.
 Total Energy, E(TD-HF/TD-KS) =  -2732.79052839
 Copying the excited state density for this state as the 1-particle RhoCI density.

 The electronic state is 1-A.
 Alpha  occ. eigenvalues --  -19.17493 -19.16611 -19.13774 -19.12946 -19.11205
 Alpha  occ. eigenvalues --  -14.36074 -14.35699 -14.32227 -14.30453 -10.32165
 Alpha  occ. eigenvalues --  -10.32097 -10.28377 -10.25557 -10.23996 -10.23414
 Alpha  occ. eigenvalues --  -10.23289 -10.22879 -10.22761 -10.22533 -10.22525
 Alpha  occ. eigenvalues --  -10.21700 -10.21665 -10.21607 -10.21497 -10.21435
 Alpha  occ. eigenvalues --  -10.21383 -10.21261 -10.21197 -10.21136 -10.21067
 Alpha  occ. eigenvalues --  -10.21049 -10.20993 -10.20974 -10.20942 -10.20750
 Alpha  occ. eigenvalues --  -10.20403 -10.20140 -10.20058 -10.20030 -10.20010
 Alpha  occ. eigenvalues --  -10.19993 -10.19951 -10.19902 -10.19833 -10.19672
 Alpha  occ. eigenvalues --  -10.19624 -10.19517 -10.19422 -10.19377 -10.19252
 Alpha  occ. eigenvalues --  -10.19184 -10.19170 -10.19013 -10.18737 -10.18696
 Alpha  occ. eigenvalues --  -10.18594 -10.18523 -10.18296 -10.18021 -10.17650
 Alpha  occ. eigenvalues --  -10.17271 -10.16669 -10.16335 -10.14276  -1.09259
 Alpha  occ. eigenvalues --   -1.05016  -1.03954  -1.02040  -0.98458  -0.97296
 Alpha  occ. eigenvalues --   -0.94849  -0.94236  -0.92482  -0.84648  -0.83742
 Alpha  occ. eigenvalues --   -0.82278  -0.81999  -0.81701  -0.81379  -0.80898
 Alpha  occ. eigenvalues --   -0.80192  -0.79466  -0.79019  -0.78813  -0.77655
 Alpha  occ. eigenvalues --   -0.76422  -0.76311  -0.75550  -0.75374  -0.74419
 Alpha  occ. eigenvalues --   -0.73766  -0.73150  -0.72731  -0.72595  -0.71018
 Alpha  occ. eigenvalues --   -0.70574  -0.69135  -0.68818  -0.68433  -0.68138
 Alpha  occ. eigenvalues --   -0.66923  -0.66622  -0.65965  -0.65681  -0.65422
 Alpha  occ. eigenvalues --   -0.64464  -0.63124  -0.62289  -0.61302  -0.61243
 Alpha  occ. eigenvalues --   -0.60838  -0.59098  -0.58619  -0.57523  -0.57282
 Alpha  occ. eigenvalues --   -0.57016  -0.56317  -0.56090  -0.55426  -0.55360
 Alpha  occ. eigenvalues --   -0.54565  -0.54198  -0.53881  -0.53505  -0.53371
 Alpha  occ. eigenvalues --   -0.52373  -0.51888  -0.51305  -0.50777  -0.50398
 Alpha  occ. eigenvalues --   -0.50047  -0.49488  -0.48949  -0.48673  -0.48213
 Alpha  occ. eigenvalues --   -0.48116  -0.47894  -0.47557  -0.47429  -0.47274
 Alpha  occ. eigenvalues --   -0.47080  -0.46353  -0.46081  -0.45806  -0.45641
 Alpha  occ. eigenvalues --   -0.45431  -0.45367  -0.45184  -0.44722  -0.44611
 Alpha  occ. eigenvalues --   -0.44422  -0.44276  -0.44055  -0.44027  -0.43568
 Alpha  occ. eigenvalues --   -0.43374  -0.43335  -0.42817  -0.42723  -0.42591
 Alpha  occ. eigenvalues --   -0.42300  -0.42124  -0.41967  -0.41801  -0.41777
 Alpha  occ. eigenvalues --   -0.41430  -0.41160  -0.40851  -0.40643  -0.40103
 Alpha  occ. eigenvalues --   -0.40038  -0.39823  -0.39537  -0.39491  -0.39139
 Alpha  occ. eigenvalues --   -0.39123  -0.38986  -0.38583  -0.38446  -0.38419
 Alpha  occ. eigenvalues --   -0.38290  -0.38217  -0.37986  -0.37805  -0.37575
 Alpha  occ. eigenvalues --   -0.37353  -0.37270  -0.37088  -0.36944  -0.36903
 Alpha  occ. eigenvalues --   -0.36758  -0.36551  -0.36343  -0.36298  -0.36090
 Alpha  occ. eigenvalues --   -0.35992  -0.35558  -0.35163  -0.34901  -0.34587
 Alpha  occ. eigenvalues --   -0.34308  -0.34157  -0.34110  -0.34057  -0.33706
 Alpha  occ. eigenvalues --   -0.33558  -0.33506  -0.32976  -0.32444  -0.32136
 Alpha  occ. eigenvalues --   -0.32099  -0.31530  -0.31315  -0.30898  -0.30620
 Alpha  occ. eigenvalues --   -0.30193  -0.30051  -0.29800  -0.29662  -0.29206
 Alpha  occ. eigenvalues --   -0.28916  -0.28671  -0.28642  -0.28352  -0.27715
 Alpha  occ. eigenvalues --   -0.27578  -0.27040  -0.26253  -0.25974  -0.25640
 Alpha  occ. eigenvalues --   -0.25096  -0.24793  -0.23346  -0.22430  -0.20155
 Alpha  occ. eigenvalues --   -0.18579
 Alpha virt. eigenvalues --   -0.09486  -0.08037  -0.04069  -0.03355  -0.02304
 Alpha virt. eigenvalues --   -0.01362  -0.00061   0.00663   0.02278   0.03053
 Alpha virt. eigenvalues --    0.03695   0.03914   0.04237   0.04244   0.04457

 Mulliken charges:
               1
     1  C   -0.071483
     2  C   -0.146675
     3  C   -0.129617
     4  C    0.003125
     5  N   -0.144789
     6  C   -0.072101
     7  C    0.008303
     8  C   -0.106790
     9  C    0.009839
    10  C    0.004734
    11  C   -0.033213
    12  C    0.026820
    13  C    0.232583
    14  O   -0.363999
    15  O   -0.371118
    16  N   -0.096020
    17  C    0.116444
    18  C   -0.184671
    19  C   -0.004846
    20  C    0.080054
    21  C    0.254552
    22  C   -0.135373
    23  C   -0.000411
    24  N   -0.282936
    25  C    0.100667
    26  C   -0.087915
    27  C   -0.033387
    28  C    0.013102
    29  C    0.008499
    30  C    0.041670
    31  C   -0.088791
    32  N   -0.097920
    33  C    0.039606
    34  C   -0.117907
    35  C   -0.088027
    36  C    0.169180
    37  C    0.216162
    38  C    0.089390
    39  O   -0.133030
    40  C    0.012746
    41  C    0.203785
    42  O   -0.173374
    43  O   -0.342233
    44  C    0.122808
    45  C    0.391471
    46  C   -0.109957
    47  C   -0.070635
    48  C    0.096864
    49  C    0.101265
    50  C   -0.064659
    51  C    0.199893
    52  C   -0.047841
    53  C   -0.064586
    54  C   -0.022696
    55  C    0.016160
    56  C   -0.019615
    57  C   -0.132270
    58  C    0.204987
    59  C    0.112323
    60  C    0.050612
    61  C    0.061849
    62  C   -0.180081
    63  C   -0.035350
    64  C    0.092931
    65  H    0.014637
    66  H   -0.008439
    67  H   -0.049857
    68  H    0.026383
    69  H    0.009608
    70  H    0.005451
    71  H    0.052676
    72  H    0.052565
    73  H    0.065071
    74  H    0.049343
    75  H    0.027693
    76  H    0.077812
    77  H   -0.068921
    78  H   -0.006441
    79  H    0.066069
    80  H    0.033938
    81  H    0.068565
    82  H    0.036152
    83  H    0.022556
    84  H    0.027023
    85  H    0.014802
    86  H    0.046469
    87  H    0.005681
    88  H    0.051039
    89  H    0.007710
    90  H    0.019780
    91  H   -0.024732
    92  H   -0.027441
    93  H    0.029583
    94  H    0.050175
    95  H    0.055298
    96  H    0.043335
    97  H    0.048346
    98  H    0.037320
    99  H   -0.039873
   100  H   -0.051455
   101  H    0.003786
   102  H    0.015242
   103  H    0.029379
   104  H    0.010193
   105  H   -0.013364
   106  H    0.000214
   107  H   -0.002125
   108  H   -0.060043
   109  H   -0.043799
   110  H   -0.015588
   111  H    0.022196
   112  H    0.024854
   113  H    0.035196
   114  H    0.004053
   115  H    0.015940
   116  H   -0.004885
   117  H   -0.015873
   118  H   -0.006214
   119  H    0.004211
   120  H   -0.009981
   121  H   -0.083340
   122  H   -0.047663
   123  H   -0.025711
   124  H   -0.037595
   125  H   -0.032100
   126  H   -0.027606
   127  H    0.004776
   128  H    0.006049
   129  H    0.012671
   130  H    0.006531
   131  H    0.038845
   132  H    0.043626
   133  H    0.025572
   134  H    0.006460
   135  H   -0.022983
   136  H   -0.027671
   137  H    0.195746
   138  H    0.174967
 Sum of Mulliken charges =   0.00000

 Dipole moment (field-independent basis, Debye):
    X=              2.9065    Y=              3.9961    Z=              1.0703  Tot=              5.0558
 Quadrupole moment (field-independent basis, Debye-Ang):
   XX=           -350.0150   YY=           -384.4369   ZZ=           -392.8095
   XY=            -19.8460   XZ=              0.6017   YZ=             -0.7856

 Normal termination of Gaussian 09 at Wed Jul 24 02:41:27 2019.
