 Gaussian 09, Revision D.01,
 Gaussian 09:  ES64L-G09RevD.01 24-Apr-2013

 --------------------------
 # td=(NStates=1) B3LYP/SVP
 --------------------------

 --
 TD
 --
 Symbolic Z-matrix:
 Charge =  0 Multiplicity = 1

                         Standard orientation:
 ---------------------------------------------------------------------
 Center     Atomic      Atomic             Coordinates (Angstroms)
 Number     Number       Type             X           Y           Z
 ---------------------------------------------------------------------
      1          6           0       -5.082538   -2.022102    0.409700
      2          6           0       -4.721099    2.669152    1.446515
      3          6           0       -9.289485    3.393395   -0.112781
      4          6           0       -9.898981   -1.379366   -0.849846
      5          7           0       -5.260775    0.343151    0.751799
      6          6           0       -4.496399   -0.785518    0.760641
      7          6           0       -3.107551   -0.660943    1.183189
      8          6           0       -3.051489    0.796175    1.688478
      9          6           0       -4.465515    1.349191    1.339405
     10          6           0       -2.671776    0.764058    3.216010
     11          6           0       -2.114487   -0.854522   -0.015936
     12          6           0       -0.613085   -0.915987    0.470818
     13          6           0        0.362282   -1.198516   -0.570421
     14          8           0        0.159673   -1.619400   -1.691973
     15          8           0        1.672574   -0.839887   -0.287876
     16          7           0       -6.914295    2.791952    0.433466
     17          6           0       -5.878292    3.399680    0.968390
     18          6           0       -6.176769    4.827018    1.045865
     19          6           0       -7.471021    4.955366    0.595824
     20          6           0       -7.981191    3.707996    0.153304
     21          6           0       -5.127876    5.766598    1.536627
     22          6           0       -8.015851    6.376180    0.411425
     23          6           0       -8.936477    6.767901   -0.500646
     24          7           0       -9.253747    1.032722   -0.493697
     25          6           0       -9.893859    2.145093   -0.482814
     26          6           0      -11.301502    1.981968   -0.927745
     27          6           0      -11.460621    0.680658   -1.095421
     28          6           0      -10.103377    0.044370   -0.814431
     29          6           0      -12.302074    3.071896   -1.040359
     30          6           0      -12.700021   -0.100273   -1.563219
     31          6           0      -12.695290   -0.380127   -3.068664
     32          7           0       -7.493908   -1.202728   -0.200401
     33          6           0       -8.638800   -1.915096   -0.620142
     34          6           0       -8.272970   -3.351121   -0.625241
     35          6           0       -6.971148   -3.403862   -0.225562
     36          6           0       -6.425606   -2.042898   -0.019973
     37          6           0       -9.307433   -4.460888   -1.055319
     38          6           0       -5.868758   -4.326784    0.194354
     39          8           0       -5.741285   -5.538940    0.045169
     40          6           0       -4.621923   -3.463174    0.500517
     41          6           0       -3.937097   -3.871148    1.737030
     42          8           0       -4.057855   -3.382129    2.805754
     43          8           0       -3.104833   -5.026681    1.503523
     44          6           0       -2.563948   -5.528024    2.731069
     45          6           0        2.704058   -1.046107   -1.219353
     46          6           0        4.036269   -0.826311   -0.601077
     47          6           0        4.954601   -0.040270   -1.071644
     48          6           0        4.902561    0.635530   -2.417539
     49          6           0        6.332179    0.144013   -0.328741
     50          6           0        7.534252   -0.360539   -1.071198
     51          6           0        8.844913   -0.206442   -0.303246
     52          6           0       10.148544   -0.785153   -0.947730
     53          6           0        9.963544   -2.301567   -1.039670
     54          6           0       11.262669   -0.270261   -0.051482
     55          6           0       12.601190   -0.708554   -0.680383
     56          6           0       13.839607   -0.073437    0.073141
     57          6           0       15.242513   -0.155601   -0.465178
     58          6           0       15.743321   -1.645932   -0.551612
     59          6           0       16.153772    0.771414    0.453820
     60          6           0       17.661427    0.891640   -0.146703
     61          6           0       18.557684    1.520923    0.887347
     62          6           0       20.065680    1.744609    0.271236
     63          6           0       20.042429    2.548768   -1.052616
     64          6           0       20.955900    2.387028    1.289719
     65          1           0       -4.022341    3.173263    2.017748
     66          1           0       -9.990512    4.311153   -0.171622
     67          1           0      -10.626401   -2.153807   -1.220896
     68          1           0       -2.809905   -1.543772    1.913037
     69          1           0       -2.236413    1.561067    1.274685
     70          1           0       -1.764538    0.177913    3.246030
     71          1           0       -2.472479    1.791492    3.458487
     72          1           0       -3.407458    0.376185    3.943253
     73          1           0       -2.330197   -1.906722   -0.398091
     74          1           0       -2.002198   -0.122145   -0.838329
     75          1           0       -0.245945   -0.099843    1.228689
     76          1           0       -0.633704   -1.693275    1.383829
     77          1           0       -4.338245    5.700012    0.830749
     78          1           0       -5.509525    6.879169    1.331042
     79          1           0       -4.687872    5.532066    2.582035
     80          1           0       -7.734456    7.155221    1.308672
     81          1           0       -9.133257    6.400535   -1.542868
     82          1           0       -9.227428    7.877049   -0.380311
     83          1           0      -12.590061    3.407395   -0.044680
     84          1           0      -12.017217    3.888020   -1.529693
     85          1           0      -13.265313    2.822547   -1.505869
     86          1           0      -12.711334   -0.967825   -0.996658
     87          1           0      -13.606771    0.519181   -1.246354
     88          1           0      -12.834320    0.631295   -3.608294
     89          1           0      -11.710250   -0.823317   -3.491829
     90          1           0      -13.391863   -0.980517   -3.215242
     91          1           0      -10.105976   -4.323572   -0.266205
     92          1           0       -9.604553   -4.370248   -2.083552
     93          1           0       -8.804123   -5.507833   -0.959321
     94          1           0       -3.830154   -3.648166   -0.389037
     95          1           0       -1.837572   -6.182113    2.217487
     96          1           0       -1.948208   -4.681701    3.160127
     97          1           0       -3.163912   -5.794644    3.513507
     98          1           0        2.426272   -1.995259   -1.613930
     99          1           0        2.568706   -0.398039   -2.012137
    100          1           0        4.167735   -1.446288    0.203364
    101          1           0        5.249312    1.775910   -2.213425
    102          1           0        5.588545    0.418249   -3.310709
    103          1           0        3.857188    0.751559   -2.933942
    104          1           0        6.514827    1.109577    0.030330
    105          1           0        6.328180   -0.474327    0.667929
    106          1           0        7.266814   -1.397726   -1.224969
    107          1           0        7.687757    0.297465   -1.997950
    108          1           0        8.899771    0.822957    0.192621
    109          1           0        8.773930   -0.873594    0.719778
    110          1           0       10.165891   -0.461439   -1.923086
    111          1           0        9.067008   -2.542114   -1.609879
    112          1           0       10.886870   -2.643423   -1.626282
    113          1           0        9.840577   -3.013776   -0.172341
    114          1           0       11.223503    0.802308   -0.059488
    115          1           0       11.266178   -0.743100    1.066481
    116          1           0       12.725388   -1.748913   -0.827281
    117          1           0       12.604913   -0.355802   -1.659893
    118          1           0       13.688794    0.984876    0.117267
    119          1           0       13.732489   -0.185917    1.039395
    120          1           0       15.410574    0.321799   -1.410761
    121          1           0       15.024714   -2.175076   -1.329459
    122          1           0       16.814445   -1.604048   -1.019155
    123          1           0       15.738973   -2.274076    0.286687
    124          1           0       15.615313    1.649894    0.532236
    125          1           0       16.215922    0.190006    1.554641
    126          1           0       17.979838   -0.312199   -0.532187
    127          1           0       17.639532    1.178222   -1.126291
    128          1           0       18.113905    2.758515    1.002819
    129          1           0       18.673423    0.940316    1.787790
    130          1           0       20.581999    0.645586    0.039974
    131          1           0       19.682772    3.533697   -0.980154
    132          1           0       20.936986    2.434239   -1.458462
    133          1           0       19.387715    2.149284   -1.867442
    134          1           0       21.143423    1.746344    2.191147
    135          1           0       21.940628    2.740258    0.814292
    136          1           0       20.449208    3.337365    1.552553
    137          1           0       -7.302620    1.887656    0.394972
    138          1           0       -7.420517   -0.295004   -0.206918
 ---------------------------------------------------------------------

 SCF Done:  E(RB3LYP) =  -2733.10055528     A.U. after   17 cycles

 Excitation energies and oscillator strengths:

 Excited State   1:      Singlet-A      2.0562 eV  602.96 nm  f=0.2094  <S**2>=0.000
     235 -> 238       -0.28550
     236 -> 237        0.63516
 This state for optimization and/or second-order correction.
 Total Energy, E(TD-HF/TD-KS) =  -2733.02498970
 Copying the excited state density for this state as the 1-particle RhoCI density.

 The electronic state is 1-A.
 Alpha  occ. eigenvalues --  -19.16657 -19.15618 -19.14178 -19.12425 -19.12072
 Alpha  occ. eigenvalues --  -14.37055 -14.36821 -14.32501 -14.30063 -10.31858
 Alpha  occ. eigenvalues --  -10.31585 -10.28500 -10.24453 -10.24038 -10.23809
 Alpha  occ. eigenvalues --  -10.23311 -10.23265 -10.23217 -10.22817 -10.22527
 Alpha  occ. eigenvalues --  -10.22516 -10.22358 -10.22291 -10.22279 -10.21805
 Alpha  occ. eigenvalues --  -10.21507 -10.21278 -10.21264 -10.21232 -10.21153
 Alpha  occ. eigenvalues --  -10.21151 -10.21108 -10.20927 -10.20926 -10.20782
 Alpha  occ. eigenvalues --  -10.20508 -10.20501 -10.20432 -10.20386 -10.20361
 Alpha  occ. eigenvalues --  -10.20198 -10.19781 -10.19264 -10.19070 -10.18933
 Alpha  occ. eigenvalues --  -10.18919 -10.18872 -10.18868 -10.18817 -10.18723
 Alpha  occ. eigenvalues --  -10.18671 -10.18538 -10.18481 -10.18240 -10.18194
 Alpha  occ. eigenvalues --  -10.18109 -10.17711 -10.17581 -10.17571 -10.17548
 Alpha  occ. eigenvalues --  -10.17490 -10.16852 -10.16493 -10.15950  -1.09048
 Alpha  occ. eigenvalues --   -1.08371  -1.02214  -1.00971  -0.99463  -0.99060
 Alpha  occ. eigenvalues --   -0.98067  -0.95393  -0.93543  -0.84901  -0.82681
 Alpha  occ. eigenvalues --   -0.81936  -0.81710  -0.81337  -0.81103  -0.80335
 Alpha  occ. eigenvalues --   -0.80274  -0.79609  -0.79127  -0.78928  -0.77724
 Alpha  occ. eigenvalues --   -0.77063  -0.76139  -0.75685  -0.75073  -0.74412
 Alpha  occ. eigenvalues --   -0.73337  -0.73096  -0.72280  -0.71534  -0.71150
 Alpha  occ. eigenvalues --   -0.70324  -0.69593  -0.68844  -0.68239  -0.68126
 Alpha  occ. eigenvalues --   -0.67250  -0.67094  -0.66427  -0.66050  -0.65205
 Alpha  occ. eigenvalues --   -0.64493  -0.62850  -0.62625  -0.62403  -0.61359
 Alpha  occ. eigenvalues --   -0.60943  -0.59122  -0.58581  -0.58492  -0.57238
 Alpha  occ. eigenvalues --   -0.57095  -0.57071  -0.56153  -0.56095  -0.55663
 Alpha  occ. eigenvalues --   -0.55506  -0.55206  -0.54021  -0.53684  -0.52976
 Alpha  occ. eigenvalues --   -0.52741  -0.52555  -0.52069  -0.51738  -0.50468
 Alpha  occ. eigenvalues --   -0.49780  -0.49630  -0.48869  -0.48761  -0.48301
 Alpha  occ. eigenvalues --   -0.47544  -0.47336  -0.47236  -0.47140  -0.46904
 Alpha  occ. eigenvalues --   -0.46434  -0.46091  -0.45894  -0.45740  -0.45514
 Alpha  occ. eigenvalues --   -0.45298  -0.45111  -0.44999  -0.44730  -0.44526
 Alpha  occ. eigenvalues --   -0.44481  -0.44336  -0.44153  -0.43886  -0.43759
 Alpha  occ. eigenvalues --   -0.43479  -0.43297  -0.43122  -0.42751  -0.42656
 Alpha  occ. eigenvalues --   -0.42493  -0.41941  -0.41754  -0.41561  -0.41427
 Alpha  occ. eigenvalues --   -0.41334  -0.41090  -0.41052  -0.40878  -0.40494
 Alpha  occ. eigenvalues --   -0.40464  -0.40184  -0.39698  -0.39660  -0.39496
 Alpha  occ. eigenvalues --   -0.39299  -0.39165  -0.39114  -0.38895  -0.38788
 Alpha  occ. eigenvalues --   -0.38469  -0.38186  -0.37967  -0.37874  -0.37769
 Alpha  occ. eigenvalues --   -0.37437  -0.37320  -0.37113  -0.37019  -0.36902
 Alpha  occ. eigenvalues --   -0.36702  -0.36552  -0.36275  -0.36202  -0.35980
 Alpha  occ. eigenvalues --   -0.35937  -0.35608  -0.35299  -0.34930  -0.34544
 Alpha  occ. eigenvalues --   -0.34365  -0.34285  -0.34191  -0.33838  -0.33802
 Alpha  occ. eigenvalues --   -0.33633  -0.33335  -0.33040  -0.32828  -0.32729
 Alpha  occ. eigenvalues --   -0.32584  -0.31599  -0.31545  -0.31340  -0.31001
 Alpha  occ. eigenvalues --   -0.30696  -0.30672  -0.30607  -0.29742  -0.29702
 Alpha  occ. eigenvalues --   -0.29099  -0.29007  -0.28836  -0.28076  -0.27927
 Alpha  occ. eigenvalues --   -0.27721  -0.27396  -0.27148  -0.26434  -0.26281
 Alpha  occ. eigenvalues --   -0.25406  -0.25236  -0.24582  -0.23439  -0.20343
 Alpha  occ. eigenvalues --   -0.18652
 Alpha virt. eigenvalues --   -0.10130  -0.07667  -0.04799  -0.02516  -0.01596
 Alpha virt. eigenvalues --   -0.01058   0.00010   0.00369   0.01448   0.03587
 Alpha virt. eigenvalues --    0.03938   0.04121   0.04407   0.04502   0.04636

 Mulliken charges:
               1
     1  C   -0.000713
     2  C   -0.053242
     3  C   -0.072341
     4  C   -0.090477
     5  N   -0.206192
     6  C   -0.026001
     7  C   -0.056632
     8  C   -0.113770
     9  C    0.087419
    10  C    0.074784
    11  C    0.041189
    12  C   -0.069339
    13  C    0.216353
    14  O   -0.236305
    15  O   -0.352410
    16  N   -0.017010
    17  C    0.086141
    18  C   -0.130863
    19  C   -0.001568
    20  C    0.040548
    21  C    0.092082
    22  C   -0.065825
    23  C   -0.077722
    24  N   -0.138067
    25  C   -0.016621
    26  C   -0.123900
    27  C   -0.142904
    28  C    0.046779
    29  C    0.178794
    30  C    0.086303
    31  C    0.082130
    32  N    0.028163
    33  C    0.057320
    34  C   -0.181111
    35  C   -0.000220
    36  C    0.047042
    37  C    0.069737
    38  C    0.095172
    39  O   -0.175048
    40  C   -0.023752
    41  C    0.184035
    42  O   -0.181591
    43  O   -0.358971
    44  C    0.225829
    45  C    0.367548
    46  C   -0.062200
    47  C   -0.028875
    48  C   -0.040208
    49  C    0.050667
    50  C    0.057745
    51  C   -0.081243
    52  C    0.010566
    53  C   -0.004489
    54  C    0.028850
    55  C    0.096581
    56  C    0.135733
    57  C   -0.047830
    58  C    0.005790
    59  C   -0.001251
    60  C    0.001079
    61  C    0.047368
    62  C   -0.169598
    63  C    0.099702
    64  C    0.050431
    65  H   -0.070526
    66  H    0.014055
    67  H    0.007781
    68  H    0.050791
    69  H    0.033622
    70  H    0.003945
    71  H   -0.002689
    72  H    0.031253
    73  H    0.028899
    74  H    0.032308
    75  H    0.044535
    76  H    0.041647
    77  H    0.013916
    78  H    0.026631
    79  H    0.056016
    80  H    0.053137
    81  H    0.053218
    82  H    0.031656
    83  H    0.007662
    84  H   -0.028033
    85  H   -0.005872
    86  H   -0.022469
    87  H    0.004810
    88  H    0.019887
    89  H    0.021364
    90  H   -0.046837
    91  H    0.050764
    92  H    0.041717
    93  H    0.054025
    94  H    0.099176
    95  H    0.036801
    96  H   -0.000061
    97  H    0.016928
    98  H   -0.006164
    99  H   -0.052568
   100  H   -0.048773
   101  H    0.016663
   102  H    0.052396
   103  H    0.033728
   104  H   -0.017265
   105  H   -0.006173
   106  H    0.006279
   107  H    0.006790
   108  H   -0.004380
   109  H   -0.012263
   110  H   -0.036221
   111  H    0.001327
   112  H    0.011172
   113  H    0.015995
   114  H   -0.009184
   115  H    0.021950
   116  H   -0.013521
   117  H   -0.046072
   118  H   -0.055847
   119  H   -0.076274
   120  H   -0.024897
   121  H    0.012315
   122  H    0.014952
   123  H    0.002407
   124  H   -0.016010
   125  H    0.010144
   126  H   -0.005247
   127  H   -0.031443
   128  H    0.018965
   129  H    0.010818
   130  H    0.005553
   131  H   -0.004976
   132  H   -0.028009
   133  H   -0.004924
   134  H    0.020478
   135  H    0.008902
   136  H   -0.004707
   137  H    0.128704
   138  H    0.061732
 Sum of Mulliken charges =   0.00000

 Dipole moment (field-independent basis, Debye):
    X=              0.8217    Y=              4.8014    Z=              0.3810  Tot=              4.8861
 Quadrupole moment (field-independent basis, Debye-Ang):
   XX=           -351.7788   YY=           -387.1000   ZZ=           -392.7600
   XY=            -14.2804   XZ=              1.8786   YZ=             -3.8555

 Normal termination of Gaussian 09 at Fri Aug  2 19:27:46 2019.
