 Gaussian 09, Revision D.01,
 Gaussian 09:  ES64L-G09RevD.01 24-Apr-2013

 --------------------------
 # td=(NStates=1) B3LYP/SVP
 --------------------------

 --
 TD
 --
 Symbolic Z-matrix:
 Charge =  0 Multiplicity = 1

                         Standard orientation:
 ---------------------------------------------------------------------
 Center     Atomic      Atomic             Coordinates (Angstroms)
 Number     Number       Type             X           Y           Z
 ---------------------------------------------------------------------
      1          6           0       -5.132952   -1.945457    0.461839
      2          6           0       -4.783935    2.743382    1.285260
      3          6           0       -9.354155    3.322639   -0.279192
      4          6           0       -9.896870   -1.522466   -0.722457
      5          7           0       -5.112436    0.388550    0.658320
      6          6           0       -4.475300   -0.793584    0.732507
      7          6           0       -3.077444   -0.615378    1.189105
      8          6           0       -3.121031    0.838899    1.745138
      9          6           0       -4.428721    1.375306    1.227184
     10          6           0       -2.904921    0.907654    3.293143
     11          6           0       -2.107879   -0.820314   -0.024185
     12          6           0       -0.594330   -0.715937    0.466501
     13          6           0        0.387932   -0.876539   -0.718893
     14          8           0        0.232259   -1.064905   -1.891384
     15          8           0        1.674610   -0.660290   -0.221755
     16          7           0       -7.055124    2.784219    0.447330
     17          6           0       -5.905579    3.452572    0.844326
     18          6           0       -6.201243    4.863372    1.023409
     19          6           0       -7.471732    4.971964    0.454830
     20          6           0       -8.066262    3.676493    0.176381
     21          6           0       -5.196246    5.827982    1.528766
     22          6           0       -8.069928    6.306300    0.293039
     23          6           0       -8.993501    6.651053   -0.643187
     24          7           0       -9.153422    0.822335   -0.337611
     25          6           0       -9.910954    2.018911   -0.393400
     26          6           0      -11.269005    1.800751   -0.833489
     27          6           0      -11.404767    0.518379   -1.012800
     28          6           0      -10.080447   -0.118395   -0.801547
     29          6           0      -12.228608    2.943428   -1.116964
     30          6           0      -12.558194   -0.244493   -1.539747
     31          6           0      -12.578156   -0.487676   -3.033613
     32          7           0       -7.542307   -1.331076   -0.050248
     33          6           0       -8.692485   -2.029293   -0.389333
     34          6           0       -8.293471   -3.412030   -0.494140
     35          6           0       -7.017557   -3.510429   -0.209022
     36          6           0       -6.510318   -2.170740    0.171475
     37          6           0       -9.187681   -4.564834   -0.914941
     38          6           0       -5.787370   -4.310011    0.047282
     39          8           0       -5.684721   -5.504506   -0.146143
     40          6           0       -4.542252   -3.419701    0.470280
     41          6           0       -4.046511   -3.869838    1.840062
     42          8           0       -4.326467   -3.410273    2.858297
     43          8           0       -3.095268   -4.792069    1.625152
     44          6           0       -2.402517   -5.376578    2.674849
     45          6           0        2.626951   -0.898335   -1.271363
     46          6           0        3.971273   -0.652965   -0.640979
     47          6           0        4.969702    0.116415   -1.046212
     48          6           0        4.935812    0.820272   -2.417671
     49          6           0        6.313840    0.250624   -0.310884
     50          6           0        7.510936   -0.217613   -1.146709
     51          6           0        8.828031   -0.145897   -0.251662
     52          6           0       10.092307   -0.714599   -0.931248
     53          6           0       10.079079   -2.244155   -1.113643
     54          6           0       11.339980   -0.226584   -0.028334
     55          6           0       12.686778   -0.485329   -0.770186
     56          6           0       13.889413   -0.118650    0.151139
     57          6           0       15.314767   -0.244902   -0.518929
     58          6           0       15.555956   -1.707635   -1.005291
     59          6           0       16.357813    0.442950    0.431788
     60          6           0       17.684470    0.642370   -0.150203
     61          6           0       18.543707    1.558083    0.815919
     62          6           0       20.067655    1.520850    0.462560
     63          6           0       20.324129    2.213063   -0.921455
     64          6           0       20.779627    2.276365    1.616056
     65          1           0       -3.993652    3.413577    1.826143
     66          1           0      -10.109410    4.123890   -0.284306
     67          1           0      -10.699875   -2.144622   -1.082400
     68          1           0       -2.849835   -1.157018    2.104569
     69          1           0       -2.382933    1.417929    1.304358
     70          1           0       -2.013711    0.308540    3.644336
     71          1           0       -3.023924    2.092707    3.574808
     72          1           0       -3.867395    0.283425    3.667839
     73          1           0       -2.048748   -1.783546   -0.672845
     74          1           0       -2.369817   -0.109812   -0.856475
     75          1           0       -0.283193    0.314661    0.771611
     76          1           0       -0.431854   -1.462276    1.242972
     77          1           0       -4.327116    5.950605    0.979272
     78          1           0       -5.496242    7.022113    1.775314
     79          1           0       -4.724615    5.415646    2.609553
     80          1           0       -7.768639    6.993624    1.008952
     81          1           0       -9.256921    5.923546   -1.490764
     82          1           0       -9.631070    7.617735   -0.627794
     83          1           0      -12.391017    3.873445   -0.434573
     84          1           0      -11.928226    3.494630   -1.842649
     85          1           0      -13.339678    2.859667   -1.448767
     86          1           0      -12.873036   -1.283451   -1.076255
     87          1           0      -13.469684    0.339893   -1.373496
     88          1           0      -12.600478    0.232821   -3.669725
     89          1           0      -11.809240   -1.394856   -3.231344
     90          1           0      -13.495100   -1.230135   -3.374851
     91          1           0      -10.118322   -4.426850   -0.391109
     92          1           0       -9.565477   -4.747845   -1.952806
     93          1           0       -8.787708   -5.562551   -0.427670
     94          1           0       -3.910913   -3.776243   -0.460155
     95          1           0       -1.657655   -6.039146    2.215873
     96          1           0       -1.742450   -4.635851    3.236315
     97          1           0       -3.042546   -5.981944    3.391234
     98          1           0        2.461856   -1.929665   -1.649616
     99          1           0        2.262508   -0.383019   -2.274815
    100          1           0        4.201844   -1.141140    0.303794
    101          1           0        5.777601    1.826392   -2.280531
    102          1           0        5.157446    0.011313   -3.319489
    103          1           0        3.816365    1.348437   -2.723952
    104          1           0        6.505817    1.248277    0.080244
    105          1           0        6.230843   -0.206409    0.703044
    106          1           0        7.262371   -1.232297   -1.537808
    107          1           0        7.505867    0.196789   -2.150907
    108          1           0        9.037199    0.826252    0.025660
    109          1           0        8.465935   -0.524802    0.661777
    110          1           0       10.205614   -0.244813   -1.953572
    111          1           0        9.136296   -2.521507   -1.698783
    112          1           0       10.984006   -2.638625   -1.574487
    113          1           0       10.104537   -2.672596   -0.094975
    114          1           0       11.309393    0.925355   -0.059164
    115          1           0       11.340220   -0.457915    1.091908
    116          1           0       12.819204   -1.646487   -1.016552
    117          1           0       12.581261    0.020111   -1.762855
    118          1           0       13.893655    1.013941    0.588677
    119          1           0       13.854903   -0.694987    1.061065
    120          1           0       15.282024    0.518490   -1.476210
    121          1           0       14.768467   -2.313433   -1.589485
    122          1           0       16.450987   -1.687993   -1.380999
    123          1           0       15.603417   -2.262239   -0.028636
    124          1           0       15.872406    1.224974    0.793874
    125          1           0       16.205702   -0.322627    1.493322
    126          1           0       18.213083   -0.312531   -0.487530
    127          1           0       17.675714    1.072005   -1.159614
    128          1           0       18.172206    2.579124    0.785548
    129          1           0       18.407074    1.260328    1.834176
    130          1           0       20.509318    0.510749    0.501900
    131          1           0       20.056889    3.321776   -0.982185
    132          1           0       21.408101    2.218316   -1.139598
    133          1           0       19.931406    1.635098   -1.887960
    134          1           0       20.726085    1.878371    2.554967
    135          1           0       21.918937    2.212504    1.430637
    136          1           0       20.342349    3.055807    1.883439
    137          1           0       -7.054371    1.759592    0.218340
    138          1           0       -7.561350   -0.203393    0.237386
 ---------------------------------------------------------------------

 SCF Done:  E(RB3LYP) =  -2733.06742321     A.U. after   16 cycles

 Excitation energies and oscillator strengths:

 Excited State   1:      Singlet-A      2.0778 eV  596.72 nm  f=0.1553  <S**2>=0.000
     235 -> 237       -0.12163
     235 -> 238        0.30314
     236 -> 237        0.61514
     236 -> 238        0.11394
 This state for optimization and/or second-order correction.
 Total Energy, E(TD-HF/TD-KS) =  -2732.99106658
 Copying the excited state density for this state as the 1-particle RhoCI density.

 The electronic state is 1-A.
 Alpha  occ. eigenvalues --  -19.17536 -19.17031 -19.13849 -19.13201 -19.11894
 Alpha  occ. eigenvalues --  -14.37213 -14.37086 -14.31899 -14.30997 -10.31908
 Alpha  occ. eigenvalues --  -10.31685 -10.28058 -10.25114 -10.24621 -10.24106
 Alpha  occ. eigenvalues --  -10.24043 -10.23611 -10.22998 -10.22937 -10.22835
 Alpha  occ. eigenvalues --  -10.22569 -10.22509 -10.22196 -10.21727 -10.21708
 Alpha  occ. eigenvalues --  -10.21670 -10.21468 -10.21387 -10.21165 -10.21079
 Alpha  occ. eigenvalues --  -10.20989 -10.20664 -10.20523 -10.20488 -10.20337
 Alpha  occ. eigenvalues --  -10.20187 -10.20089 -10.20046 -10.19962 -10.19770
 Alpha  occ. eigenvalues --  -10.19735 -10.19713 -10.19706 -10.19552 -10.19467
 Alpha  occ. eigenvalues --  -10.19310 -10.19136 -10.19130 -10.19127 -10.18996
 Alpha  occ. eigenvalues --  -10.18975 -10.18919 -10.18915 -10.18782 -10.18702
 Alpha  occ. eigenvalues --  -10.18460 -10.18434 -10.18212 -10.18122 -10.17946
 Alpha  occ. eigenvalues --  -10.17890 -10.17541 -10.17271 -10.15735  -1.11576
 Alpha  occ. eigenvalues --   -1.09551  -1.03703  -1.02606  -1.00913  -0.98084
 Alpha  occ. eigenvalues --   -0.97815  -0.95549  -0.92415  -0.83808  -0.81860
 Alpha  occ. eigenvalues --   -0.81650  -0.81124  -0.81106  -0.80848  -0.80256
 Alpha  occ. eigenvalues --   -0.80030  -0.79852  -0.79403  -0.78854  -0.77463
 Alpha  occ. eigenvalues --   -0.76570  -0.75984  -0.75669  -0.74721  -0.74290
 Alpha  occ. eigenvalues --   -0.73966  -0.72986  -0.72043  -0.70916  -0.70540
 Alpha  occ. eigenvalues --   -0.69971  -0.69574  -0.68682  -0.68505  -0.67862
 Alpha  occ. eigenvalues --   -0.67294  -0.66646  -0.65876  -0.65363  -0.64722
 Alpha  occ. eigenvalues --   -0.64340  -0.62370  -0.61966  -0.61805  -0.61427
 Alpha  occ. eigenvalues --   -0.60972  -0.59728  -0.59094  -0.57794  -0.57566
 Alpha  occ. eigenvalues --   -0.57170  -0.56596  -0.56249  -0.56094  -0.55727
 Alpha  occ. eigenvalues --   -0.55313  -0.55233  -0.53876  -0.53747  -0.53090
 Alpha  occ. eigenvalues --   -0.52832  -0.52196  -0.51644  -0.50778  -0.50203
 Alpha  occ. eigenvalues --   -0.49954  -0.49745  -0.49494  -0.48902  -0.48134
 Alpha  occ. eigenvalues --   -0.47527  -0.47267  -0.46951  -0.46763  -0.46633
 Alpha  occ. eigenvalues --   -0.46381  -0.46111  -0.46008  -0.45783  -0.45530
 Alpha  occ. eigenvalues --   -0.45503  -0.45265  -0.45100  -0.44827  -0.44714
 Alpha  occ. eigenvalues --   -0.44367  -0.43957  -0.43771  -0.43688  -0.43613
 Alpha  occ. eigenvalues --   -0.43496  -0.43115  -0.42885  -0.42832  -0.42401
 Alpha  occ. eigenvalues --   -0.42287  -0.42148  -0.41984  -0.41560  -0.41395
 Alpha  occ. eigenvalues --   -0.41040  -0.40929  -0.40561  -0.40284  -0.40069
 Alpha  occ. eigenvalues --   -0.39889  -0.39772  -0.39690  -0.39464  -0.39222
 Alpha  occ. eigenvalues --   -0.38865  -0.38756  -0.38646  -0.38611  -0.38230
 Alpha  occ. eigenvalues --   -0.37882  -0.37718  -0.37626  -0.37469  -0.37343
 Alpha  occ. eigenvalues --   -0.37104  -0.37092  -0.36999  -0.36951  -0.36650
 Alpha  occ. eigenvalues --   -0.36465  -0.36259  -0.36044  -0.36026  -0.35838
 Alpha  occ. eigenvalues --   -0.35608  -0.35541  -0.35078  -0.34866  -0.34850
 Alpha  occ. eigenvalues --   -0.34599  -0.34386  -0.34226  -0.34100  -0.33820
 Alpha  occ. eigenvalues --   -0.33653  -0.33280  -0.33233  -0.32937  -0.32497
 Alpha  occ. eigenvalues --   -0.32375  -0.31920  -0.31880  -0.31113  -0.31030
 Alpha  occ. eigenvalues --   -0.30980  -0.30811  -0.30702  -0.30257  -0.30156
 Alpha  occ. eigenvalues --   -0.29920  -0.29114  -0.28998  -0.28515  -0.28243
 Alpha  occ. eigenvalues --   -0.27499  -0.27277  -0.27240  -0.26759  -0.26421
 Alpha  occ. eigenvalues --   -0.24788  -0.24677  -0.23927  -0.23774  -0.20214
 Alpha  occ. eigenvalues --   -0.18901
 Alpha virt. eigenvalues --   -0.10121  -0.08011  -0.04055  -0.01743  -0.00193
 Alpha virt. eigenvalues --    0.00073   0.00475   0.00820   0.02057   0.02802
 Alpha virt. eigenvalues --    0.03458   0.03742   0.04095   0.04564   0.04784

 Mulliken charges:
               1
     1  C    0.104878
     2  C   -0.078934
     3  C   -0.079119
     4  C   -0.109927
     5  N   -0.156257
     6  C   -0.128234
     7  C    0.030338
     8  C   -0.009834
     9  C   -0.021333
    10  C   -0.021033
    11  C   -0.000779
    12  C    0.032014
    13  C    0.175759
    14  O   -0.216487
    15  O   -0.339735
    16  N   -0.098697
    17  C    0.085727
    18  C   -0.061044
    19  C    0.011012
    20  C    0.119368
    21  C   -0.002676
    22  C   -0.010471
    23  C   -0.076481
    24  N   -0.311308
    25  C    0.058471
    26  C   -0.035166
    27  C   -0.069102
    28  C    0.054985
    29  C    0.107834
    30  C    0.037442
    31  C    0.010797
    32  N   -0.105846
    33  C    0.174377
    34  C   -0.199743
    35  C    0.106779
    36  C   -0.009662
    37  C    0.069357
    38  C    0.019109
    39  O   -0.173295
    40  C   -0.072906
    41  C    0.208190
    42  O   -0.150966
    43  O   -0.286347
    44  C    0.155918
    45  C    0.213928
    46  C   -0.010701
    47  C   -0.125047
    48  C   -0.108648
    49  C    0.076470
    50  C   -0.001484
    51  C    0.133286
    52  C   -0.067043
    53  C    0.043969
    54  C   -0.038999
    55  C    0.016499
    56  C   -0.006754
    57  C   -0.153246
    58  C    0.107665
    59  C    0.069559
    60  C    0.070637
    61  C    0.041501
    62  C   -0.091777
    63  C   -0.014601
    64  C    0.155894
    65  H   -0.008019
    66  H   -0.011105
    67  H   -0.021197
    68  H   -0.005290
    69  H   -0.031000
    70  H    0.042529
    71  H    0.046280
    72  H    0.042744
    73  H    0.042311
    74  H    0.021847
    75  H    0.047354
    76  H    0.042718
    77  H    0.023718
    78  H    0.046910
    79  H    0.042722
    80  H   -0.024895
    81  H    0.042588
    82  H    0.042017
    83  H    0.011737
    84  H   -0.047732
    85  H    0.013671
    86  H    0.017623
    87  H   -0.008257
    88  H   -0.018247
    89  H    0.010238
    90  H    0.002754
    91  H    0.001492
    92  H    0.043968
    93  H    0.048723
    94  H    0.082830
    95  H    0.026166
    96  H    0.020751
    97  H    0.042531
    98  H    0.009562
    99  H    0.039159
   100  H   -0.020483
   101  H    0.047568
   102  H    0.064680
   103  H    0.053810
   104  H   -0.008478
   105  H   -0.018006
   106  H   -0.010143
   107  H   -0.011796
   108  H   -0.039616
   109  H   -0.030939
   110  H   -0.004211
   111  H    0.021866
   112  H    0.007316
   113  H    0.001880
   114  H    0.002478
   115  H    0.011944
   116  H    0.013559
   117  H    0.004895
   118  H   -0.003489
   119  H   -0.013440
   120  H   -0.004738
   121  H    0.035669
   122  H   -0.041657
   123  H   -0.007894
   124  H   -0.056759
   125  H   -0.012247
   126  H   -0.000978
   127  H   -0.010518
   128  H   -0.006538
   129  H   -0.014758
   130  H   -0.000322
   131  H    0.019787
   132  H   -0.001820
   133  H    0.026082
   134  H   -0.042048
   135  H    0.011426
   136  H   -0.074889
   137  H    0.160043
   138  H    0.225487
 Sum of Mulliken charges =   0.00000

 Dipole moment (field-independent basis, Debye):
    X=              1.6841    Y=              3.6336    Z=              1.1354  Tot=              4.1628
 Quadrupole moment (field-independent basis, Debye-Ang):
   XX=           -348.4437   YY=           -382.6119   ZZ=           -396.4372
   XY=            -21.4904   XZ=             15.5528   YZ=              0.2613

 Normal termination of Gaussian 09 at Fri Jul 26 03:44:31 2019.
