 Gaussian 09, Revision D.01,
 Gaussian 09:  ES64L-G09RevD.01 24-Apr-2013

 --------------------------
 # td=(NStates=1) B3LYP/SVP
 --------------------------

 --
 TD
 --
 Symbolic Z-matrix:
 Charge =  0 Multiplicity = 1

                         Standard orientation:
 ---------------------------------------------------------------------
 Center     Atomic      Atomic             Coordinates (Angstroms)
 Number     Number       Type             X           Y           Z
 ---------------------------------------------------------------------
      1          6           0       -5.045744   -2.020033    0.487081
      2          6           0       -4.775809    2.719833    1.262651
      3          6           0       -9.376756    3.275023   -0.156131
      4          6           0       -9.792461   -1.461544   -0.947794
      5          7           0       -5.093434    0.381862    0.697708
      6          6           0       -4.418790   -0.748897    0.815698
      7          6           0       -2.894354   -0.592052    1.325005
      8          6           0       -2.957865    0.922131    1.691315
      9          6           0       -4.325483    1.381892    1.199934
     10          6           0       -2.823679    1.123493    3.243129
     11          6           0       -1.982622   -0.843214    0.041353
     12          6           0       -0.581058   -0.754328    0.525743
     13          6           0        0.502206   -0.981203   -0.662625
     14          8           0        0.145881   -1.243868   -1.745094
     15          8           0        1.734701   -0.793877   -0.245709
     16          7           0       -7.038674    2.785707    0.401619
     17          6           0       -5.937349    3.381218    0.985973
     18          6           0       -6.180375    4.790422    1.000293
     19          6           0       -7.587490    4.936969    0.584247
     20          6           0       -8.010061    3.673653    0.168679
     21          6           0       -5.343419    5.884929    1.460574
     22          6           0       -8.335111    6.299441    0.432041
     23          6           0       -9.253585    6.506382   -0.584723
     24          7           0       -9.234346    0.821438   -0.482747
     25          6           0       -9.960565    2.026480   -0.487657
     26          6           0      -11.278193    1.840553   -0.812492
     27          6           0      -11.436910    0.453189   -0.986114
     28          6           0      -10.058287   -0.113594   -0.795418
     29          6           0      -12.250792    2.888490   -0.969102
     30          6           0      -12.613550   -0.312468   -1.624488
     31          6           0      -12.604837   -0.579038   -3.077839
     32          7           0       -7.458665   -1.314967   -0.236410
     33          6           0       -8.537047   -2.135162   -0.660818
     34          6           0       -8.243207   -3.518861   -0.606626
     35          6           0       -6.780165   -3.416993   -0.295128
     36          6           0       -6.399781   -2.113461    0.039125
     37          6           0       -9.066362   -4.563813   -1.074974
     38          6           0       -5.643387   -4.319846   -0.032695
     39          8           0       -5.583688   -5.512598   -0.193418
     40          6           0       -4.397365   -3.434224    0.389530
     41          6           0       -3.991477   -3.811244    1.720357
     42          8           0       -4.422103   -3.416094    2.757298
     43          8           0       -3.152908   -4.823800    1.648226
     44          6           0       -2.661231   -5.475314    2.924426
     45          6           0        2.779159   -0.950853   -1.262692
     46          6           0        4.090215   -0.646956   -0.625747
     47          6           0        4.934555    0.302760   -0.969177
     48          6           0        4.818214    1.288968   -2.043050
     49          6           0        6.283405    0.372542   -0.126102
     50          6           0        7.484463   -0.145196   -0.903342
     51          6           0        8.802806   -0.154610   -0.109501
     52          6           0       10.030159   -0.690529   -0.687176
     53          6           0       10.085128   -2.238589   -0.892345
     54          6           0       11.257270   -0.214876    0.053751
     55          6           0       12.621410   -0.452735   -0.667040
     56          6           0       13.785207   -0.084796    0.261259
     57          6           0       15.144878   -0.098121   -0.619467
     58          6           0       15.539732   -1.597537   -1.140604
     59          6           0       16.223742    0.458832    0.413901
     60          6           0       17.612170    0.569759   -0.093425
     61          6           0       18.646871    1.225662    0.754575
     62          6           0       20.139459    1.442257    0.062359
     63          6           0       20.170280    2.583672   -1.158866
     64          6           0       21.003604    1.954876    1.332658
     65          1           0       -4.060962    3.394930    1.769519
     66          1           0      -10.145859    4.080917   -0.457792
     67          1           0      -10.699904   -2.241232   -1.178944
     68          1           0       -2.750497   -1.077016    2.215691
     69          1           0       -2.142410    1.555078    1.085095
     70          1           0       -1.782277    0.687448    3.519316
     71          1           0       -2.849956    2.147949    3.594610
     72          1           0       -3.595747    0.677754    3.569359
     73          1           0       -2.090725   -2.073711   -0.201226
     74          1           0       -2.009580   -0.124818   -0.655268
     75          1           0       -0.050788    0.397435    0.765783
     76          1           0       -0.285084   -1.401078    1.343996
     77          1           0       -4.776481    6.412712    0.561727
     78          1           0       -6.127090    6.776665    1.956462
     79          1           0       -4.417874    5.217956    2.051731
     80          1           0       -8.296307    7.207044    1.069783
     81          1           0       -9.501862    5.914328   -1.368504
     82          1           0       -9.626259    7.457940   -0.407793
     83          1           0      -12.520256    3.585415   -0.082132
     84          1           0      -11.847511    3.478993   -1.771752
     85          1           0      -13.304047    2.328479   -1.387063
     86          1           0      -12.621372   -1.314899   -1.228100
     87          1           0      -13.596796    0.191887   -1.303083
     88          1           0      -12.377149    0.521329   -3.688919
     89          1           0      -11.984671   -1.348204   -3.580078
     90          1           0      -13.702751   -0.915862   -3.293595
     91          1           0      -10.176501   -4.593075   -0.633714
     92          1           0       -9.229775   -4.643285   -2.171051
     93          1           0       -8.511988   -5.534955   -0.704594
     94          1           0       -3.777561   -3.627202   -0.426536
     95          1           0       -1.706409   -6.056938    2.460050
     96          1           0       -2.371202   -4.832755    3.808385
     97          1           0       -3.537930   -6.306057    3.076481
     98          1           0        2.395850   -1.926615   -1.697851
     99          1           0        2.471760   -0.159141   -2.245514
    100          1           0        4.218912   -1.148488    0.345864
    101          1           0        4.882739    2.385687   -1.697794
    102          1           0        5.861373    1.286290   -2.838695
    103          1           0        3.760439    1.163623   -2.703522
    104          1           0        6.449421    1.337209    0.154542
    105          1           0        6.225667   -0.376888    0.742000
    106          1           0        7.070703   -1.114431   -1.222272
    107          1           0        7.749758    0.328196   -1.808938
    108          1           0        8.863212    0.988757    0.332987
    109          1           0        8.595756   -0.890545    0.903455
    110          1           0       10.220059   -0.344932   -1.627775
    111          1           0        9.193819   -2.664494   -1.420182
    112          1           0       10.878527   -2.713602   -1.302247
    113          1           0       10.061380   -2.509997    0.053414
    114          1           0       11.061102    0.764283    0.302439
    115          1           0       11.118821   -0.957827    1.054810
    116          1           0       12.687036   -1.529346   -0.971675
    117          1           0       12.413104    0.116532   -1.670789
    118          1           0       13.586493    1.004175    0.442796
    119          1           0       14.372883   -0.638436    1.072858
    120          1           0       14.996862    0.563983   -1.570866
    121          1           0       14.801891   -1.872666   -1.969809
    122          1           0       16.559283   -1.740694   -1.579460
    123          1           0       15.302916   -2.327644   -0.340799
    124          1           0       15.809590    1.563255    0.842642
    125          1           0       16.224819   -0.212945    1.375142
    126          1           0       17.736604   -0.444238   -0.505239
    127          1           0       17.658884    1.146478   -0.950391
    128          1           0       18.278580    2.314629    0.835826
    129          1           0       18.930324    0.798331    1.686360
    130          1           0       20.320098    0.237961   -0.167551
    131          1           0       20.199555    3.908221   -0.482025
    132          1           0       21.079175    2.551369   -1.664755
    133          1           0       19.353578    2.409025   -1.877511
    134          1           0       21.234570    0.827970    2.075188
    135          1           0       21.819759    2.220732    0.794275
    136          1           0       20.283130    2.928017    2.019867
    137          1           0       -7.091141    1.724682    0.371465
    138          1           0       -7.619553   -0.336082   -0.444719
 ---------------------------------------------------------------------

 SCF Done:  E(RB3LYP) =  -2732.82166316     A.U. after   18 cycles

 Excitation energies and oscillator strengths:

 Excited State   1:      Singlet-A      1.9901 eV  623.00 nm  f=0.1399  <S**2>=0.000
     235 -> 237       -0.41669
     235 -> 238        0.20208
     236 -> 237        0.47331
     236 -> 238        0.23677
 This state for optimization and/or second-order correction.
 Total Energy, E(TD-HF/TD-KS) =  -2732.74852824
 Copying the excited state density for this state as the 1-particle RhoCI density.

 The electronic state is 1-A.
 Alpha  occ. eigenvalues --  -19.17814 -19.16955 -19.12262 -19.12119 -19.11042
 Alpha  occ. eigenvalues --  -14.36622 -14.36142 -14.32553 -14.29096 -10.30734
 Alpha  occ. eigenvalues --  -10.30166 -10.27590 -10.27246 -10.26745 -10.23743
 Alpha  occ. eigenvalues --  -10.23414 -10.23368 -10.23341 -10.23245 -10.23192
 Alpha  occ. eigenvalues --  -10.22979 -10.22948 -10.22089 -10.22038 -10.22032
 Alpha  occ. eigenvalues --  -10.21722 -10.21687 -10.21239 -10.21164 -10.21110
 Alpha  occ. eigenvalues --  -10.21084 -10.20930 -10.20908 -10.20831 -10.20788
 Alpha  occ. eigenvalues --  -10.20775 -10.20743 -10.20730 -10.20658 -10.20640
 Alpha  occ. eigenvalues --  -10.20564 -10.20560 -10.20496 -10.20231 -10.20157
 Alpha  occ. eigenvalues --  -10.19907 -10.19887 -10.19665 -10.19551 -10.19485
 Alpha  occ. eigenvalues --  -10.19480 -10.19431 -10.19377 -10.19368 -10.18716
 Alpha  occ. eigenvalues --  -10.18515 -10.18396 -10.18367 -10.18319 -10.18215
 Alpha  occ. eigenvalues --  -10.17922 -10.17802 -10.16680 -10.16168  -1.10795
 Alpha  occ. eigenvalues --   -1.09324  -1.03068  -1.02358  -0.99813  -0.98440
 Alpha  occ. eigenvalues --   -0.97397  -0.94842  -0.94205  -0.84339  -0.83459
 Alpha  occ. eigenvalues --   -0.82363  -0.81178  -0.80968  -0.80608  -0.80403
 Alpha  occ. eigenvalues --   -0.80328  -0.79936  -0.78500  -0.78238  -0.77495
 Alpha  occ. eigenvalues --   -0.76874  -0.76096  -0.75708  -0.74641  -0.74283
 Alpha  occ. eigenvalues --   -0.73323  -0.72803  -0.72031  -0.71478  -0.70189
 Alpha  occ. eigenvalues --   -0.69469  -0.68719  -0.68576  -0.68089  -0.67649
 Alpha  occ. eigenvalues --   -0.67030  -0.66550  -0.66152  -0.65507  -0.65214
 Alpha  occ. eigenvalues --   -0.63833  -0.62370  -0.62185  -0.61290  -0.60630
 Alpha  occ. eigenvalues --   -0.60166  -0.58561  -0.58204  -0.57387  -0.56907
 Alpha  occ. eigenvalues --   -0.56175  -0.56050  -0.55376  -0.55254  -0.54886
 Alpha  occ. eigenvalues --   -0.54287  -0.53961  -0.53508  -0.53030  -0.52814
 Alpha  occ. eigenvalues --   -0.52786  -0.52258  -0.51237  -0.50975  -0.50670
 Alpha  occ. eigenvalues --   -0.49875  -0.49353  -0.49133  -0.48501  -0.48181
 Alpha  occ. eigenvalues --   -0.48147  -0.47560  -0.47528  -0.47255  -0.47060
 Alpha  occ. eigenvalues --   -0.46850  -0.46674  -0.46431  -0.45929  -0.45733
 Alpha  occ. eigenvalues --   -0.45507  -0.44894  -0.44726  -0.44431  -0.44306
 Alpha  occ. eigenvalues --   -0.44256  -0.43993  -0.43847  -0.43569  -0.43373
 Alpha  occ. eigenvalues --   -0.42967  -0.42949  -0.42611  -0.42543  -0.42439
 Alpha  occ. eigenvalues --   -0.42141  -0.41608  -0.41391  -0.41076  -0.41073
 Alpha  occ. eigenvalues --   -0.40955  -0.40548  -0.40396  -0.40342  -0.40099
 Alpha  occ. eigenvalues --   -0.40019  -0.39555  -0.39459  -0.39232  -0.39194
 Alpha  occ. eigenvalues --   -0.38790  -0.38653  -0.38528  -0.38369  -0.38344
 Alpha  occ. eigenvalues --   -0.38284  -0.38104  -0.37832  -0.37743  -0.37654
 Alpha  occ. eigenvalues --   -0.37564  -0.37234  -0.37118  -0.37063  -0.36897
 Alpha  occ. eigenvalues --   -0.36489  -0.36281  -0.35838  -0.35712  -0.35486
 Alpha  occ. eigenvalues --   -0.35298  -0.35112  -0.35091  -0.34801  -0.34611
 Alpha  occ. eigenvalues --   -0.34473  -0.34291  -0.33882  -0.33652  -0.33370
 Alpha  occ. eigenvalues --   -0.33243  -0.33018  -0.32556  -0.32207  -0.32142
 Alpha  occ. eigenvalues --   -0.32033  -0.31979  -0.31924  -0.31437  -0.31283
 Alpha  occ. eigenvalues --   -0.31051  -0.30289  -0.30177  -0.29865  -0.29511
 Alpha  occ. eigenvalues --   -0.29485  -0.29057  -0.28003  -0.27818  -0.27483
 Alpha  occ. eigenvalues --   -0.27192  -0.26922  -0.26562  -0.26093  -0.25502
 Alpha  occ. eigenvalues --   -0.25184  -0.24578  -0.23212  -0.22410  -0.19407
 Alpha  occ. eigenvalues --   -0.18864
 Alpha virt. eigenvalues --   -0.10740  -0.07589  -0.04174  -0.01879  -0.01624
 Alpha virt. eigenvalues --   -0.00377   0.01236   0.01303   0.02070   0.02251
 Alpha virt. eigenvalues --    0.02605   0.03095   0.03166   0.03542   0.04014

 Mulliken charges:
               1
     1  C   -0.056335
     2  C   -0.039226
     3  C   -0.084075
     4  C   -0.122646
     5  N   -0.128008
     6  C   -0.086022
     7  C    0.029628
     8  C   -0.099769
     9  C   -0.040492
    10  C    0.119371
    11  C    0.160792
    12  C   -0.103906
    13  C    0.145206
    14  O   -0.202054
    15  O   -0.298405
    16  N   -0.057121
    17  C    0.081939
    18  C   -0.081794
    19  C    0.021328
    20  C    0.072750
    21  C   -0.052390
    22  C   -0.079010
    23  C    0.034321
    24  N   -0.213155
    25  C    0.026537
    26  C   -0.082825
    27  C   -0.114352
    28  C    0.072425
    29  C    0.037386
    30  C    0.081854
    31  C   -0.059250
    32  N   -0.047271
    33  C    0.028021
    34  C   -0.055937
    35  C   -0.055556
    36  C    0.144850
    37  C   -0.010310
    38  C    0.013570
    39  O   -0.162463
    40  C    0.033250
    41  C    0.188026
    42  O   -0.214668
    43  O   -0.309327
    44  C    0.095878
    45  C    0.154592
    46  C   -0.027740
    47  C   -0.087008
    48  C   -0.058043
    49  C    0.105246
    50  C    0.034868
    51  C   -0.059763
    52  C    0.027934
    53  C    0.115835
    54  C   -0.017072
    55  C    0.019041
    56  C    0.056357
    57  C   -0.149368
    58  C   -0.014952
    59  C   -0.064356
    60  C    0.151285
    61  C    0.031791
    62  C   -0.195467
    63  C   -0.030950
    64  C   -0.029637
    65  H   -0.041494
    66  H   -0.009447
    67  H    0.019267
    68  H   -0.019602
    69  H    0.022541
    70  H    0.030996
    71  H    0.010760
    72  H   -0.022918
    73  H    0.064168
    74  H   -0.018587
    75  H    0.045526
    76  H    0.024119
    77  H    0.056392
    78  H    0.069191
    79  H    0.048514
    80  H    0.016324
    81  H    0.000880
    82  H    0.002896
    83  H    0.049826
    84  H    0.022748
    85  H    0.028006
    86  H   -0.013172
    87  H    0.017987
    88  H    0.021214
    89  H    0.028648
    90  H    0.021501
    91  H    0.042418
    92  H    0.049290
    93  H    0.059896
    94  H    0.034114
    95  H    0.058293
    96  H    0.075326
    97  H    0.076960
    98  H    0.039714
    99  H    0.040067
   100  H    0.004958
   101  H    0.045481
   102  H    0.048630
   103  H    0.048097
   104  H   -0.029543
   105  H    0.010764
   106  H   -0.005851
   107  H   -0.017877
   108  H    0.018009
   109  H   -0.000829
   110  H   -0.059963
   111  H    0.003449
   112  H   -0.016743
   113  H   -0.052173
   114  H   -0.028851
   115  H   -0.003433
   116  H    0.000599
   117  H    0.016434
   118  H    0.007888
   119  H    0.033053
   120  H    0.008155
   121  H    0.017394
   122  H    0.038355
   123  H    0.011198
   124  H    0.002462
   125  H    0.008621
   126  H   -0.029931
   127  H   -0.050638
   128  H    0.000322
   129  H   -0.008705
   130  H    0.037968
   131  H    0.025970
   132  H    0.022761
   133  H    0.040635
   134  H    0.037481
   135  H    0.006097
   136  H    0.055946
   137  H    0.170139
   138  H    0.137954
 Sum of Mulliken charges =   0.00000

 Dipole moment (field-independent basis, Debye):
    X=              3.9068    Y=              3.3492    Z=             -0.4938  Tot=              5.1695
 Quadrupole moment (field-independent basis, Debye-Ang):
   XX=           -355.1658   YY=           -382.1418   ZZ=           -399.0941
   XY=            -22.6498   XZ=             -6.1451   YZ=             -3.6396

 Normal termination of Gaussian 09 at Sat Jul 27 14:11:04 2019.
