 Gaussian 09, Revision D.01,
 Gaussian 09:  ES64L-G09RevD.01 24-Apr-2013

 --------------------------
 # td=(NStates=1) B3LYP/SVP
 --------------------------

 --
 TD
 --
 Symbolic Z-matrix:
 Charge =  0 Multiplicity = 1

                         Standard orientation:
 ---------------------------------------------------------------------
 Center     Atomic      Atomic             Coordinates (Angstroms)
 Number     Number       Type             X           Y           Z
 ---------------------------------------------------------------------
      1          6           0       -5.042955   -1.910491    0.483196
      2          6           0       -4.732116    2.812772    1.407851
      3          6           0       -9.479730    3.292271   -0.266136
      4          6           0       -9.739170   -1.517374   -0.927442
      5          7           0       -5.196883    0.426246    0.937994
      6          6           0       -4.465896   -0.695790    0.952350
      7          6           0       -3.067265   -0.486133    1.350730
      8          6           0       -3.016415    1.038973    1.920533
      9          6           0       -4.459438    1.388197    1.445155
     10          6           0       -3.046061    1.020974    3.462602
     11          6           0       -1.974158   -0.767055    0.152027
     12          6           0       -0.510745   -0.618424    0.508007
     13          6           0        0.315275   -0.745884   -0.597158
     14          8           0       -0.028118   -0.758871   -1.853414
     15          8           0        1.612110   -0.702812   -0.183540
     16          7           0       -7.154445    2.643684    0.530386
     17          6           0       -6.017615    3.348695    1.007624
     18          6           0       -6.313671    4.740535    1.066738
     19          6           0       -7.585243    4.932331    0.515213
     20          6           0       -8.168203    3.632099    0.176211
     21          6           0       -5.464472    5.860708    1.655926
     22          6           0       -8.302611    6.182809    0.372858
     23          6           0       -9.097352    6.558259   -0.645256
     24          7           0       -9.293513    0.783092   -0.488402
     25          6           0       -9.908180    1.976038   -0.676017
     26          6           0      -11.369813    1.656620   -1.122508
     27          6           0      -11.491836    0.355478   -1.215502
     28          6           0      -10.165148   -0.200364   -0.852788
     29          6           0      -12.437049    2.762286   -1.252178
     30          6           0      -12.667604   -0.558701   -1.665079
     31          6           0      -12.678603   -0.789068   -3.195724
     32          7           0       -7.457785   -1.276688   -0.232861
     33          6           0       -8.623252   -2.108880   -0.474599
     34          6           0       -8.142439   -3.457955   -0.491571
     35          6           0       -6.806685   -3.484874   -0.134131
     36          6           0       -6.369987   -2.102300    0.004302
     37          6           0       -8.815692   -4.714884   -0.821242
     38          6           0       -5.716701   -4.377402    0.105637
     39          8           0       -5.550319   -5.557130    0.052610
     40          6           0       -4.421846   -3.366792    0.381699
     41          6           0       -3.720981   -3.816412    1.659865
     42          8           0       -3.892665   -3.432555    2.783654
     43          8           0       -2.726491   -4.810040    1.328719
     44          6           0       -2.087643   -5.425155    2.476325
     45          6           0        2.699940   -0.938129   -1.108368
     46          6           0        3.929108   -0.490673   -0.558629
     47          6           0        4.858766    0.376421   -1.059461
     48          6           0        4.882672    1.064531   -2.391195
     49          6           0        6.144954    0.477300   -0.308163
     50          6           0        7.373522   -0.179726   -0.997112
     51          6           0        8.749221    0.054488   -0.092832
     52          6           0       10.092134   -0.539964   -0.847316
     53          6           0        9.858276   -2.033166   -0.940313
     54          6           0       11.204365   -0.157783    0.009538
     55          6           0       12.615596   -0.458841   -0.628530
     56          6           0       13.800612   -0.093637    0.231541
     57          6           0       15.228235   -0.168194   -0.423014
     58          6           0       15.531562   -1.671887   -0.524605
     59          6           0       16.321696    0.591918    0.427825
     60          6           0       17.732882    0.560423   -0.245432
     61          6           0       18.656838    1.421202    0.605125
     62          6           0       20.181503    1.425771    0.071827
     63          6           0       20.261673    1.793173   -1.331681
     64          6           0       20.939978    2.311399    1.169796
     65          1           0       -3.899704    3.512272    1.642466
     66          1           0      -10.002526    4.042288   -0.565208
     67          1           0      -10.422535   -2.381929   -1.302868
     68          1           0       -2.822032   -1.286364    1.985083
     69          1           0       -2.089465    1.690145    1.553037
     70          1           0       -2.113354    0.688899    3.735042
     71          1           0       -3.082995    2.175727    3.611096
     72          1           0       -3.927975    0.474252    3.935245
     73          1           0       -2.179049   -1.838179   -0.176879
     74          1           0       -2.064519    0.002532   -0.684614
     75          1           0       -0.351726    0.245872    1.033112
     76          1           0       -0.078206   -1.301775    1.408673
     77          1           0       -4.289731    5.630272    1.204179
     78          1           0       -5.793480    6.855453    1.444178
     79          1           0       -5.462073    5.700564    2.918663
     80          1           0       -8.322595    6.963100    0.992484
     81          1           0       -9.253292    5.841227   -1.519673
     82          1           0       -9.366843    7.694150   -0.779519
     83          1           0      -12.583687    3.500770   -0.538996
     84          1           0      -12.349389    3.384838   -2.217567
     85          1           0      -13.440566    2.237841   -1.711651
     86          1           0      -12.500364   -1.558423   -1.042492
     87          1           0      -13.725924   -0.222101   -1.154201
     88          1           0      -12.864612    0.194992   -3.676098
     89          1           0      -11.819482   -1.237153   -3.355811
     90          1           0      -13.567715   -1.413501   -3.275894
     91          1           0       -9.547381   -5.000920   -0.125076
     92          1           0       -9.274600   -4.392099   -1.813031
     93          1           0       -8.156091   -5.638566   -0.820967
     94          1           0       -3.866246   -3.348536   -0.546175
     95          1           0       -1.317263   -6.228756    2.199327
     96          1           0       -1.460334   -4.559373    2.887791
     97          1           0       -2.765138   -5.812721    3.188870
     98          1           0        2.748656   -2.091548   -1.201336
     99          1           0        2.406858   -0.504424   -2.096398
    100          1           0        4.368581   -0.937168    0.508329
    101          1           0        5.105759    2.097945   -2.409071
    102          1           0        5.454684    0.568998   -3.155449
    103          1           0        3.971761    0.936974   -2.828178
    104          1           0        6.488154    1.577708   -0.650879
    105          1           0        6.166168    0.221599    0.819529
    106          1           0        7.381501   -1.276046   -0.973767
    107          1           0        7.522871    0.381279   -1.932345
    108          1           0        8.938318    1.148939    0.064676
    109          1           0        8.591612   -0.522176    0.698178
    110          1           0       10.267516   -0.173943   -1.804427
    111          1           0        8.942847   -2.612882   -1.244207
    112          1           0       10.619449   -2.602188   -1.562188
    113          1           0        9.980610   -2.464883    0.092195
    114          1           0       11.317507    0.916794    0.274051
    115          1           0       11.027342   -0.606897    0.908868
    116          1           0       12.564040   -1.610532   -0.622642
    117          1           0       12.895479   -0.171428   -1.708574
    118          1           0       13.747052    0.964492    0.422727
    119          1           0       13.856198   -0.583107    1.135787
    120          1           0       15.112033    0.271098   -1.416172
    121          1           0       14.695204   -2.397488   -1.053090
    122          1           0       16.466935   -1.918754   -0.895681
    123          1           0       15.282009   -2.413376    0.551767
    124          1           0       15.754080    1.636444    0.728371
    125          1           0       16.258986   -0.001672    1.351180
    126          1           0       18.026306   -0.492410   -0.586521
    127          1           0       17.598660    0.990207   -1.312093
    128          1           0       18.180263    2.426602    0.530716
    129          1           0       18.483643    1.063677    1.655863
    130          1           0       20.695647    0.310336    0.208175
    131          1           0       19.624965    2.772072   -1.600029
    132          1           0       21.322013    1.883572   -1.500472
    133          1           0       19.852408    1.180186   -1.940974
    134          1           0       20.584303    1.840101    2.113873
    135          1           0       22.110564    2.397096    1.143708
    136          1           0       20.609948    3.176728    1.036682
    137          1           0       -7.101382    1.759618    0.669078
    138          1           0       -7.589788   -0.257815   -0.064946
 ---------------------------------------------------------------------

 SCF Done:  E(RB3LYP) =  -2732.99011452     A.U. after   17 cycles

 Excitation energies and oscillator strengths:

 Excited State   1:      Singlet-A      2.0184 eV  614.28 nm  f=0.1455  <S**2>=0.000
     235 -> 238       -0.32925
     236 -> 237        0.62306
 This state for optimization and/or second-order correction.
 Total Energy, E(TD-HF/TD-KS) =  -2732.91594082
 Copying the excited state density for this state as the 1-particle RhoCI density.

 The electronic state is 1-A.
 Alpha  occ. eigenvalues --  -19.17249 -19.16082 -19.13509 -19.12944 -19.11822
 Alpha  occ. eigenvalues --  -14.36433 -14.36225 -14.32685 -14.30450 -10.31967
 Alpha  occ. eigenvalues --  -10.31568 -10.28332 -10.25145 -10.25121 -10.24302
 Alpha  occ. eigenvalues --  -10.24035 -10.23945 -10.23461 -10.23339 -10.23141
 Alpha  occ. eigenvalues --  -10.23124 -10.22250 -10.21976 -10.21588 -10.21548
 Alpha  occ. eigenvalues --  -10.21539 -10.21267 -10.21095 -10.20850 -10.20736
 Alpha  occ. eigenvalues --  -10.20671 -10.20600 -10.20592 -10.20424 -10.20404
 Alpha  occ. eigenvalues --  -10.20338 -10.20267 -10.20098 -10.19989 -10.19922
 Alpha  occ. eigenvalues --  -10.19819 -10.19761 -10.19725 -10.19650 -10.19606
 Alpha  occ. eigenvalues --  -10.19596 -10.19483 -10.19391 -10.19111 -10.19093
 Alpha  occ. eigenvalues --  -10.19022 -10.18995 -10.18848 -10.18804 -10.18755
 Alpha  occ. eigenvalues --  -10.18592 -10.18437 -10.18239 -10.18024 -10.17807
 Alpha  occ. eigenvalues --  -10.17576 -10.17043 -10.16977 -10.16738  -1.07518
 Alpha  occ. eigenvalues --   -1.07179  -1.04283  -0.99497  -0.96739  -0.96633
 Alpha  occ. eigenvalues --   -0.96072  -0.95641  -0.93157  -0.83619  -0.83015
 Alpha  occ. eigenvalues --   -0.82653  -0.82255  -0.81468  -0.81338  -0.80919
 Alpha  occ. eigenvalues --   -0.79875  -0.79536  -0.78976  -0.78831  -0.78437
 Alpha  occ. eigenvalues --   -0.76921  -0.76273  -0.75649  -0.75029  -0.74486
 Alpha  occ. eigenvalues --   -0.73591  -0.73068  -0.72090  -0.71598  -0.70812
 Alpha  occ. eigenvalues --   -0.70424  -0.69423  -0.68975  -0.68552  -0.67942
 Alpha  occ. eigenvalues --   -0.67262  -0.67100  -0.65810  -0.65479  -0.65321
 Alpha  occ. eigenvalues --   -0.63785  -0.62700  -0.62622  -0.61827  -0.60840
 Alpha  occ. eigenvalues --   -0.60765  -0.58743  -0.58032  -0.57578  -0.57385
 Alpha  occ. eigenvalues --   -0.57148  -0.56666  -0.55581  -0.55364  -0.55334
 Alpha  occ. eigenvalues --   -0.54709  -0.54556  -0.54515  -0.53930  -0.53193
 Alpha  occ. eigenvalues --   -0.52582  -0.51850  -0.51522  -0.51143  -0.50479
 Alpha  occ. eigenvalues --   -0.49719  -0.49387  -0.49097  -0.48880  -0.48606
 Alpha  occ. eigenvalues --   -0.48385  -0.47563  -0.47292  -0.46949  -0.46757
 Alpha  occ. eigenvalues --   -0.46645  -0.46506  -0.46297  -0.46217  -0.45957
 Alpha  occ. eigenvalues --   -0.45766  -0.45582  -0.45418  -0.45141  -0.44787
 Alpha  occ. eigenvalues --   -0.44342  -0.43961  -0.43802  -0.43702  -0.43594
 Alpha  occ. eigenvalues --   -0.43364  -0.43329  -0.43091  -0.43011  -0.42649
 Alpha  occ. eigenvalues --   -0.42484  -0.42232  -0.42019  -0.41842  -0.41645
 Alpha  occ. eigenvalues --   -0.41566  -0.41307  -0.40824  -0.40612  -0.40526
 Alpha  occ. eigenvalues --   -0.40365  -0.40284  -0.39806  -0.39577  -0.39418
 Alpha  occ. eigenvalues --   -0.39134  -0.38960  -0.38855  -0.38693  -0.38499
 Alpha  occ. eigenvalues --   -0.38244  -0.38227  -0.37735  -0.37671  -0.37599
 Alpha  occ. eigenvalues --   -0.37030  -0.36956  -0.36786  -0.36546  -0.36501
 Alpha  occ. eigenvalues --   -0.36406  -0.36302  -0.36202  -0.35973  -0.35596
 Alpha  occ. eigenvalues --   -0.35473  -0.35330  -0.35225  -0.35177  -0.34709
 Alpha  occ. eigenvalues --   -0.34373  -0.34365  -0.34328  -0.33709  -0.33681
 Alpha  occ. eigenvalues --   -0.33568  -0.33319  -0.32975  -0.32824  -0.32390
 Alpha  occ. eigenvalues --   -0.32378  -0.32023  -0.31695  -0.31225  -0.30956
 Alpha  occ. eigenvalues --   -0.30632  -0.30583  -0.30300  -0.29877  -0.29158
 Alpha  occ. eigenvalues --   -0.29094  -0.28535  -0.28379  -0.28036  -0.27954
 Alpha  occ. eigenvalues --   -0.27254  -0.27032  -0.26464  -0.26287  -0.25983
 Alpha  occ. eigenvalues --   -0.25113  -0.24538  -0.24283  -0.23764  -0.19849
 Alpha  occ. eigenvalues --   -0.19007
 Alpha virt. eigenvalues --   -0.10379  -0.07912  -0.04779  -0.02208  -0.01850
 Alpha virt. eigenvalues --   -0.00951  -0.00720   0.00192   0.01862   0.03171
 Alpha virt. eigenvalues --    0.03731   0.03959   0.04166   0.04599   0.04659

 Mulliken charges:
               1
     1  C   -0.008153
     2  C   -0.081228
     3  C    0.064542
     4  C   -0.091325
     5  N   -0.117584
     6  C   -0.049394
     7  C    0.044180
     8  C   -0.155617
     9  C    0.010785
    10  C    0.094550
    11  C    0.007392
    12  C    0.051109
    13  C    0.227462
    14  O   -0.315355
    15  O   -0.332775
    16  N   -0.051153
    17  C    0.094595
    18  C   -0.116728
    19  C    0.114211
    20  C    0.111927
    21  C    0.005288
    22  C   -0.041256
    23  C   -0.102806
    24  N   -0.227033
    25  C    0.041222
    26  C   -0.131393
    27  C   -0.043013
    28  C    0.060724
    29  C    0.057738
    30  C   -0.081948
    31  C    0.132906
    32  N   -0.123888
    33  C    0.073203
    34  C   -0.130197
    35  C    0.021492
    36  C    0.075226
    37  C    0.083841
    38  C    0.049241
    39  O   -0.136874
    40  C   -0.074630
    41  C    0.253058
    42  O   -0.202168
    43  O   -0.372937
    44  C    0.180111
    45  C    0.283765
    46  C   -0.114230
    47  C   -0.140507
    48  C    0.158408
    49  C    0.011573
    50  C    0.007655
    51  C    0.026050
    52  C    0.019470
    53  C   -0.034822
    54  C    0.083003
    55  C   -0.005000
    56  C    0.082247
    57  C   -0.067729
    58  C   -0.050474
    59  C   -0.015158
    60  C   -0.006876
    61  C    0.015759
    62  C   -0.159246
    63  C    0.131166
    64  C    0.108198
    65  H   -0.003868
    66  H   -0.111918
    67  H    0.002591
    68  H   -0.020838
    69  H    0.041782
    70  H   -0.005737
    71  H    0.007389
    72  H    0.055367
    73  H    0.034897
    74  H    0.036448
    75  H   -0.006961
    76  H    0.040911
    77  H    0.054908
    78  H    0.026390
    79  H    0.060155
    80  H   -0.041950
    81  H    0.041374
    82  H    0.049354
    83  H    0.020906
    84  H    0.009062
    85  H    0.016638
    86  H    0.013921
    87  H    0.025583
    88  H    0.022829
    89  H   -0.018422
    90  H    0.014544
    91  H    0.017671
    92  H    0.041025
    93  H    0.048873
    94  H    0.066998
    95  H    0.040330
    96  H    0.020003
    97  H    0.028783
    98  H    0.026195
    99  H    0.035974
   100  H    0.015616
   101  H    0.013172
   102  H    0.020559
   103  H   -0.046291
   104  H   -0.000774
   105  H    0.022102
   106  H    0.001579
   107  H    0.010192
   108  H    0.008459
   109  H   -0.035378
   110  H   -0.031441
   111  H    0.022103
   112  H    0.011967
   113  H   -0.008361
   114  H   -0.011944
   115  H   -0.042482
   116  H   -0.002863
   117  H    0.010122
   118  H   -0.034342
   119  H   -0.032232
   120  H   -0.010580
   121  H    0.022601
   122  H    0.000909
   123  H    0.003488
   124  H    0.017440
   125  H    0.000283
   126  H    0.014501
   127  H   -0.003941
   128  H    0.004446
   129  H    0.007889
   130  H    0.007780
   131  H    0.003591
   132  H    0.007029
   133  H   -0.039926
   134  H    0.014369
   135  H    0.015109
   136  H   -0.057053
   137  H    0.053002
   138  H    0.157500
 Sum of Mulliken charges =   0.00000

 Dipole moment (field-independent basis, Debye):
    X=              2.2358    Y=              4.2463    Z=              0.6117  Tot=              4.8377
 Quadrupole moment (field-independent basis, Debye-Ang):
   XX=           -354.9111   YY=           -377.9718   ZZ=           -396.9976
   XY=            -21.3724   XZ=              2.1077   YZ=             -0.0291

 Normal termination of Gaussian 09 at Mon Aug  5 01:17:51 2019.
