 Gaussian 09, Revision D.01,
 Gaussian 09:  ES64L-G09RevD.01 24-Apr-2013

 --------------------------
 # td=(NStates=1) B3LYP/SVP
 --------------------------

 --
 TD
 --
 Symbolic Z-matrix:
 Charge =  0 Multiplicity = 1

                         Standard orientation:
 ---------------------------------------------------------------------
 Center     Atomic      Atomic             Coordinates (Angstroms)
 Number     Number       Type             X           Y           Z
 ---------------------------------------------------------------------
      1          6           0       -5.204531   -1.959572    0.303437
      2          6           0       -4.572376    2.585284    1.574282
      3          6           0       -9.215066    3.448245   -0.190930
      4          6           0       -9.861371   -1.299485   -0.943672
      5          7           0       -5.096041    0.358886    0.796642
      6          6           0       -4.454943   -0.836574    0.755088
      7          6           0       -3.060659   -0.708881    1.186266
      8          6           0       -2.970774    0.653132    1.890461
      9          6           0       -4.319390    1.295482    1.409541
     10          6           0       -3.032924    0.655360    3.382922
     11          6           0       -2.074593   -0.733416    0.036251
     12          6           0       -0.630366   -0.971641    0.526096
     13          6           0        0.419201   -1.265712   -0.620281
     14          8           0        0.110332   -1.856386   -1.668292
     15          8           0        1.589488   -0.772830   -0.326703
     16          7           0       -6.937530    2.795005    0.561011
     17          6           0       -5.767308    3.373901    1.134966
     18          6           0       -6.009029    4.866366    1.081816
     19          6           0       -7.250770    4.958186    0.468633
     20          6           0       -7.916642    3.769257    0.248484
     21          6           0       -4.942417    5.824524    1.465285
     22          6           0       -7.796686    6.330327    0.445980
     23          6           0       -8.713800    6.790098   -0.490536
     24          7           0       -9.164504    0.993161   -0.339050
     25          6           0       -9.783469    2.188594   -0.504472
     26          6           0      -11.168348    2.083280   -0.980072
     27          6           0      -11.457693    0.777914   -1.191339
     28          6           0      -10.152678    0.106473   -0.878629
     29          6           0      -12.031694    3.297431   -1.048883
     30          6           0      -12.730462    0.100731   -1.613328
     31          6           0      -12.890692   -0.086217   -3.153663
     32          7           0       -7.609950   -1.251481   -0.216488
     33          6           0       -8.706042   -1.968675   -0.646092
     34          6           0       -8.349830   -3.352710   -0.713799
     35          6           0       -7.019327   -3.349277   -0.285311
     36          6           0       -6.573366   -2.075724   -0.104088
     37          6           0       -9.214544   -4.491329   -1.048148
     38          6           0       -5.814823   -4.304249   -0.087985
     39          8           0       -5.852933   -5.520316   -0.150562
     40          6           0       -4.616706   -3.439847    0.401590
     41          6           0       -4.036687   -3.990770    1.734968
     42          8           0       -4.360119   -3.580684    2.801267
     43          8           0       -3.228155   -4.900739    1.424580
     44          6           0       -2.629855   -5.696256    2.508773
     45          6           0        2.624564   -1.078629   -1.198851
     46          6           0        3.926234   -0.724651   -0.618921
     47          6           0        4.953492    0.056086   -1.134285
     48          6           0        4.842456    0.815134   -2.379754
     49          6           0        6.203196    0.181125   -0.349809
     50          6           0        7.462735   -0.591367   -0.945351
     51          6           0        8.798360   -0.269235   -0.138409
     52          6           0       10.128936   -0.855738   -0.743647
     53          6           0       10.064953   -2.379473   -0.739800
     54          6           0       11.285071   -0.291539   -0.010118
     55          6           0       12.640619   -0.615858   -0.403929
     56          6           0       13.817881   -0.054283    0.341292
     57          6           0       15.260528   -0.183689   -0.401704
     58          6           0       15.711277   -1.632963   -0.449484
     59          6           0       16.266577    0.707649    0.368431
     60          6           0       17.637696    0.778632   -0.186095
     61          6           0       18.599083    1.694572    0.585121
     62          6           0       20.042210    1.690060    0.069361
     63          6           0       20.101659    2.296693   -1.408837
     64          6           0       20.878975    2.622627    1.074175
     65          1           0       -3.968463    3.312304    2.069110
     66          1           0       -9.964517    4.133888   -0.246239
     67          1           0      -10.665169   -1.870441   -1.418548
     68          1           0       -3.060599   -1.395042    2.004070
     69          1           0       -2.038695    1.084947    1.646299
     70          1           0       -1.881862    0.633131    3.646908
     71          1           0       -3.449748    1.508537    3.882140
     72          1           0       -3.526713   -0.170477    4.007446
     73          1           0       -2.364574   -1.767076   -0.334547
     74          1           0       -2.159330   -0.004338   -0.764162
     75          1           0       -0.196932   -0.020173    1.002489
     76          1           0       -0.527912   -1.716660    1.390762
     77          1           0       -4.111143    5.885949    0.833120
     78          1           0       -5.371973    6.956423    1.321486
     79          1           0       -4.785029    5.713570    2.521715
     80          1           0       -7.334423    7.167047    1.147045
     81          1           0       -9.408506    6.093189   -1.288512
     82          1           0       -8.970144    7.796671   -0.373411
     83          1           0      -12.077029    4.029269   -0.123503
     84          1           0      -11.785494    3.902522   -1.913357
     85          1           0      -13.262774    3.091669   -0.938812
     86          1           0      -12.703359   -0.897298   -1.133039
     87          1           0      -13.580038    0.619843   -0.986251
     88          1           0      -12.857096    0.704219   -3.862551
     89          1           0      -12.092056   -0.698797   -3.336735
     90          1           0      -13.564943   -0.831351   -3.338398
     91          1           0      -10.041209   -4.684997   -0.253524
     92          1           0       -9.790630   -4.431741   -1.954287
     93          1           0       -8.568985   -5.499437   -0.889173
     94          1           0       -3.873608   -3.362377   -0.408360
     95          1           0       -2.021081   -6.312246    2.133864
     96          1           0       -2.253044   -4.982118    3.174286
     97          1           0       -3.449275   -6.274250    3.063614
     98          1           0        2.590108   -2.164773   -1.250433
     99          1           0        2.421221   -0.634113   -2.296627
    100          1           0        3.922739   -1.321240    0.312464
    101          1           0        5.252308    1.779800   -2.065355
    102          1           0        5.475823    0.330341   -3.244394
    103          1           0        3.830813    0.763602   -2.864499
    104          1           0        6.540002    1.362899   -0.365402
    105          1           0        6.061712   -0.173149    0.727463
    106          1           0        7.383489   -1.895657   -0.587888
    107          1           0        7.445493   -0.605571   -2.296069
    108          1           0        9.165692    0.905181   -0.004238
    109          1           0        8.786271   -0.648544    0.906892
    110          1           0       10.373131   -0.408120   -1.719573
    111          1           0        9.231535   -2.620610   -1.449889
    112          1           0       10.941584   -2.855307   -1.191429
    113          1           0        9.785039   -3.056522    0.104292
    114          1           0       11.218257    1.007523    0.025929
    115          1           0       11.363112   -0.391291    1.297330
    116          1           0       12.861493   -1.844550   -0.631179
    117          1           0       12.735784   -0.293525   -1.576703
    118          1           0       13.609963    1.115880    0.488132
    119          1           0       13.726087   -0.275921    1.318282
    120          1           0       15.232780    0.188119   -1.538944
    121          1           0       14.852727   -2.495270   -0.898208
    122          1           0       16.509016   -1.809426   -1.327130
    123          1           0       16.135160   -2.209683    0.656757
    124          1           0       15.956615    1.807871    0.653271
    125          1           0       16.223316    0.386456    1.497965
    126          1           0       18.099659   -0.373089   -0.149042
    127          1           0       17.653485    0.998221   -1.204385
    128          1           0       17.964299    2.710931    0.387428
    129          1           0       18.643583    1.397565    1.815594
    130          1           0       20.260558    0.601416   -0.099379
    131          1           0       19.592009    3.224074   -1.532223
    132          1           0       21.189617    2.589633   -1.682429
    133          1           0       19.572496    1.563893   -2.035919
    134          1           0       20.773482    2.217321    2.258547
    135          1           0       22.091008    2.615330    0.994794
    136          1           0       20.470636    3.648340    1.286125
    137          1           0       -7.104863    1.776226    0.445559
    138          1           0       -7.718668   -0.286394   -0.001541
 ---------------------------------------------------------------------

 SCF Done:  E(RB3LYP) =  -2732.97146699     A.U. after   17 cycles

 Excitation energies and oscillator strengths:

 Excited State   1:      Singlet-A      2.0570 eV  602.75 nm  f=0.1499  <S**2>=0.000
     235 -> 237       -0.32563
     235 -> 238        0.25950
     236 -> 237        0.52267
     236 -> 238        0.22596
 This state for optimization and/or second-order correction.
 Total Energy, E(TD-HF/TD-KS) =  -2732.89587497
 Copying the excited state density for this state as the 1-particle RhoCI density.

 The electronic state is 1-A.
 Alpha  occ. eigenvalues --  -19.19366 -19.19235 -19.12314 -19.12169 -19.12024
 Alpha  occ. eigenvalues --  -14.36216 -14.35611 -14.31132 -14.30400 -10.31966
 Alpha  occ. eigenvalues --  -10.31567 -10.28085 -10.25325 -10.24731 -10.24373
 Alpha  occ. eigenvalues --  -10.24338 -10.23136 -10.22524 -10.22425 -10.22331
 Alpha  occ. eigenvalues --  -10.22297 -10.21922 -10.21758 -10.21686 -10.21634
 Alpha  occ. eigenvalues --  -10.21490 -10.21164 -10.21116 -10.20955 -10.20935
 Alpha  occ. eigenvalues --  -10.20933 -10.20884 -10.20861 -10.20801 -10.20776
 Alpha  occ. eigenvalues --  -10.20649 -10.20556 -10.20488 -10.20435 -10.20403
 Alpha  occ. eigenvalues --  -10.20377 -10.20302 -10.20228 -10.20158 -10.20123
 Alpha  occ. eigenvalues --  -10.20108 -10.19946 -10.19785 -10.19607 -10.19553
 Alpha  occ. eigenvalues --  -10.19425 -10.19142 -10.19060 -10.18961 -10.18960
 Alpha  occ. eigenvalues --  -10.18934 -10.18896 -10.18751 -10.18672 -10.18596
 Alpha  occ. eigenvalues --  -10.18460 -10.18379 -10.18376 -10.17004  -1.12801
 Alpha  occ. eigenvalues --   -1.12336  -1.02336  -1.02265  -0.99911  -0.99129
 Alpha  occ. eigenvalues --   -0.95362  -0.93740  -0.92133  -0.83583  -0.82988
 Alpha  occ. eigenvalues --   -0.82336  -0.81435  -0.81179  -0.80860  -0.80485
 Alpha  occ. eigenvalues --   -0.79571  -0.79228  -0.78918  -0.78854  -0.78112
 Alpha  occ. eigenvalues --   -0.77394  -0.76147  -0.75896  -0.74904  -0.74485
 Alpha  occ. eigenvalues --   -0.74041  -0.73124  -0.72069  -0.71676  -0.70648
 Alpha  occ. eigenvalues --   -0.70292  -0.69449  -0.68879  -0.67928  -0.67348
 Alpha  occ. eigenvalues --   -0.67022  -0.66560  -0.65598  -0.65236  -0.64969
 Alpha  occ. eigenvalues --   -0.63638  -0.62760  -0.62141  -0.61931  -0.60837
 Alpha  occ. eigenvalues --   -0.60517  -0.58771  -0.58333  -0.57919  -0.57568
 Alpha  occ. eigenvalues --   -0.57085  -0.56018  -0.55433  -0.55280  -0.55092
 Alpha  occ. eigenvalues --   -0.55079  -0.54482  -0.53831  -0.53453  -0.53087
 Alpha  occ. eigenvalues --   -0.52257  -0.51845  -0.51432  -0.51167  -0.50946
 Alpha  occ. eigenvalues --   -0.50195  -0.49819  -0.48950  -0.48756  -0.48612
 Alpha  occ. eigenvalues --   -0.48034  -0.47171  -0.46762  -0.46758  -0.46549
 Alpha  occ. eigenvalues --   -0.46281  -0.46119  -0.46100  -0.45779  -0.45664
 Alpha  occ. eigenvalues --   -0.45620  -0.45486  -0.45217  -0.44907  -0.44631
 Alpha  occ. eigenvalues --   -0.44438  -0.44166  -0.43998  -0.43748  -0.43652
 Alpha  occ. eigenvalues --   -0.43320  -0.43114  -0.42998  -0.42864  -0.42511
 Alpha  occ. eigenvalues --   -0.42322  -0.42267  -0.41842  -0.41513  -0.41368
 Alpha  occ. eigenvalues --   -0.40906  -0.40697  -0.40398  -0.40318  -0.40057
 Alpha  occ. eigenvalues --   -0.39974  -0.39766  -0.39701  -0.39458  -0.39246
 Alpha  occ. eigenvalues --   -0.38961  -0.38684  -0.38530  -0.38342  -0.38193
 Alpha  occ. eigenvalues --   -0.38049  -0.37994  -0.37597  -0.37390  -0.37361
 Alpha  occ. eigenvalues --   -0.37197  -0.37125  -0.37062  -0.36744  -0.36529
 Alpha  occ. eigenvalues --   -0.36372  -0.36229  -0.36081  -0.35820  -0.35779
 Alpha  occ. eigenvalues --   -0.35453  -0.35358  -0.34957  -0.34667  -0.34614
 Alpha  occ. eigenvalues --   -0.34375  -0.34200  -0.33998  -0.33358  -0.33315
 Alpha  occ. eigenvalues --   -0.32923  -0.32694  -0.32533  -0.32437  -0.32346
 Alpha  occ. eigenvalues --   -0.31897  -0.31782  -0.31500  -0.31119  -0.30957
 Alpha  occ. eigenvalues --   -0.30815  -0.30688  -0.30212  -0.30086  -0.29859
 Alpha  occ. eigenvalues --   -0.29782  -0.29157  -0.28212  -0.27751  -0.27524
 Alpha  occ. eigenvalues --   -0.27243  -0.27225  -0.25978  -0.25700  -0.25592
 Alpha  occ. eigenvalues --   -0.24718  -0.24492  -0.23111  -0.23021  -0.19270
 Alpha  occ. eigenvalues --   -0.18559
 Alpha virt. eigenvalues --   -0.10010  -0.07284  -0.03542  -0.01585  -0.01308
 Alpha virt. eigenvalues --   -0.00273   0.00400   0.01916   0.02383   0.02706
 Alpha virt. eigenvalues --    0.02883   0.03367   0.03649   0.04063   0.04136

 Mulliken charges:
               1
     1  C   -0.050756
     2  C   -0.014007
     3  C   -0.026921
     4  C   -0.087928
     5  N   -0.177551
     6  C   -0.157428
     7  C    0.101743
     8  C   -0.043348
     9  C    0.072821
    10  C    0.018437
    11  C    0.121453
    12  C   -0.023626
    13  C    0.166737
    14  O   -0.264498
    15  O   -0.236563
    16  N   -0.149209
    17  C    0.012548
    18  C   -0.140840
    19  C    0.043624
    20  C    0.180664
    21  C    0.099113
    22  C   -0.104976
    23  C   -0.060258
    24  N   -0.273838
    25  C    0.036087
    26  C   -0.096113
    27  C   -0.088223
    28  C    0.037977
    29  C    0.002321
    30  C    0.023242
    31  C    0.159583
    32  N    0.024222
    33  C    0.084395
    34  C   -0.112758
    35  C   -0.056281
    36  C    0.115674
    37  C    0.035122
    38  C    0.088729
    39  O   -0.173181
    40  C   -0.037106
    41  C    0.182964
    42  O   -0.213807
    43  O   -0.245953
    44  C    0.278615
    45  C    0.223548
    46  C   -0.101170
    47  C   -0.103645
    48  C    0.077141
    49  C    0.039354
    50  C   -0.113023
    51  C   -0.001231
    52  C    0.013248
    53  C    0.021445
    54  C   -0.095522
    55  C   -0.022003
    56  C    0.071433
    57  C   -0.022942
    58  C   -0.114514
    59  C   -0.008162
    60  C    0.028829
    61  C   -0.073123
    62  C   -0.045020
    63  C    0.004929
    64  C   -0.046281
    65  H   -0.043744
    66  H   -0.087422
    67  H   -0.034121
    68  H   -0.021131
    69  H   -0.021547
    70  H    0.002825
    71  H    0.005524
    72  H    0.035554
    73  H    0.017173
    74  H    0.024962
    75  H    0.023387
    76  H    0.041149
    77  H    0.031024
    78  H    0.010294
    79  H    0.034727
    80  H    0.038301
    81  H    0.062805
    82  H    0.005125
    83  H    0.045735
    84  H    0.027369
    85  H    0.028876
    86  H   -0.003937
    87  H    0.018426
    88  H    0.022966
    89  H   -0.043373
    90  H   -0.029469
    91  H    0.031534
    92  H    0.024019
    93  H    0.061660
    94  H    0.059071
    95  H   -0.018704
    96  H    0.021418
    97  H    0.048037
    98  H    0.008730
    99  H    0.033886
   100  H   -0.012086
   101  H    0.026152
   102  H    0.037232
   103  H    0.017228
   104  H    0.026625
   105  H    0.025614
   106  H    0.027260
   107  H    0.050190
   108  H    0.010520
   109  H    0.014857
   110  H   -0.000199
   111  H    0.003345
   112  H    0.004223
   113  H    0.017997
   114  H    0.010990
   115  H   -0.008421
   116  H    0.017271
   117  H   -0.012062
   118  H   -0.009437
   119  H   -0.038238
   120  H    0.022223
   121  H    0.032492
   122  H    0.035399
   123  H    0.044161
   124  H   -0.005050
   125  H   -0.003842
   126  H    0.002691
   127  H   -0.019868
   128  H    0.015459
   129  H    0.026803
   130  H    0.013638
   131  H   -0.005021
   132  H    0.024428
   133  H    0.019160
   134  H    0.006223
   135  H    0.037015
   136  H    0.029234
   137  H    0.155976
   138  H    0.114498
 Sum of Mulliken charges =   0.00000

 Dipole moment (field-independent basis, Debye):
    X=              3.6774    Y=              2.3648    Z=              0.8107  Tot=              4.4467
 Quadrupole moment (field-independent basis, Debye-Ang):
   XX=           -368.6954   YY=           -380.5991   ZZ=           -394.7916
   XY=            -13.8915   XZ=              3.1073   YZ=             -5.2630

 Normal termination of Gaussian 09 at Sun Jul 28 16:32:00 2019.
