 Gaussian 09, Revision D.01,
 Gaussian 09:  ES64L-G09RevD.01 24-Apr-2013

 --------------------------
 # td=(NStates=1) B3LYP/SVP
 --------------------------

 --
 TD
 --
 Symbolic Z-matrix:
 Charge =  0 Multiplicity = 1

                         Standard orientation:
 ---------------------------------------------------------------------
 Center     Atomic      Atomic             Coordinates (Angstroms)
 Number     Number       Type             X           Y           Z
 ---------------------------------------------------------------------
      1          6           0       -5.071404   -1.943703    0.530425
      2          6           0       -4.825759    2.714701    1.380457
      3          6           0       -9.398409    3.213705   -0.284922
      4          6           0       -9.842023   -1.568195   -0.759804
      5          7           0       -5.213558    0.433445    0.938565
      6          6           0       -4.501901   -0.744016    0.865570
      7          6           0       -3.067810   -0.498917    1.256588
      8          6           0       -3.068609    0.960917    1.892575
      9          6           0       -4.479277    1.409070    1.311685
     10          6           0       -3.090361    0.978920    3.426985
     11          6           0       -2.056433   -0.595866    0.030956
     12          6           0       -0.562698   -0.799065    0.541487
     13          6           0        0.300755   -0.976202   -0.643850
     14          8           0       -0.006914   -1.483160   -1.752732
     15          8           0        1.574576   -0.598241   -0.406837
     16          7           0       -7.109017    2.737602    0.561035
     17          6           0       -6.006751    3.356608    1.012283
     18          6           0       -6.326675    4.881298    0.932346
     19          6           0       -7.624676    4.961469    0.523493
     20          6           0       -8.134998    3.581406    0.195332
     21          6           0       -5.258765    5.901830    1.389939
     22          6           0       -8.363920    6.246398    0.277753
     23          6           0       -9.178534    6.500843   -0.717185
     24          7           0       -9.250305    0.831560   -0.375208
     25          6           0       -9.955520    1.914575   -0.589084
     26          6           0      -11.302193    1.738718   -1.048469
     27          6           0      -11.404735    0.397679   -1.170422
     28          6           0      -10.107198   -0.208962   -0.768711
     29          6           0      -12.221604    2.878407   -1.076554
     30          6           0      -12.655954   -0.263736   -1.625375
     31          6           0      -12.774832   -0.521729   -3.115145
     32          7           0       -7.528106   -1.362883   -0.045553
     33          6           0       -8.646210   -2.126878   -0.451575
     34          6           0       -8.122985   -3.588689   -0.651367
     35          6           0       -6.718522   -3.432716   -0.277349
     36          6           0       -6.461799   -2.088485    0.102087
     37          6           0       -8.934935   -4.687912   -1.078219
     38          6           0       -5.670710   -4.265827    0.097038
     39          8           0       -5.513245   -5.481580    0.069680
     40          6           0       -4.412157   -3.290912    0.447024
     41          6           0       -3.802026   -3.727304    1.813242
     42          8           0       -4.021522   -3.311413    3.012863
     43          8           0       -2.847561   -4.690279    1.553853
     44          6           0       -2.120314   -5.317616    2.755903
     45          6           0        2.660596   -0.874023   -1.356396
     46          6           0        3.984176   -0.603844   -0.664450
     47          6           0        5.072999    0.172938   -1.021315
     48          6           0        4.954396    0.936642   -2.374121
     49          6           0        6.328048    0.236560   -0.315403
     50          6           0        7.515567   -0.276564   -1.057917
     51          6           0        8.861891   -0.313247   -0.177843
     52          6           0       10.163940   -0.768229   -0.918822
     53          6           0       10.052199   -2.217312   -1.205679
     54          6           0       11.317265   -0.431371   -0.034986
     55          6           0       12.648215   -0.684202   -0.712305
     56          6           0       13.832707   -0.091368    0.156252
     57          6           0       15.205128   -0.143328   -0.440519
     58          6           0       15.597688   -1.552794   -0.821631
     59          6           0       16.239511    0.503283    0.413369
     60          6           0       17.602846    0.731749   -0.136249
     61          6           0       18.593231    1.534671    0.878209
     62          6           0       19.997174    1.745643    0.272069
     63          6           0       20.030064    2.565980   -1.061217
     64          6           0       20.906820    2.268770    1.386947
     65          1           0       -4.170942    3.478639    1.654346
     66          1           0       -9.880109    4.218398   -0.024135
     67          1           0      -10.490237   -2.221620   -1.256428
     68          1           0       -2.715192   -1.157736    1.875632
     69          1           0       -2.536123    1.750939    1.380425
     70          1           0       -1.964757    0.705572    3.622225
     71          1           0       -3.025487    2.116908    3.677481
     72          1           0       -3.889167    0.218537    3.674956
     73          1           0       -2.232408   -1.583288   -0.454041
     74          1           0       -2.125204    0.254180   -0.508039
     75          1           0       -0.045796    0.093258    1.007137
     76          1           0       -0.260726   -1.801135    1.042966
     77          1           0       -4.719573    6.114176    0.440846
     78          1           0       -5.843018    6.936303    1.911421
     79          1           0       -4.617392    5.564790    2.237081
     80          1           0       -8.389233    7.160260    1.009271
     81          1           0       -9.604007    5.878912   -1.478827
     82          1           0       -9.871252    7.463290   -0.895986
     83          1           0      -12.073652    3.681163   -0.230155
     84          1           0      -12.077291    3.348849   -2.322332
     85          1           0      -13.264140    2.617091   -0.990776
     86          1           0      -12.900973   -1.136803   -1.019912
     87          1           0      -13.646693    0.201618   -1.284333
     88          1           0      -12.706005    0.374101   -3.645380
     89          1           0      -11.864424   -1.063816   -3.547389
     90          1           0      -13.739916   -0.939152   -3.369744
     91          1           0      -10.075735   -4.721650   -0.428879
     92          1           0       -9.090189   -4.687027   -2.166125
     93          1           0       -8.460855   -5.829215   -1.024024
     94          1           0       -3.713131   -3.475607   -0.234093
     95          1           0       -1.797792   -6.374010    2.064338
     96          1           0       -1.213811   -4.641703    3.048059
     97          1           0       -2.830414   -5.727272    3.551437
     98          1           0        2.706123   -2.020031   -1.555166
     99          1           0        2.617901   -0.202702   -2.207349
    100          1           0        4.254224   -1.036539    0.417873
    101          1           0        5.755680    1.954640   -2.212931
    102          1           0        5.140707    0.130008   -3.233647
    103          1           0        3.733010    1.425741   -2.718721
    104          1           0        6.535811    1.384155    0.095061
    105          1           0        6.279673   -0.433790    0.722862
    106          1           0        7.424974   -1.421608   -1.535953
    107          1           0        7.829011    0.147225   -2.156117
    108          1           0        9.069616    0.690731    0.166928
    109          1           0        8.795566   -0.714163    0.644996
    110          1           0       10.546310   -0.075769   -1.876612
    111          1           0        9.247513   -2.458753   -1.929217
    112          1           0       10.828678   -2.748290   -1.784480
    113          1           0        9.880509   -2.912202   -0.310628
    114          1           0       11.211662    0.679755    0.297394
    115          1           0       11.350357   -1.022874    1.066176
    116          1           0       12.746437   -1.725587   -1.251831
    117          1           0       12.767459   -0.164058   -1.589020
    118          1           0       13.571797    0.958912    0.406540
    119          1           0       13.734098   -0.617773    1.060980
    120          1           0       15.140350    0.390600   -1.345250
    121          1           0       14.915639   -1.928682   -1.488892
    122          1           0       16.606569   -1.711499   -1.084403
    123          1           0       15.560647   -2.496163   -0.025964
    124          1           0       15.874221    1.610434    0.576910
    125          1           0       16.385038    0.025022    1.374703
    126          1           0       18.104207   -0.249625   -0.461317
    127          1           0       17.704777    1.017383   -1.158000
    128          1           0       18.006203    2.574908    1.110144
    129          1           0       18.651406    1.044684    1.850425
    130          1           0       20.247626    0.596879    0.029569
    131          1           0       19.666633    3.709715   -0.903440
    132          1           0       21.124161    2.584663   -1.314560
    133          1           0       19.479621    2.009477   -2.030608
    134          1           0       21.036179    1.470861    2.168628
    135          1           0       21.865790    1.911039    1.029217
    136          1           0       20.595512    3.224076    1.763281
    137          1           0       -7.250368    1.649952    0.415254
    138          1           0       -7.848571   -0.406988    0.294865
 ---------------------------------------------------------------------

 SCF Done:  E(RB3LYP) =  -2732.91099691     A.U. after   17 cycles

 Excitation energies and oscillator strengths:

 Excited State   1:      Singlet-A      2.1731 eV  570.53 nm  f=0.1499  <S**2>=0.000
     235 -> 237       -0.22863
     235 -> 238       -0.29487
     236 -> 237        0.57156
     236 -> 238       -0.17344
 This state for optimization and/or second-order correction.
 Total Energy, E(TD-HF/TD-KS) =  -2732.83113531
 Copying the excited state density for this state as the 1-particle RhoCI density.

 The electronic state is 1-A.
 Alpha  occ. eigenvalues --  -19.17331 -19.17327 -19.11656 -19.11273 -19.10958
 Alpha  occ. eigenvalues --  -14.37992 -14.37322 -14.31191 -14.30821 -10.31598
 Alpha  occ. eigenvalues --  -10.30975 -10.27482 -10.26949 -10.26316 -10.24593
 Alpha  occ. eigenvalues --  -10.24236 -10.24231 -10.23851 -10.23654 -10.23368
 Alpha  occ. eigenvalues --  -10.22932 -10.22572 -10.22439 -10.22129 -10.22107
 Alpha  occ. eigenvalues --  -10.21871 -10.21754 -10.21746 -10.21743 -10.21588
 Alpha  occ. eigenvalues --  -10.21485 -10.21377 -10.21302 -10.20832 -10.20620
 Alpha  occ. eigenvalues --  -10.20491 -10.20458 -10.20306 -10.20211 -10.20149
 Alpha  occ. eigenvalues --  -10.20112 -10.20016 -10.19963 -10.19945 -10.19785
 Alpha  occ. eigenvalues --  -10.19666 -10.19647 -10.19205 -10.19093 -10.19026
 Alpha  occ. eigenvalues --  -10.18652 -10.18616 -10.18283 -10.18006 -10.17946
 Alpha  occ. eigenvalues --  -10.17941 -10.17910 -10.17865 -10.17777 -10.17710
 Alpha  occ. eigenvalues --  -10.17678 -10.17346 -10.17195 -10.17051  -1.07741
 Alpha  occ. eigenvalues --   -1.05057  -1.01211  -0.98955  -0.97882  -0.97411
 Alpha  occ. eigenvalues --   -0.95794  -0.95035  -0.94544  -0.84947  -0.82962
 Alpha  occ. eigenvalues --   -0.82265  -0.81718  -0.81340  -0.81017  -0.80806
 Alpha  occ. eigenvalues --   -0.80193  -0.79843  -0.79405  -0.79384  -0.77796
 Alpha  occ. eigenvalues --   -0.76770  -0.76128  -0.75772  -0.75254  -0.74674
 Alpha  occ. eigenvalues --   -0.73760  -0.72887  -0.72484  -0.71460  -0.70588
 Alpha  occ. eigenvalues --   -0.69893  -0.69202  -0.68009  -0.67663  -0.67382
 Alpha  occ. eigenvalues --   -0.67046  -0.66886  -0.65872  -0.65197  -0.64783
 Alpha  occ. eigenvalues --   -0.64103  -0.63293  -0.62753  -0.62369  -0.61673
 Alpha  occ. eigenvalues --   -0.60969  -0.59053  -0.58812  -0.58439  -0.58041
 Alpha  occ. eigenvalues --   -0.57822  -0.56543  -0.55603  -0.55260  -0.55033
 Alpha  occ. eigenvalues --   -0.54786  -0.54208  -0.54164  -0.53470  -0.53376
 Alpha  occ. eigenvalues --   -0.51909  -0.50972  -0.50660  -0.50281  -0.49840
 Alpha  occ. eigenvalues --   -0.49813  -0.49415  -0.48376  -0.47956  -0.47795
 Alpha  occ. eigenvalues --   -0.47582  -0.47162  -0.46906  -0.46899  -0.46593
 Alpha  occ. eigenvalues --   -0.46165  -0.45951  -0.45937  -0.45860  -0.45610
 Alpha  occ. eigenvalues --   -0.45278  -0.45050  -0.45018  -0.44670  -0.44453
 Alpha  occ. eigenvalues --   -0.44327  -0.43924  -0.43665  -0.43483  -0.43275
 Alpha  occ. eigenvalues --   -0.43149  -0.42952  -0.42840  -0.42427  -0.42156
 Alpha  occ. eigenvalues --   -0.41861  -0.41739  -0.41688  -0.41563  -0.41434
 Alpha  occ. eigenvalues --   -0.41199  -0.40945  -0.40450  -0.40411  -0.40157
 Alpha  occ. eigenvalues --   -0.39921  -0.39848  -0.39502  -0.39375  -0.39343
 Alpha  occ. eigenvalues --   -0.39003  -0.38942  -0.38885  -0.38363  -0.38266
 Alpha  occ. eigenvalues --   -0.38224  -0.37840  -0.37706  -0.37542  -0.37367
 Alpha  occ. eigenvalues --   -0.37051  -0.36703  -0.36630  -0.36505  -0.36332
 Alpha  occ. eigenvalues --   -0.36099  -0.35727  -0.35612  -0.35406  -0.35196
 Alpha  occ. eigenvalues --   -0.34985  -0.34774  -0.34710  -0.34341  -0.34248
 Alpha  occ. eigenvalues --   -0.34061  -0.33966  -0.33905  -0.33848  -0.33341
 Alpha  occ. eigenvalues --   -0.33047  -0.32998  -0.32644  -0.32295  -0.32156
 Alpha  occ. eigenvalues --   -0.31563  -0.31492  -0.31248  -0.31162  -0.31019
 Alpha  occ. eigenvalues --   -0.30791  -0.30722  -0.30312  -0.29809  -0.29311
 Alpha  occ. eigenvalues --   -0.29276  -0.28836  -0.28508  -0.28140  -0.27832
 Alpha  occ. eigenvalues --   -0.26951  -0.26485  -0.26351  -0.25865  -0.25406
 Alpha  occ. eigenvalues --   -0.25085  -0.24246  -0.24145  -0.23227  -0.19924
 Alpha  occ. eigenvalues --   -0.19140
 Alpha virt. eigenvalues --   -0.09977  -0.07828  -0.04220  -0.01581  -0.01447
 Alpha virt. eigenvalues --   -0.00897   0.00264   0.00782   0.02015   0.02637
 Alpha virt. eigenvalues --    0.03233   0.03357   0.03618   0.04000   0.04136

 Mulliken charges:
               1
     1  C    0.012367
     2  C   -0.001317
     3  C   -0.061929
     4  C   -0.059384
     5  N   -0.120839
     6  C   -0.053752
     7  C    0.093813
     8  C   -0.095393
     9  C   -0.022835
    10  C    0.076764
    11  C    0.100955
    12  C    0.005488
    13  C    0.150270
    14  O   -0.289905
    15  O   -0.328795
    16  N   -0.088259
    17  C    0.007126
    18  C   -0.096445
    19  C    0.045913
    20  C   -0.024975
    21  C    0.015852
    22  C   -0.030131
    23  C   -0.110360
    24  N   -0.236252
    25  C    0.065629
    26  C   -0.075027
    27  C   -0.080787
    28  C    0.091564
    29  C    0.027983
    30  C    0.028024
    31  C    0.061309
    32  N   -0.011112
    33  C    0.014555
    34  C   -0.011670
    35  C   -0.030402
    36  C    0.089492
    37  C   -0.060420
    38  C    0.050581
    39  O   -0.190186
    40  C    0.015752
    41  C    0.240285
    42  O   -0.300530
    43  O   -0.342355
    44  C    0.088434
    45  C    0.343659
    46  C   -0.149678
    47  C   -0.104797
    48  C   -0.121048
    49  C    0.033588
    50  C   -0.064236
    51  C    0.187508
    52  C   -0.087995
    53  C    0.037329
    54  C   -0.043541
    55  C    0.032407
    56  C    0.058773
    57  C    0.036177
    58  C    0.041530
    59  C    0.060581
    60  C    0.006007
    61  C    0.020331
    62  C   -0.175312
    63  C   -0.029375
    64  C    0.115681
    65  H   -0.078491
    66  H    0.020266
    67  H   -0.033088
    68  H   -0.085882
    69  H   -0.015267
    70  H    0.025262
    71  H    0.022791
    72  H    0.071062
    73  H    0.038105
    74  H   -0.019559
    75  H    0.040913
    76  H    0.063626
    77  H    0.057111
    78  H    0.049027
    79  H    0.056128
    80  H    0.039925
    81  H    0.017111
    82  H    0.031899
    83  H    0.049297
    84  H    0.040651
    85  H    0.005448
    86  H   -0.017581
    87  H   -0.008688
    88  H   -0.015646
    89  H    0.010874
    90  H    0.009243
    91  H    0.066202
    92  H    0.046980
    93  H    0.066174
    94  H    0.006911
    95  H    0.066871
    96  H    0.076402
    97  H    0.080949
    98  H    0.053375
    99  H    0.010979
   100  H    0.004255
   101  H    0.053818
   102  H    0.071063
   103  H    0.056622
   104  H    0.038127
   105  H    0.026473
   106  H    0.015889
   107  H    0.020479
   108  H   -0.037368
   109  H   -0.103706
   110  H    0.016191
   111  H   -0.004389
   112  H   -0.002892
   113  H    0.016228
   114  H    0.006769
   115  H    0.003765
   116  H    0.013162
   117  H   -0.050553
   118  H   -0.014909
   119  H   -0.028703
   120  H   -0.036355
   121  H   -0.022886
   122  H   -0.011184
   123  H   -0.008110
   124  H   -0.006533
   125  H   -0.011158
   126  H   -0.030358
   127  H   -0.042212
   128  H   -0.002702
   129  H   -0.005543
   130  H    0.006253
   131  H    0.033888
   132  H    0.015027
   133  H    0.044012
   134  H   -0.011232
   135  H   -0.013861
   136  H    0.029157
   137  H    0.189987
   138  H    0.177423
 Sum of Mulliken charges =   0.00000

 Dipole moment (field-independent basis, Debye):
    X=              1.8629    Y=              4.4978    Z=              0.2537  Tot=              4.8750
 Quadrupole moment (field-independent basis, Debye-Ang):
   XX=           -325.0305   YY=           -384.3205   ZZ=           -399.8097
   XY=            -28.0667   XZ=              9.2572   YZ=              4.6820

 Normal termination of Gaussian 09 at Thu Aug  1 02:20:05 2019.
