 Gaussian 09, Revision D.01,
 Gaussian 09:  ES64L-G09RevD.01 24-Apr-2013

 --------------------------
 # td=(NStates=1) B3LYP/SVP
 --------------------------

 --
 TD
 --
 Symbolic Z-matrix:
 Charge =  0 Multiplicity = 1

                         Standard orientation:
 ---------------------------------------------------------------------
 Center     Atomic      Atomic             Coordinates (Angstroms)
 Number     Number       Type             X           Y           Z
 ---------------------------------------------------------------------
      1          6           0       -5.084503   -1.960974    0.468451
      2          6           0       -4.623171    2.666201    1.578602
      3          6           0       -9.237365    3.461797   -0.161937
      4          6           0       -9.813101   -1.298783   -1.102611
      5          7           0       -4.983080    0.505182    0.828440
      6          6           0       -4.491035   -0.858469    0.864309
      7          6           0       -3.031596   -0.675812    1.334714
      8          6           0       -2.954778    0.755016    1.826877
      9          6           0       -4.236048    1.388681    1.451404
     10          6           0       -2.893642    0.766889    3.331107
     11          6           0       -2.039552   -0.931144    0.166962
     12          6           0       -0.552166   -0.924371    0.615415
     13          6           0        0.316013   -1.266665   -0.530783
     14          8           0       -0.016829   -1.767946   -1.546666
     15          8           0        1.561242   -0.895930   -0.147325
     16          7           0       -6.967492    2.730319    0.582186
     17          6           0       -5.866744    3.410443    1.204189
     18          6           0       -6.054944    4.817142    1.183034
     19          6           0       -7.343639    4.984044    0.728184
     20          6           0       -7.855660    3.704767    0.277335
     21          6           0       -5.167183    5.847876    1.829872
     22          6           0       -7.968958    6.320922    0.514754
     23          6           0       -8.621974    6.685364   -0.580291
     24          7           0       -9.100671    0.925502   -0.531718
     25          6           0       -9.728283    2.161995   -0.595367
     26          6           0      -11.106503    2.026189   -1.096151
     27          6           0      -11.281771    0.644311   -1.398883
     28          6           0      -10.008452    0.039205   -0.936321
     29          6           0      -12.062294    3.208244   -1.314104
     30          6           0      -12.467704   -0.025734   -1.923025
     31          6           0      -12.435134   -0.300895   -3.398987
     32          7           0       -7.452050   -1.231228   -0.294749
     33          6           0       -8.522449   -1.909471   -0.792213
     34          6           0       -8.174984   -3.345741   -0.689642
     35          6           0       -6.902646   -3.377714   -0.207728
     36          6           0       -6.385595   -2.034163    0.005297
     37          6           0       -9.099409   -4.416415   -1.158300
     38          6           0       -5.797502   -4.222452    0.083170
     39          8           0       -5.724565   -5.492656    0.017143
     40          6           0       -4.602611   -3.397150    0.547581
     41          6           0       -4.011335   -3.744377    1.957133
     42          8           0       -4.207823   -3.329819    3.019187
     43          8           0       -3.303051   -4.828443    1.712726
     44          6           0       -2.883364   -5.589787    2.876517
     45          6           0        2.568311   -1.229799   -1.247891
     46          6           0        3.891444   -0.674781   -0.633636
     47          6           0        4.827772   -0.044869   -1.265508
     48          6           0        4.716456    0.529576   -2.611257
     49          6           0        6.138611    0.244920   -0.461544
     50          6           0        7.409792   -0.625875   -1.056531
     51          6           0        8.613325   -0.357883   -0.110139
     52          6           0        9.961015   -0.880390   -0.872062
     53          6           0       10.130676   -2.376428   -0.819264
     54          6           0       11.154010   -0.142751   -0.070569
     55          6           0       12.541744   -0.402352   -0.638810
     56          6           0       13.699426   -0.010003    0.137630
     57          6           0       15.117663   -0.144700   -0.411689
     58          6           0       15.413793   -1.587221   -0.694165
     59          6           0       16.200022    0.501251    0.458231
     60          6           0       17.593684    0.764998   -0.152964
     61          6           0       18.550363    1.702211    0.670025
     62          6           0       20.032372    1.717711    0.185500
     63          6           0       20.076481    2.297111   -1.250019
     64          6           0       20.907479    2.545288    1.103191
     65          1           0       -3.784102    3.260201    1.968489
     66          1           0       -9.980573    4.225347   -0.337573
     67          1           0      -10.586462   -2.144290   -1.369887
     68          1           0       -2.650652   -1.386515    2.057812
     69          1           0       -2.012073    1.247794    1.356768
     70          1           0       -2.091826    0.061649    3.617271
     71          1           0       -2.781308    1.860116    3.762444
     72          1           0       -3.781161    0.318889    3.499289
     73          1           0       -2.329881   -1.958330   -0.500643
     74          1           0       -2.223474   -0.154135   -0.629429
     75          1           0       -0.112658   -0.031231    0.873551
     76          1           0       -0.440900   -1.715738    1.480109
     77          1           0       -4.447817    5.885232    1.191572
     78          1           0       -5.854561    6.751447    2.020144
     79          1           0       -4.575239    5.412437    2.661049
     80          1           0       -7.954856    6.965738    1.542604
     81          1           0       -8.852300    5.993541   -1.451794
     82          1           0       -9.228490    7.678647   -0.566476
     83          1           0      -12.178414    3.971499   -0.462193
     84          1           0      -11.778283    3.821813   -2.242384
     85          1           0      -13.053370    2.728116   -1.416271
     86          1           0      -12.643428   -0.967861   -1.388958
     87          1           0      -13.287299    0.419929   -1.521074
     88          1           0      -12.294857    0.658154   -3.828633
     89          1           0      -11.561975   -0.977766   -3.771896
     90          1           0      -13.345488   -0.625646   -3.829775
     91          1           0       -9.887115   -4.524619   -0.432384
     92          1           0       -9.584542   -4.295377   -2.183990
     93          1           0       -8.518410   -5.362579   -0.874438
     94          1           0       -3.669999   -3.597991   -0.216212
     95          1           0       -1.911530   -6.239437    2.618111
     96          1           0       -2.331494   -4.863129    3.427761
     97          1           0       -3.654421   -6.062133    3.433084
     98          1           0        2.387961   -2.250483   -1.511622
     99          1           0        2.247554   -0.558812   -2.259460
    100          1           0        4.225456   -1.205551    0.292256
    101          1           0        4.942099    1.464186   -2.278317
    102          1           0        5.498299    0.230782   -3.201260
    103          1           0        3.789469    0.387259   -3.221738
    104          1           0        6.284835    1.395077   -0.714556
    105          1           0        6.131015    0.129941    0.488584
    106          1           0        7.220972   -1.601338   -1.076786
    107          1           0        7.555397   -0.277204   -2.037143
    108          1           0        8.846196    0.643284    0.098947
    109          1           0        8.564758   -0.988379    0.754110
    110          1           0        9.931224   -0.361564   -1.880817
    111          1           0        9.157103   -2.881907   -1.108119
    112          1           0       10.849126   -2.752492   -1.663901
    113          1           0       10.525087   -2.778160    0.263904
    114          1           0       11.062748    0.852346   -0.059553
    115          1           0       10.979601   -0.461637    0.957991
    116          1           0       12.574256   -1.592295   -1.028619
    117          1           0       12.546116    0.190149   -1.569791
    118          1           0       13.563128    0.905312    0.511552
    119          1           0       13.489765   -0.603451    1.228020
    120          1           0       15.125731    0.302418   -1.427391
    121          1           0       14.620613   -1.866738   -1.409374
    122          1           0       16.526846   -1.779552   -1.110814
    123          1           0       15.362157   -2.188558    0.205271
    124          1           0       15.850324    1.395314    0.946592
    125          1           0       16.234448   -0.260959    1.325297
    126          1           0       18.023250   -0.141888   -0.338304
    127          1           0       17.622980    1.263791   -1.019199
    128          1           0       18.012391    2.696708    0.687216
    129          1           0       18.489395    1.407080    1.838770
    130          1           0       20.476447    0.681650    0.159334
    131          1           0       19.558582    3.324999   -1.311526
    132          1           0       20.940623    2.636871   -1.849625
    133          1           0       19.409537    1.635987   -1.862961
    134          1           0       20.628904    2.263611    2.144264
    135          1           0       21.854754    2.605815    0.914794
    136          1           0       20.402410    3.582790    0.948508
    137          1           0       -7.012545    1.814838    0.045353
    138          1           0       -7.384932   -0.212976   -0.188113
 ---------------------------------------------------------------------

 SCF Done:  E(RB3LYP) =  -2733.06860780     A.U. after   17 cycles

 Excitation energies and oscillator strengths:

 Excited State   1:      Singlet-A      2.0499 eV  604.83 nm  f=0.1642  <S**2>=0.000
     235 -> 237       -0.27298
     235 -> 238        0.26282
     236 -> 237        0.56912
     236 -> 238        0.16885
 This state for optimization and/or second-order correction.
 Total Energy, E(TD-HF/TD-KS) =  -2732.99327561
 Copying the excited state density for this state as the 1-particle RhoCI density.

 The electronic state is 1-A.
 Alpha  occ. eigenvalues --  -19.17022 -19.16925 -19.12798 -19.12309 -19.10616
 Alpha  occ. eigenvalues --  -14.37318 -14.37181 -14.31001 -14.29930 -10.31216
 Alpha  occ. eigenvalues --  -10.30146 -10.26831 -10.25909 -10.24845 -10.24519
 Alpha  occ. eigenvalues --  -10.24026 -10.23513 -10.23163 -10.22338 -10.21986
 Alpha  occ. eigenvalues --  -10.21749 -10.21729 -10.21262 -10.21220 -10.21069
 Alpha  occ. eigenvalues --  -10.21008 -10.20760 -10.20625 -10.20434 -10.20384
 Alpha  occ. eigenvalues --  -10.20315 -10.20296 -10.20268 -10.19975 -10.19858
 Alpha  occ. eigenvalues --  -10.19798 -10.19728 -10.19707 -10.19619 -10.19579
 Alpha  occ. eigenvalues --  -10.19523 -10.19509 -10.19422 -10.19202 -10.19157
 Alpha  occ. eigenvalues --  -10.19094 -10.18829 -10.18658 -10.18653 -10.18536
 Alpha  occ. eigenvalues --  -10.18395 -10.18381 -10.18324 -10.18256 -10.18114
 Alpha  occ. eigenvalues --  -10.18082 -10.18071 -10.17986 -10.17973 -10.17848
 Alpha  occ. eigenvalues --  -10.17834 -10.17351 -10.16909 -10.16668  -1.11349
 Alpha  occ. eigenvalues --   -1.08743  -1.02312  -1.00776  -0.98985  -0.97841
 Alpha  occ. eigenvalues --   -0.97318  -0.93361  -0.93063  -0.85663  -0.83092
 Alpha  occ. eigenvalues --   -0.82463  -0.82358  -0.80895  -0.80800  -0.80616
 Alpha  occ. eigenvalues --   -0.80084  -0.79930  -0.79248  -0.78651  -0.77665
 Alpha  occ. eigenvalues --   -0.77020  -0.76616  -0.75335  -0.74684  -0.74077
 Alpha  occ. eigenvalues --   -0.73633  -0.72923  -0.72715  -0.72566  -0.71861
 Alpha  occ. eigenvalues --   -0.70525  -0.69207  -0.68919  -0.68043  -0.67741
 Alpha  occ. eigenvalues --   -0.67378  -0.67312  -0.66426  -0.66274  -0.64866
 Alpha  occ. eigenvalues --   -0.63588  -0.62580  -0.62203  -0.62148  -0.61298
 Alpha  occ. eigenvalues --   -0.60767  -0.60361  -0.58479  -0.57549  -0.57467
 Alpha  occ. eigenvalues --   -0.56531  -0.55972  -0.55686  -0.55563  -0.55471
 Alpha  occ. eigenvalues --   -0.55300  -0.54845  -0.54536  -0.52910  -0.52612
 Alpha  occ. eigenvalues --   -0.52358  -0.51880  -0.51446  -0.50749  -0.50287
 Alpha  occ. eigenvalues --   -0.49825  -0.49612  -0.49018  -0.48895  -0.48442
 Alpha  occ. eigenvalues --   -0.48072  -0.47750  -0.47594  -0.47213  -0.47034
 Alpha  occ. eigenvalues --   -0.46929  -0.46506  -0.46319  -0.45992  -0.45716
 Alpha  occ. eigenvalues --   -0.45444  -0.45293  -0.45227  -0.44893  -0.44499
 Alpha  occ. eigenvalues --   -0.44459  -0.44425  -0.44163  -0.43876  -0.43701
 Alpha  occ. eigenvalues --   -0.43449  -0.43235  -0.43151  -0.42925  -0.42781
 Alpha  occ. eigenvalues --   -0.42490  -0.42307  -0.41977  -0.41792  -0.41682
 Alpha  occ. eigenvalues --   -0.41418  -0.41183  -0.40816  -0.40731  -0.40669
 Alpha  occ. eigenvalues --   -0.40376  -0.40208  -0.39838  -0.39602  -0.39328
 Alpha  occ. eigenvalues --   -0.39146  -0.38837  -0.38715  -0.38387  -0.38293
 Alpha  occ. eigenvalues --   -0.38163  -0.38049  -0.37887  -0.37730  -0.37629
 Alpha  occ. eigenvalues --   -0.37513  -0.37145  -0.37065  -0.37011  -0.36757
 Alpha  occ. eigenvalues --   -0.36638  -0.36342  -0.36253  -0.35906  -0.35787
 Alpha  occ. eigenvalues --   -0.35698  -0.35473  -0.35162  -0.35053  -0.34512
 Alpha  occ. eigenvalues --   -0.34475  -0.34232  -0.34126  -0.34027  -0.33781
 Alpha  occ. eigenvalues --   -0.33750  -0.33649  -0.33168  -0.32859  -0.32665
 Alpha  occ. eigenvalues --   -0.32141  -0.31826  -0.31734  -0.31491  -0.31243
 Alpha  occ. eigenvalues --   -0.31124  -0.30844  -0.30717  -0.30255  -0.30092
 Alpha  occ. eigenvalues --   -0.29911  -0.29359  -0.28677  -0.28612  -0.27867
 Alpha  occ. eigenvalues --   -0.27138  -0.26749  -0.26343  -0.26034  -0.25157
 Alpha  occ. eigenvalues --   -0.25067  -0.24370  -0.24002  -0.22440  -0.19551
 Alpha  occ. eigenvalues --   -0.19035
 Alpha virt. eigenvalues --   -0.10553  -0.07479  -0.04560  -0.01530  -0.00162
 Alpha virt. eigenvalues --    0.00730   0.01394   0.01515   0.02167   0.04135
 Alpha virt. eigenvalues --    0.04156   0.04245   0.04586   0.04656   0.05096

 Mulliken charges:
               1
     1  C    0.076801
     2  C   -0.030598
     3  C   -0.034932
     4  C   -0.130009
     5  N   -0.220728
     6  C   -0.075073
     7  C   -0.009157
     8  C    0.005413
     9  C   -0.057815
    10  C    0.094135
    11  C   -0.063413
    12  C    0.075380
    13  C    0.144328
    14  O   -0.203709
    15  O   -0.346102
    16  N   -0.088898
    17  C    0.103281
    18  C   -0.152945
    19  C   -0.030343
    20  C    0.057748
    21  C    0.227551
    22  C   -0.064227
    23  C   -0.064857
    24  N   -0.238578
    25  C    0.036791
    26  C   -0.142801
    27  C   -0.129734
    28  C    0.134777
    29  C    0.048039
    30  C    0.128374
    31  C    0.053888
    32  N   -0.018188
    33  C    0.012187
    34  C   -0.186504
    35  C    0.066070
    36  C    0.046306
    37  C    0.103392
    38  C    0.050469
    39  O   -0.234531
    40  C   -0.075739
    41  C    0.174986
    42  O   -0.159732
    43  O   -0.290283
    44  C    0.188724
    45  C    0.192195
    46  C   -0.050749
    47  C   -0.170219
    48  C    0.192343
    49  C    0.086319
    50  C    0.091157
    51  C    0.069540
    52  C   -0.146734
    53  C   -0.007809
    54  C    0.068164
    55  C    0.005107
    56  C    0.070877
    57  C   -0.044094
    58  C    0.010840
    59  C    0.045481
    60  C    0.140408
    61  C   -0.068165
    62  C   -0.077956
    63  C   -0.017456
    64  C    0.115494
    65  H   -0.046260
    66  H   -0.028636
    67  H    0.024428
    68  H   -0.015916
    69  H    0.008117
    70  H    0.007325
    71  H    0.029510
    72  H   -0.003767
    73  H    0.046702
    74  H    0.005170
    75  H    0.005969
    76  H    0.048166
    77  H   -0.035822
    78  H    0.042766
    79  H    0.016344
    80  H    0.051003
    81  H    0.051927
    82  H    0.038811
    83  H    0.037355
    84  H    0.040356
    85  H    0.011875
    86  H   -0.024130
    87  H   -0.040142
    88  H   -0.008265
    89  H    0.028390
    90  H   -0.003566
    91  H    0.009892
    92  H    0.054510
    93  H    0.040261
    94  H    0.094446
    95  H    0.040497
    96  H    0.006103
    97  H    0.048532
    98  H    0.034556
    99  H    0.044745
   100  H   -0.004532
   101  H   -0.014369
   102  H   -0.012629
   103  H    0.022722
   104  H    0.009833
   105  H   -0.054651
   106  H   -0.031172
   107  H   -0.015869
   108  H   -0.016552
   109  H   -0.006485
   110  H    0.000970
   111  H    0.011934
   112  H    0.033873
   113  H    0.041664
   114  H   -0.044631
   115  H   -0.019763
   116  H    0.014531
   117  H   -0.020723
   118  H   -0.061311
   119  H   -0.019277
   120  H   -0.018108
   121  H    0.014422
   122  H    0.019497
   123  H   -0.003966
   124  H   -0.025452
   125  H   -0.007601
   126  H   -0.033371
   127  H   -0.038865
   128  H    0.004844
   129  H    0.003717
   130  H    0.007262
   131  H   -0.004639
   132  H    0.012417
   133  H    0.013069
   134  H    0.002993
   135  H   -0.029957
   136  H   -0.005534
   137  H    0.188156
   138  H    0.141813
 Sum of Mulliken charges =   0.00000

 Dipole moment (field-independent basis, Debye):
    X=              2.5221    Y=              4.7240    Z=             -0.4664  Tot=              5.3754
 Quadrupole moment (field-independent basis, Debye-Ang):
   XX=           -346.3411   YY=           -386.6433   ZZ=           -393.0614
   XY=            -22.9507   XZ=              4.0462   YZ=             -4.8397

 Normal termination of Gaussian 09 at Sun Aug  4 00:40:08 2019.
