 Gaussian 09, Revision D.01,
 Gaussian 09:  ES64L-G09RevD.01 24-Apr-2013

 --------------------------
 # td=(NStates=1) B3LYP/SVP
 --------------------------

 --
 TD
 --
 Symbolic Z-matrix:
 Charge =  0 Multiplicity = 1

                         Standard orientation:
 ---------------------------------------------------------------------
 Center     Atomic      Atomic             Coordinates (Angstroms)
 Number     Number       Type             X           Y           Z
 ---------------------------------------------------------------------
      1          6           0       -5.106110   -1.975256    0.498612
      2          6           0       -4.739582    2.823466    1.287848
      3          6           0       -9.507617    3.188194   -0.052017
      4          6           0       -9.755058   -1.683040   -0.769113
      5          7           0       -5.204361    0.407728    0.748698
      6          6           0       -4.510726   -0.695069    0.783430
      7          6           0       -3.057327   -0.495260    1.242515
      8          6           0       -3.089206    0.899584    1.912920
      9          6           0       -4.395012    1.453334    1.253724
     10          6           0       -3.054377    1.111365    3.304977
     11          6           0       -2.066550   -0.749409    0.136317
     12          6           0       -0.621241   -0.663250    0.597535
     13          6           0        0.424022   -0.887731   -0.617062
     14          8           0        0.091422   -1.139076   -1.790065
     15          8           0        1.616510   -0.723862   -0.254575
     16          7           0       -7.126118    2.730631    0.462300
     17          6           0       -5.944715    3.465809    0.856153
     18          6           0       -6.301071    4.766873    0.948303
     19          6           0       -7.614297    4.922850    0.496762
     20          6           0       -8.143435    3.604157    0.302576
     21          6           0       -5.424886    5.923184    1.425081
     22          6           0       -8.266528    6.188980    0.243737
     23          6           0       -9.086422    6.583820   -0.611570
     24          7           0       -9.274125    0.670805   -0.367911
     25          6           0       -9.922399    1.913721   -0.393889
     26          6           0      -11.292811    1.718912   -0.783921
     27          6           0      -11.485081    0.374399   -1.112021
     28          6           0      -10.170416   -0.260994   -0.835183
     29          6           0      -12.300392    2.788593   -0.865477
     30          6           0      -12.702233   -0.312483   -1.755962
     31          6           0      -12.669966   -0.402166   -3.267402
     32          7           0       -7.526249   -1.349701   -0.160577
     33          6           0       -8.525179   -2.162429   -0.504158
     34          6           0       -8.110927   -3.509932   -0.587305
     35          6           0       -6.724957   -3.478506   -0.318672
     36          6           0       -6.439894   -2.092298    0.061758
     37          6           0       -8.901095   -4.712196   -1.034517
     38          6           0       -5.557026   -4.253852    0.048887
     39          8           0       -5.367345   -5.495289   -0.031017
     40          6           0       -4.482191   -3.362483    0.390681
     41          6           0       -3.789804   -3.827342    1.760302
     42          8           0       -3.977660   -3.424173    2.831576
     43          8           0       -2.929361   -4.859227    1.539153
     44          6           0       -2.405539   -5.440188    2.736909
     45          6           0        2.578721   -0.962103   -1.157059
     46          6           0        3.939953   -0.806133   -0.680122
     47          6           0        4.977024    0.151477   -0.993133
     48          6           0        4.843399    1.036888   -2.270837
     49          6           0        6.174134    0.248255   -0.303166
     50          6           0        7.505757   -0.278571   -1.128343
     51          6           0        8.775694   -0.036459   -0.234214
     52          6           0        9.995857   -0.378952   -0.988474
     53          6           0       10.029373   -1.937736   -1.539612
     54          6           0       11.201838   -0.139946   -0.030808
     55          6           0       12.619143   -0.354622   -0.663899
     56          6           0       13.739113    0.142363    0.282182
     57          6           0       15.249574   -0.059902   -0.287512
     58          6           0       15.593619   -1.565711   -0.189173
     59          6           0       16.267066    0.653985    0.602283
     60          6           0       17.682418    0.508332    0.007831
     61          6           0       18.716468    1.425070    0.691229
     62          6           0       20.164458    1.363397    0.239905
     63          6           0       20.381146    1.651142   -1.330477
     64          6           0       21.042783    2.246741    1.078174
     65          1           0       -3.797129    3.471814    1.364751
     66          1           0      -10.121158    3.995920   -0.359690
     67          1           0      -10.440741   -2.392205   -1.128745
     68          1           0       -2.857820   -1.089890    2.203698
     69          1           0       -2.203777    1.336608    1.370700
     70          1           0       -2.096453    0.768149    3.861047
     71          1           0       -3.277486    2.199974    3.362713
     72          1           0       -3.780739    0.422692    3.550161
     73          1           0       -2.592893   -1.597450   -0.548136
     74          1           0       -2.366037    0.166912   -0.545941
     75          1           0       -0.322479    0.510719    0.911311
     76          1           0       -0.507018   -1.323309    1.416776
     77          1           0       -4.751494    6.153018    0.732342
     78          1           0       -6.228730    6.816385    1.492486
     79          1           0       -4.926827    5.575843    2.543102
     80          1           0       -8.077289    6.742057    1.053006
     81          1           0       -9.517889    6.080619   -1.591574
     82          1           0       -9.476711    7.650432   -0.420849
     83          1           0      -12.636888    3.199722    0.107479
     84          1           0      -12.031920    3.770266   -1.401345
     85          1           0      -13.293914    2.346713   -1.322417
     86          1           0      -12.792587   -1.446033   -1.361442
     87          1           0      -13.531854    0.225403   -1.430450
     88          1           0      -12.369426    0.712906   -3.712627
     89          1           0      -11.830407   -0.994967   -3.538902
     90          1           0      -13.452080   -0.952098   -3.818497
     91          1           0       -9.878241   -4.963512   -0.542372
     92          1           0       -9.266497   -4.653718   -2.119788
     93          1           0       -8.316159   -5.460048   -0.723686
     94          1           0       -3.624340   -3.315143   -0.365350
     95          1           0       -2.011768   -6.697411    2.368230
     96          1           0       -1.582060   -4.831802    3.224471
     97          1           0       -3.366235   -5.499744    3.509243
     98          1           0        2.450817   -2.044850   -1.567666
     99          1           0        2.311069   -0.261784   -2.068647
    100          1           0        4.079694   -1.356364    0.379286
    101          1           0        5.051519    2.169165   -2.199476
    102          1           0        5.705590    0.735146   -2.991654
    103          1           0        3.982577    1.046216   -2.575061
    104          1           0        6.455676    1.391480    0.016550
    105          1           0        6.154442   -0.299730    0.618895
    106          1           0        7.149606   -1.342378   -1.425652
    107          1           0        7.527785    0.571105   -1.928664
    108          1           0        8.858068    0.979321    0.067281
    109          1           0        8.611816   -0.695436    0.781026
    110          1           0       10.156515    0.242490   -2.043836
    111          1           0        9.006755   -1.966130   -2.114918
    112          1           0       10.941215   -2.403275   -2.170662
    113          1           0        9.819604   -2.732331   -0.763519
    114          1           0       11.424166    0.922009    0.265626
    115          1           0       11.289477   -0.763373    0.769910
    116          1           0       12.741845   -1.457176   -1.125154
    117          1           0       12.691956    0.487041   -1.505276
    118          1           0       13.409888    1.211525    0.557739
    119          1           0       13.686088   -0.382775    1.368508
    120          1           0       15.179708    0.263152   -1.556778
    121          1           0       14.881676   -2.490573   -0.516125
    122          1           0       16.454581   -1.777915   -0.867518
    123          1           0       15.914770   -1.719570    0.964275
    124          1           0       15.802765    1.742629    0.552727
    125          1           0       16.255679    0.261500    1.662273
    126          1           0       17.954875   -0.520464    0.139329
    127          1           0       17.695130    0.637443   -1.118901
    128          1           0       18.436946    2.472673    0.663609
    129          1           0       18.509672    1.317582    1.892424
    130          1           0       20.440096    0.252660    0.352545
    131          1           0       20.134147    2.856824   -1.558122
    132          1           0       21.493450    1.310801   -1.618864
    133          1           0       19.542126    1.090125   -1.743799
    134          1           0       20.804124    2.239224    2.148711
    135          1           0       22.174353    2.153492    0.810250
    136          1           0       20.875215    3.390247    0.749534
    137          1           0       -6.936402    1.699806    0.137328
    138          1           0       -7.769511   -0.266824   -0.028577
 ---------------------------------------------------------------------

 SCF Done:  E(RB3LYP) =  -2732.95936702     A.U. after   17 cycles

 Excitation energies and oscillator strengths:

 Excited State   1:      Singlet-A      2.0128 eV  615.99 nm  f=0.1271  <S**2>=0.000
     235 -> 238       -0.30263
     236 -> 237        0.62490
 This state for optimization and/or second-order correction.
 Total Energy, E(TD-HF/TD-KS) =  -2732.88539892
 Copying the excited state density for this state as the 1-particle RhoCI density.

 The electronic state is 1-A.
 Alpha  occ. eigenvalues --  -19.20029 -19.17334 -19.13442 -19.11867 -19.11442
 Alpha  occ. eigenvalues --  -14.36683 -14.36551 -14.33017 -14.30742 -10.32176
 Alpha  occ. eigenvalues --  -10.31846 -10.27312 -10.27249 -10.25896 -10.23728
 Alpha  occ. eigenvalues --  -10.23677 -10.23407 -10.23263 -10.22791 -10.22788
 Alpha  occ. eigenvalues --  -10.22732 -10.22670 -10.22174 -10.22138 -10.21715
 Alpha  occ. eigenvalues --  -10.21714 -10.21565 -10.21416 -10.21359 -10.21296
 Alpha  occ. eigenvalues --  -10.21122 -10.20607 -10.20589 -10.20589 -10.20563
 Alpha  occ. eigenvalues --  -10.20382 -10.20252 -10.20175 -10.20133 -10.20122
 Alpha  occ. eigenvalues --  -10.20075 -10.19892 -10.19858 -10.19836 -10.19814
 Alpha  occ. eigenvalues --  -10.19801 -10.19742 -10.19695 -10.19634 -10.19605
 Alpha  occ. eigenvalues --  -10.19588 -10.19574 -10.19465 -10.19462 -10.19234
 Alpha  occ. eigenvalues --  -10.19058 -10.19053 -10.18940 -10.18823 -10.18803
 Alpha  occ. eigenvalues --  -10.18648 -10.18500 -10.18281 -10.17830  -1.15597
 Alpha  occ. eigenvalues --   -1.11058  -1.02069  -1.00582  -0.99738  -0.99593
 Alpha  occ. eigenvalues --   -0.96898  -0.94736  -0.92619  -0.85799  -0.82895
 Alpha  occ. eigenvalues --   -0.82437  -0.82261  -0.81500  -0.81115  -0.80899
 Alpha  occ. eigenvalues --   -0.80336  -0.79828  -0.79363  -0.79027  -0.78561
 Alpha  occ. eigenvalues --   -0.77800  -0.76473  -0.76038  -0.75749  -0.74133
 Alpha  occ. eigenvalues --   -0.72821  -0.72547  -0.72229  -0.71293  -0.70743
 Alpha  occ. eigenvalues --   -0.70280  -0.68954  -0.68649  -0.68352  -0.67371
 Alpha  occ. eigenvalues --   -0.66338  -0.66185  -0.66042  -0.65663  -0.65430
 Alpha  occ. eigenvalues --   -0.64143  -0.62787  -0.62269  -0.61785  -0.61492
 Alpha  occ. eigenvalues --   -0.60609  -0.59709  -0.58261  -0.57529  -0.57099
 Alpha  occ. eigenvalues --   -0.56456  -0.55522  -0.55491  -0.54852  -0.54763
 Alpha  occ. eigenvalues --   -0.54551  -0.54380  -0.54128  -0.53738  -0.53186
 Alpha  occ. eigenvalues --   -0.52627  -0.52622  -0.52218  -0.51929  -0.51042
 Alpha  occ. eigenvalues --   -0.50708  -0.49792  -0.49126  -0.48999  -0.48470
 Alpha  occ. eigenvalues --   -0.47975  -0.47803  -0.47550  -0.47170  -0.46985
 Alpha  occ. eigenvalues --   -0.46686  -0.46485  -0.46301  -0.46091  -0.45910
 Alpha  occ. eigenvalues --   -0.45497  -0.45389  -0.45260  -0.44902  -0.44816
 Alpha  occ. eigenvalues --   -0.44699  -0.44271  -0.44233  -0.44038  -0.43812
 Alpha  occ. eigenvalues --   -0.43414  -0.43329  -0.43034  -0.42678  -0.42361
 Alpha  occ. eigenvalues --   -0.42209  -0.42160  -0.41816  -0.41451  -0.41341
 Alpha  occ. eigenvalues --   -0.41186  -0.40999  -0.40899  -0.40560  -0.40410
 Alpha  occ. eigenvalues --   -0.40016  -0.39879  -0.39847  -0.39416  -0.39167
 Alpha  occ. eigenvalues --   -0.38982  -0.38525  -0.38405  -0.38313  -0.38022
 Alpha  occ. eigenvalues --   -0.37843  -0.37742  -0.37606  -0.37364  -0.37291
 Alpha  occ. eigenvalues --   -0.37240  -0.37018  -0.36802  -0.36771  -0.36651
 Alpha  occ. eigenvalues --   -0.36599  -0.36496  -0.36118  -0.35964  -0.35780
 Alpha  occ. eigenvalues --   -0.35451  -0.35217  -0.34960  -0.34527  -0.34021
 Alpha  occ. eigenvalues --   -0.33929  -0.33919  -0.33765  -0.33510  -0.33385
 Alpha  occ. eigenvalues --   -0.33164  -0.32974  -0.32867  -0.32707  -0.32327
 Alpha  occ. eigenvalues --   -0.32109  -0.31887  -0.31769  -0.31712  -0.31057
 Alpha  occ. eigenvalues --   -0.31036  -0.30991  -0.30826  -0.30703  -0.30361
 Alpha  occ. eigenvalues --   -0.29612  -0.29470  -0.28751  -0.28535  -0.28221
 Alpha  occ. eigenvalues --   -0.27980  -0.27199  -0.26933  -0.26630  -0.26407
 Alpha  occ. eigenvalues --   -0.24882  -0.24349  -0.23496  -0.22799  -0.19885
 Alpha  occ. eigenvalues --   -0.19338
 Alpha virt. eigenvalues --   -0.10813  -0.08361  -0.04861  -0.02866  -0.01364
 Alpha virt. eigenvalues --   -0.00142  -0.00039   0.00815   0.02225   0.03170
 Alpha virt. eigenvalues --    0.03506   0.03787   0.03983   0.04227   0.04234

 Mulliken charges:
               1
     1  C   -0.035918
     2  C   -0.067747
     3  C   -0.065557
     4  C   -0.067670
     5  N   -0.163980
     6  C   -0.094275
     7  C   -0.089551
     8  C   -0.053875
     9  C   -0.057507
    10  C    0.164066
    11  C    0.026396
    12  C    0.017187
    13  C    0.159690
    14  O   -0.274638
    15  O   -0.160455
    16  N   -0.146159
    17  C    0.083970
    18  C   -0.137011
    19  C    0.028271
    20  C    0.047397
    21  C    0.091851
    22  C    0.018963
    23  C   -0.080474
    24  N   -0.296737
    25  C    0.150230
    26  C   -0.124676
    27  C   -0.099363
    28  C    0.054522
    29  C    0.046290
    30  C    0.075691
    31  C    0.006699
    32  N   -0.017490
    33  C    0.098305
    34  C   -0.134092
    35  C   -0.022196
    36  C    0.068717
    37  C    0.132709
    38  C    0.072311
    39  O   -0.218724
    40  C    0.008493
    41  C    0.177679
    42  O   -0.166239
    43  O   -0.288281
    44  C    0.060977
    45  C    0.175622
    46  C   -0.117921
    47  C   -0.112979
    48  C    0.147482
    49  C    0.035454
    50  C   -0.065730
    51  C    0.065685
    52  C   -0.086355
    53  C   -0.070563
    54  C    0.074004
    55  C   -0.054280
    56  C   -0.020882
    57  C   -0.129971
    58  C   -0.048537
    59  C    0.012961
    60  C    0.038912
    61  C   -0.008270
    62  C   -0.079963
    63  C   -0.042158
    64  C    0.016967
    65  H    0.018694
    66  H   -0.046295
    67  H   -0.053879
    68  H    0.006182
    69  H   -0.029733
    70  H    0.020078
    71  H    0.018122
    72  H   -0.001016
    73  H    0.047081
    74  H    0.012282
    75  H    0.067192
    76  H    0.027746
    77  H    0.004328
    78  H    0.023800
    79  H    0.055854
    80  H   -0.020418
    81  H    0.045494
    82  H    0.026495
    83  H    0.019827
    84  H    0.031559
    85  H    0.022940
    86  H    0.014628
    87  H   -0.011254
    88  H    0.026783
    89  H   -0.010473
    90  H    0.020063
    91  H    0.014098
    92  H    0.046024
    93  H    0.005392
    94  H    0.081909
    95  H    0.067040
    96  H    0.050166
    97  H    0.065724
    98  H    0.033099
    99  H    0.030858
   100  H    0.012479
   101  H    0.010900
   102  H    0.041872
   103  H   -0.088579
   104  H    0.020094
   105  H   -0.016023
   106  H    0.057370
   107  H    0.026083
   108  H   -0.007761
   109  H    0.020913
   110  H    0.024617
   111  H    0.019774
   112  H    0.051658
   113  H    0.010005
   114  H   -0.005490
   115  H   -0.025493
   116  H    0.027102
   117  H    0.001350
   118  H    0.002771
   119  H   -0.003486
   120  H    0.028362
   121  H    0.030567
   122  H    0.022928
   123  H    0.023720
   124  H    0.014193
   125  H    0.020917
   126  H   -0.007861
   127  H    0.012781
   128  H   -0.022926
   129  H   -0.004847
   130  H    0.000236
   131  H    0.027385
   132  H    0.049049
   133  H    0.011940
   134  H    0.013646
   135  H    0.017741
   136  H    0.004296
   137  H    0.194638
   138  H    0.195412
 Sum of Mulliken charges =   0.00000

 Dipole moment (field-independent basis, Debye):
    X=              2.2146    Y=              4.2951    Z=              0.6809  Tot=              4.8802
 Quadrupole moment (field-independent basis, Debye-Ang):
   XX=           -353.2257   YY=           -391.2453   ZZ=           -401.6802
   XY=            -20.9303   XZ=             14.1403   YZ=             -2.2911

 Normal termination of Gaussian 09 at Fri Jul 26 09:08:20 2019.
