 Gaussian 09, Revision D.01,
 Gaussian 09:  ES64L-G09RevD.01 24-Apr-2013

 --------------------------
 # td=(NStates=1) B3LYP/SVP
 --------------------------

 --
 TD
 --
 Symbolic Z-matrix:
 Charge =  0 Multiplicity = 1

                         Standard orientation:
 ---------------------------------------------------------------------
 Center     Atomic      Atomic             Coordinates (Angstroms)
 Number     Number       Type             X           Y           Z
 ---------------------------------------------------------------------
      1          6           0       -5.127754   -1.899701    0.351037
      2          6           0       -4.778585    2.805006    1.221714
      3          6           0       -9.487334    3.280753   -0.120955
      4          6           0       -9.844696   -1.536716   -0.751093
      5          7           0       -5.121357    0.458075    0.683568
      6          6           0       -4.456309   -0.682955    0.766944
      7          6           0       -2.974449   -0.543673    1.196921
      8          6           0       -3.063273    0.927176    1.676923
      9          6           0       -4.396862    1.437190    1.234759
     10          6           0       -2.944281    1.040631    3.229339
     11          6           0       -2.088900   -0.814587    0.014182
     12          6           0       -0.569310   -0.911762    0.639083
     13          6           0        0.439003   -1.068155   -0.549423
     14          8           0        0.030598   -1.179485   -1.736648
     15          8           0        1.777776   -1.059746   -0.108180
     16          7           0       -7.084209    2.835688    0.493703
     17          6           0       -5.951421    3.421201    0.949219
     18          6           0       -6.308160    4.871780    0.967084
     19          6           0       -7.694366    5.020334    0.438486
     20          6           0       -8.207697    3.728184    0.218108
     21          6           0       -5.317657    5.889166    1.377250
     22          6           0       -8.237779    6.327832    0.278993
     23          6           0       -9.309526    6.552200   -0.558434
     24          7           0       -9.252001    0.806419   -0.294868
     25          6           0       -9.975239    1.965997   -0.484791
     26          6           0      -11.290932    1.791217   -1.016028
     27          6           0      -11.350817    0.451130   -1.120995
     28          6           0      -10.201561   -0.172263   -0.618180
     29          6           0      -12.334180    2.961283   -1.189399
     30          6           0      -12.704963   -0.186939   -1.626633
     31          6           0      -12.667875   -0.551193   -3.134449
     32          7           0       -7.553700   -1.261553   -0.293774
     33          6           0       -8.637463   -2.045983   -0.548489
     34          6           0       -8.239198   -3.384586   -0.537151
     35          6           0       -6.938323   -3.485263   -0.065148
     36          6           0       -6.413179   -2.064043   -0.042255
     37          6           0       -9.098852   -4.589721   -0.708401
     38          6           0       -5.726295   -4.326305    0.098289
     39          8           0       -5.578413   -5.537404    0.092866
     40          6           0       -4.580070   -3.191084    0.374837
     41          6           0       -3.850251   -3.752327    1.712104
     42          8           0       -4.028021   -3.071093    2.734644
     43          8           0       -3.018228   -4.652810    1.533571
     44          6           0       -2.545958   -5.373309    2.625338
     45          6           0        2.716796   -1.216956   -1.221325
     46          6           0        4.076751   -0.945296   -0.516702
     47          6           0        5.067567   -0.154785   -0.981152
     48          6           0        4.950747    0.534330   -2.320190
     49          6           0        6.385954    0.079445   -0.191474
     50          6           0        7.560227   -0.394756   -0.879213
     51          6           0        8.895874   -0.245967   -0.133193
     52          6           0       10.082493   -0.723985   -0.907995
     53          6           0        9.989367   -2.207343   -1.247896
     54          6           0       11.304500   -0.415875    0.015162
     55          6           0       12.621892   -0.466919   -0.779158
     56          6           0       13.813019   -0.131655    0.202167
     57          6           0       15.177370   -0.093640   -0.440884
     58          6           0       15.767781   -1.600036   -0.854059
     59          6           0       16.351810    0.417766    0.597684
     60          6           0       17.744738    0.801841   -0.041692
     61          6           0       18.665439    1.619468    0.747941
     62          6           0       20.106090    1.717261    0.225433
     63          6           0       20.041783    2.716436   -1.112279
     64          6           0       21.061927    2.275282    1.265722
     65          1           0       -4.036625    3.635572    1.651756
     66          1           0      -10.230652    4.154588   -0.352216
     67          1           0      -10.771853   -2.109633   -1.041273
     68          1           0       -2.712480   -1.279861    1.928507
     69          1           0       -2.066869    1.279411    1.105261
     70          1           0       -1.952528    0.453427    3.610828
     71          1           0       -2.974318    2.160460    3.650439
     72          1           0       -3.739013    0.551706    3.695673
     73          1           0       -2.515291   -1.750095   -0.570655
     74          1           0       -2.052816    0.014405   -0.699866
     75          1           0       -0.172539   -0.078464    1.564904
     76          1           0       -0.450092   -1.892317    1.227545
     77          1           0       -4.490163    5.747154    0.700017
     78          1           0       -5.682633    6.979436    1.473511
     79          1           0       -4.992597    5.567336    2.395822
     80          1           0       -7.858381    7.059204    0.878945
     81          1           0       -9.658286    5.769297   -1.353328
     82          1           0       -9.835352    7.439531   -0.674602
     83          1           0      -12.583464    3.306628   -0.167296
     84          1           0      -11.764104    3.789701   -1.763548
     85          1           0      -13.293187    2.590412   -1.710094
     86          1           0      -12.862748   -1.110876   -0.935178
     87          1           0      -13.564414    0.401127   -1.571385
     88          1           0      -12.583438    0.289118   -3.595317
     89          1           0      -11.720776   -1.152609   -3.376183
     90          1           0      -13.532368   -1.035228   -3.370015
     91          1           0       -9.751674   -4.691954   -0.067862
     92          1           0       -9.697674   -4.546428   -1.555150
     93          1           0       -8.520571   -5.481539   -0.663264
     94          1           0       -3.794902   -3.543545   -0.470489
     95          1           0       -2.062989   -6.335849    2.153759
     96          1           0       -1.789151   -4.795093    3.316978
     97          1           0       -3.460560   -5.679467    3.272916
     98          1           0        2.662775   -2.201480   -1.654383
     99          1           0        2.270258   -0.681629   -2.108651
    100          1           0        4.098881   -1.267601    0.558764
    101          1           0        5.686938    1.651078   -2.127330
    102          1           0        5.622072    0.103484   -3.179640
    103          1           0        3.873083    0.916205   -2.672589
    104          1           0        6.289922    1.341575   -0.074629
    105          1           0        6.332538   -0.486391    0.690900
    106          1           0        7.445370   -1.440723   -1.272089
    107          1           0        7.670908    0.072308   -1.892174
    108          1           0        8.910669    0.707318    0.265548
    109          1           0        8.808496   -0.772683    0.773943
    110          1           0       10.223561   -0.127403   -1.944582
    111          1           0        9.241221   -2.465059   -1.997337
    112          1           0       10.895958   -2.548952   -1.826631
    113          1           0        9.979852   -2.957157   -0.235964
    114          1           0       11.162955    0.553489    0.323797
    115          1           0       11.359715   -1.113510    0.882034
    116          1           0       12.770610   -1.493315   -1.193452
    117          1           0       12.612409    0.210897   -1.675758
    118          1           0       13.669101    0.964595    0.586451
    119          1           0       13.920296   -0.843246    1.047559
    120          1           0       15.251813    0.465039   -1.252626
    121          1           0       15.113622   -2.276901   -1.723079
    122          1           0       16.859654   -1.278580   -1.429368
    123          1           0       15.850186   -2.281757   -0.014779
    124          1           0       15.893590    1.440261    0.978148
    125          1           0       16.440246   -0.210025    1.658878
    126          1           0       18.131386   -0.213197   -0.251467
    127          1           0       17.833978    1.248135   -1.219976
    128          1           0       18.357177    2.685543    0.798958
    129          1           0       18.772461    1.334920    1.821970
    130          1           0       20.463943    0.730897   -0.219631
    131          1           0       19.796676    3.832551   -0.851605
    132          1           0       21.067856    2.650831   -1.592606
    133          1           0       19.355924    2.521923   -1.989414
    134          1           0       21.066751    1.767772    2.368759
    135          1           0       22.079135    2.401033    0.809548
    136          1           0       20.531424    3.277822    1.517876
    137          1           0       -7.032257    1.758913    0.120203
    138          1           0       -7.603182   -0.279430   -0.097216
 ---------------------------------------------------------------------

 SCF Done:  E(RB3LYP) =  -2733.01863464     A.U. after   17 cycles

 Excitation energies and oscillator strengths:

 Excited State   1:      Singlet-A      2.0605 eV  601.71 nm  f=0.0907  <S**2>=0.000
     235 -> 238       -0.36845
     236 -> 237        0.58831
 This state for optimization and/or second-order correction.
 Total Energy, E(TD-HF/TD-KS) =  -2732.94291114
 Copying the excited state density for this state as the 1-particle RhoCI density.

 The electronic state is 1-A.
 Alpha  occ. eigenvalues --  -19.20586 -19.18435 -19.13724 -19.12710 -19.11363
 Alpha  occ. eigenvalues --  -14.36276 -14.35979 -14.32409 -14.29439 -10.32921
 Alpha  occ. eigenvalues --  -10.31889 -10.28425 -10.27646 -10.25044 -10.23833
 Alpha  occ. eigenvalues --  -10.23616 -10.23539 -10.23517 -10.23465 -10.23429
 Alpha  occ. eigenvalues --  -10.22414 -10.22373 -10.21592 -10.21161 -10.21056
 Alpha  occ. eigenvalues --  -10.21050 -10.21017 -10.20859 -10.20821 -10.20775
 Alpha  occ. eigenvalues --  -10.20713 -10.20679 -10.20506 -10.20452 -10.20444
 Alpha  occ. eigenvalues --  -10.20352 -10.20295 -10.20158 -10.20110 -10.19990
 Alpha  occ. eigenvalues --  -10.19988 -10.19914 -10.19894 -10.19790 -10.19713
 Alpha  occ. eigenvalues --  -10.19528 -10.19510 -10.19493 -10.19491 -10.19488
 Alpha  occ. eigenvalues --  -10.19446 -10.19368 -10.19277 -10.18969 -10.18886
 Alpha  occ. eigenvalues --  -10.18679 -10.18060 -10.17943 -10.17729 -10.17632
 Alpha  occ. eigenvalues --  -10.17594 -10.16903 -10.16582 -10.16208  -1.14987
 Alpha  occ. eigenvalues --   -1.07010  -1.02474  -0.99807  -0.99501  -0.97502
 Alpha  occ. eigenvalues --   -0.96120  -0.95096  -0.92582  -0.85500  -0.82990
 Alpha  occ. eigenvalues --   -0.81595  -0.81175  -0.81100  -0.80839  -0.80571
 Alpha  occ. eigenvalues --   -0.79756  -0.78848  -0.78842  -0.78368  -0.77048
 Alpha  occ. eigenvalues --   -0.76675  -0.76192  -0.75106  -0.74571  -0.74260
 Alpha  occ. eigenvalues --   -0.73749  -0.73018  -0.72317  -0.71366  -0.70683
 Alpha  occ. eigenvalues --   -0.69510  -0.68858  -0.68322  -0.67609  -0.67451
 Alpha  occ. eigenvalues --   -0.66152  -0.65980  -0.65515  -0.64845  -0.64345
 Alpha  occ. eigenvalues --   -0.64275  -0.62409  -0.61853  -0.61380  -0.61135
 Alpha  occ. eigenvalues --   -0.60929  -0.58587  -0.58371  -0.58008  -0.57523
 Alpha  occ. eigenvalues --   -0.56807  -0.56506  -0.56426  -0.56128  -0.55932
 Alpha  occ. eigenvalues --   -0.55205  -0.54813  -0.54588  -0.53168  -0.52708
 Alpha  occ. eigenvalues --   -0.52111  -0.51902  -0.51628  -0.50892  -0.50544
 Alpha  occ. eigenvalues --   -0.49762  -0.48889  -0.48695  -0.48378  -0.48082
 Alpha  occ. eigenvalues --   -0.47898  -0.47745  -0.47197  -0.46828  -0.46684
 Alpha  occ. eigenvalues --   -0.46389  -0.45894  -0.45672  -0.45659  -0.45336
 Alpha  occ. eigenvalues --   -0.45288  -0.45074  -0.44788  -0.44544  -0.44371
 Alpha  occ. eigenvalues --   -0.44174  -0.43678  -0.43581  -0.43399  -0.43070
 Alpha  occ. eigenvalues --   -0.43005  -0.42911  -0.42574  -0.42250  -0.42189
 Alpha  occ. eigenvalues --   -0.42081  -0.41889  -0.41365  -0.41251  -0.40962
 Alpha  occ. eigenvalues --   -0.40762  -0.40543  -0.40269  -0.40043  -0.39926
 Alpha  occ. eigenvalues --   -0.39910  -0.39596  -0.39465  -0.39225  -0.39076
 Alpha  occ. eigenvalues --   -0.38995  -0.38689  -0.38449  -0.38273  -0.38178
 Alpha  occ. eigenvalues --   -0.37976  -0.37812  -0.37667  -0.37637  -0.37447
 Alpha  occ. eigenvalues --   -0.37260  -0.37186  -0.36924  -0.36802  -0.36584
 Alpha  occ. eigenvalues --   -0.36134  -0.35981  -0.35835  -0.35767  -0.35450
 Alpha  occ. eigenvalues --   -0.35385  -0.35278  -0.35057  -0.35050  -0.34758
 Alpha  occ. eigenvalues --   -0.34696  -0.34560  -0.34494  -0.34342  -0.33762
 Alpha  occ. eigenvalues --   -0.33616  -0.33532  -0.33450  -0.32836  -0.32483
 Alpha  occ. eigenvalues --   -0.32392  -0.32035  -0.31664  -0.31506  -0.31470
 Alpha  occ. eigenvalues --   -0.31143  -0.30914  -0.30509  -0.30426  -0.30037
 Alpha  occ. eigenvalues --   -0.29588  -0.28506  -0.28375  -0.28171  -0.28060
 Alpha  occ. eigenvalues --   -0.27382  -0.27080  -0.26594  -0.26356  -0.25766
 Alpha  occ. eigenvalues --   -0.24868  -0.24721  -0.22408  -0.22132  -0.19704
 Alpha  occ. eigenvalues --   -0.18793
 Alpha virt. eigenvalues --   -0.09745  -0.08370  -0.05056  -0.02281  -0.02091
 Alpha virt. eigenvalues --   -0.00357  -0.00181   0.00327   0.02311   0.03318
 Alpha virt. eigenvalues --    0.03669   0.03987   0.04197   0.04384   0.04636

 Mulliken charges:
               1
     1  C    0.194841
     2  C   -0.078184
     3  C   -0.094304
     4  C   -0.147792
     5  N   -0.129280
     6  C   -0.104816
     7  C    0.004944
     8  C   -0.043773
     9  C    0.030060
    10  C    0.029275
    11  C    0.042051
    12  C   -0.095930
    13  C    0.243256
    14  O   -0.272364
    15  O   -0.345119
    16  N   -0.188669
    17  C    0.084668
    18  C   -0.176467
    19  C    0.064371
    20  C    0.116571
    21  C    0.077739
    22  C    0.003364
    23  C   -0.048702
    24  N   -0.275672
    25  C    0.043325
    26  C   -0.131971
    27  C   -0.111231
    28  C    0.035886
    29  C    0.080582
    30  C    0.024140
    31  C    0.113879
    32  N   -0.048925
    33  C    0.210578
    34  C   -0.183991
    35  C   -0.029694
    36  C    0.004259
    37  C    0.303548
    38  C    0.097581
    39  O   -0.179120
    40  C   -0.216369
    41  C    0.162161
    42  O   -0.274473
    43  O   -0.162274
    44  C    0.098660
    45  C    0.244327
    46  C   -0.070293
    47  C   -0.124007
    48  C   -0.068633
    49  C    0.116508
    50  C   -0.010532
    51  C    0.143777
    52  C   -0.111533
    53  C   -0.002254
    54  C    0.094690
    55  C    0.016671
    56  C    0.035062
    57  C    0.011240
    58  C   -0.102695
    59  C   -0.054078
    60  C   -0.002072
    61  C    0.070155
    62  C   -0.119150
    63  C   -0.070758
    64  C   -0.001580
    65  H   -0.000537
    66  H   -0.003674
    67  H   -0.006809
    68  H   -0.002611
    69  H    0.025411
    70  H    0.024747
    71  H    0.032405
    72  H    0.013244
    73  H    0.054387
    74  H    0.019485
    75  H    0.082702
    76  H    0.050746
    77  H    0.037698
    78  H    0.033546
    79  H    0.035366
    80  H   -0.040513
    81  H    0.050822
    82  H    0.003729
    83  H    0.040265
    84  H    0.042612
    85  H    0.031226
    86  H    0.007049
    87  H   -0.023739
    88  H   -0.043049
    89  H    0.011466
    90  H   -0.008649
    91  H   -0.065302
    92  H   -0.018390
    93  H    0.015636
    94  H    0.073587
    95  H    0.062672
    96  H    0.059797
    97  H    0.055915
    98  H    0.012486
    99  H    0.030835
   100  H    0.013732
   101  H    0.009513
   102  H    0.058056
   103  H    0.065125
   104  H    0.033311
   105  H   -0.029492
   106  H   -0.003467
   107  H   -0.025394
   108  H   -0.044862
   109  H   -0.043637
   110  H    0.006355
   111  H    0.011554
   112  H    0.002230
   113  H    0.027043
   114  H   -0.033800
   115  H   -0.001132
   116  H   -0.001677
   117  H   -0.002737
   118  H    0.005362
   119  H    0.000272
   120  H   -0.046242
   121  H    0.024588
   122  H    0.042249
   123  H    0.022280
   124  H   -0.001709
   125  H    0.028758
   126  H   -0.000942
   127  H    0.011598
   128  H   -0.008837
   129  H   -0.014067
   130  H    0.007237
   131  H    0.021946
   132  H    0.013660
   133  H    0.027636
   134  H    0.035478
   135  H    0.029053
   136  H    0.011654
   137  H    0.209120
   138  H    0.124164
 Sum of Mulliken charges =   0.00000

 Dipole moment (field-independent basis, Debye):
    X=              2.6951    Y=              2.3266    Z=              0.8139  Tot=              3.6523
 Quadrupole moment (field-independent basis, Debye-Ang):
   XX=           -359.5466   YY=           -376.7627   ZZ=           -396.1084
   XY=            -18.2265   XZ=             10.6964   YZ=             -4.2226

 Normal termination of Gaussian 09 at Sat Aug  3 18:21:44 2019.
