 Gaussian 09, Revision D.01,
 Gaussian 09:  ES64L-G09RevD.01 24-Apr-2013

 --------------------------
 # td=(NStates=1) B3LYP/SVP
 --------------------------

 --
 TD
 --
 Symbolic Z-matrix:
 Charge =  0 Multiplicity = 1

                         Standard orientation:
 ---------------------------------------------------------------------
 Center     Atomic      Atomic             Coordinates (Angstroms)
 Number     Number       Type             X           Y           Z
 ---------------------------------------------------------------------
      1          6           0       -5.124812   -1.929945    0.434560
      2          6           0       -4.899031    2.752095    1.428985
      3          6           0       -9.456015    3.327858   -0.198978
      4          6           0       -9.780005   -1.460419   -0.985800
      5          7           0       -5.166084    0.415387    0.862406
      6          6           0       -4.466999   -0.752029    0.822231
      7          6           0       -3.023193   -0.485373    1.246199
      8          6           0       -3.114853    0.915537    1.874877
      9          6           0       -4.519551    1.399639    1.397022
     10          6           0       -3.080205    0.898638    3.259225
     11          6           0       -2.091397   -0.706142    0.086933
     12          6           0       -0.617844   -0.729443    0.533399
     13          6           0        0.472176   -0.965647   -0.634377
     14          8           0        0.208219   -1.347213   -1.741029
     15          8           0        1.615478   -0.599226   -0.201051
     16          7           0       -7.196549    2.810047    0.561378
     17          6           0       -6.083880    3.356046    1.099427
     18          6           0       -6.276031    4.726388    1.108514
     19          6           0       -7.695558    4.933312    0.621896
     20          6           0       -8.125616    3.594676    0.289101
     21          6           0       -5.347592    5.711830    1.452675
     22          6           0       -8.124073    6.231368    0.365773
     23          6           0       -8.849459    6.687659   -0.751780
     24          7           0       -9.186904    0.827962   -0.437952
     25          6           0       -9.948285    2.005238   -0.485147
     26          6           0      -11.257196    1.802144   -0.919475
     27          6           0      -11.461716    0.413578   -1.114239
     28          6           0      -10.084532   -0.118238   -0.849198
     29          6           0      -12.345616    2.948783   -1.103075
     30          6           0      -12.631898   -0.337723   -1.763003
     31          6           0      -12.566423   -0.467168   -3.262058
     32          7           0       -7.489290   -1.341186   -0.133028
     33          6           0       -8.583641   -2.091398   -0.611322
     34          6           0       -8.142346   -3.476247   -0.563957
     35          6           0       -6.848042   -3.474492   -0.206061
     36          6           0       -6.366513   -2.088577    0.025348
     37          6           0       -8.933953   -4.638693   -1.016981
     38          6           0       -5.630425   -4.303127   -0.050695
     39          8           0       -5.561985   -5.530727   -0.099099
     40          6           0       -4.452126   -3.331916    0.356657
     41          6           0       -3.954796   -3.823911    1.700853
     42          8           0       -4.136647   -3.433288    2.761757
     43          8           0       -3.087275   -4.836708    1.497533
     44          6           0       -2.488927   -5.395671    2.710182
     45          6           0        2.693909   -0.842024   -1.242979
     46          6           0        4.056865   -0.525886   -0.502517
     47          6           0        5.067404    0.176788   -1.039710
     48          6           0        4.989813    0.808900   -2.368245
     49          6           0        6.303566    0.441750   -0.250906
     50          6           0        7.502046   -0.302960   -0.815563
     51          6           0        8.772426   -0.019428   -0.053200
     52          6           0        9.984336   -0.610062   -0.742972
     53          6           0        9.919255   -2.218653   -0.849195
     54          6           0       11.298174   -0.285561    0.015974
     55          6           0       12.740950   -0.580607   -0.527568
     56          6           0       13.846956   -0.073948    0.275540
     57          6           0       15.180630   -0.071379   -0.411983
     58          6           0       15.569121   -1.594234   -0.855602
     59          6           0       16.253993    0.627776    0.534362
     60          6           0       17.635221    0.605165   -0.128767
     61          6           0       18.714153    1.431631    0.669839
     62          6           0       20.182539    1.475056    0.115949
     63          6           0       20.087004    2.119938   -1.332798
     64          6           0       21.040480    2.275778    1.036314
     65          1           0       -4.148901    3.280445    2.142211
     66          1           0      -10.097018    4.130932   -0.204119
     67          1           0      -10.679603   -2.177440   -1.361822
     68          1           0       -2.922008   -1.291123    2.174997
     69          1           0       -2.339351    1.447408    1.323257
     70          1           0       -2.268956    0.263937    3.610386
     71          1           0       -2.676068    2.116738    3.507057
     72          1           0       -4.172148    0.582727    3.761723
     73          1           0       -2.140009   -1.621484   -0.527589
     74          1           0       -2.161626    0.246453   -0.687726
     75          1           0       -0.415188    0.231453    0.874023
     76          1           0       -0.412202   -1.479135    1.222039
     77          1           0       -4.435805    5.840829    0.581871
     78          1           0       -5.839155    6.596331    1.318121
     79          1           0       -4.804732    5.316035    2.318538
     80          1           0       -7.976524    6.946243    1.073225
     81          1           0       -9.184706    5.937312   -1.715474
     82          1           0       -9.350871    7.676538   -0.800194
     83          1           0      -12.417367    3.595553   -0.276825
     84          1           0      -11.993878    3.411696   -2.058499
     85          1           0      -13.292373    2.534447   -1.221164
     86          1           0      -12.719846   -1.358751   -1.383097
     87          1           0      -13.522707    0.036252   -1.193492
     88          1           0      -12.676412    0.553904   -3.696970
     89          1           0      -11.676360   -1.123875   -3.710936
     90          1           0      -13.730355   -0.892558   -3.657678
     91          1           0       -9.742082   -4.826440   -0.343132
     92          1           0       -9.271145   -4.505624   -2.083208
     93          1           0       -8.566032   -5.570298   -0.935703
     94          1           0       -3.739550   -3.388888   -0.560085
     95          1           0       -1.975643   -6.256625    2.310208
     96          1           0       -1.919789   -4.823178    3.231578
     97          1           0       -3.235974   -5.857247    3.501609
     98          1           0        2.660992   -2.004969   -1.245046
     99          1           0        2.442428   -0.332720   -2.247466
    100          1           0        4.186537   -0.872664    0.578452
    101          1           0        5.671640    1.632390   -2.263682
    102          1           0        5.366239   -0.012433   -3.174548
    103          1           0        3.888845    1.266290   -2.715785
    104          1           0        6.510028    1.543185   -0.297884
    105          1           0        6.034723    0.166759    0.808979
    106          1           0        7.393721   -1.248135   -1.037765
    107          1           0        7.676109    0.154883   -1.731397
    108          1           0        8.996013    0.993922    0.049459
    109          1           0        8.537830   -0.562518    0.963567
    110          1           0       10.136720   -0.200665   -1.841785
    111          1           0        9.261200   -2.502378   -1.757690
    112          1           0       10.979807   -2.874296   -1.016976
    113          1           0        9.544635   -2.705428    0.150938
    114          1           0       11.292025    0.761946    0.364927
    115          1           0       11.126304   -0.778968    0.837338
    116          1           0       12.758009   -1.783276   -0.758634
    117          1           0       12.987718   -0.146326   -1.561677
    118          1           0       13.472821    0.912679    0.749122
    119          1           0       13.869638   -0.555707    1.247862
    120          1           0       15.129009    0.409476   -1.368514
    121          1           0       14.598175   -1.642718   -1.357082
    122          1           0       16.426996   -1.729193   -1.292045
    123          1           0       15.574125   -2.084379    0.075704
    124          1           0       15.935568    1.512340    0.710468
    125          1           0       16.275805    0.103838    1.404895
    126          1           0       18.228967   -0.377528   -0.182541
    127          1           0       17.567194    0.804835   -1.074719
    128          1           0       18.366667    2.453719    0.817236
    129          1           0       18.913548    1.030593    1.646950
    130          1           0       20.649097    0.282800   -0.248580
    131          1           0       19.910620    3.261715   -0.930248
    132          1           0       21.205608    2.045496   -1.767485
    133          1           0       19.151296    1.617208   -1.967189
    134          1           0       21.111713    1.742678    2.036944
    135          1           0       22.097579    2.572495    0.553564
    136          1           0       20.609794    3.327902    1.172814
    137          1           0       -7.299210    1.754234    0.567832
    138          1           0       -7.403489   -0.317829   -0.088081
 ---------------------------------------------------------------------

 SCF Done:  E(RB3LYP) =  -2732.94802785     A.U. after   16 cycles

 Excitation energies and oscillator strengths:

 Excited State   1:      Singlet-A      2.0659 eV  600.14 nm  f=0.1489  <S**2>=0.000
     235 -> 237        0.12660
     235 -> 238        0.31604
     236 -> 237        0.60767
 This state for optimization and/or second-order correction.
 Total Energy, E(TD-HF/TD-KS) =  -2732.87210692
 Copying the excited state density for this state as the 1-particle RhoCI density.

 The electronic state is 1-A.
 Alpha  occ. eigenvalues --  -19.18638 -19.16517 -19.12740 -19.12172 -19.11618
 Alpha  occ. eigenvalues --  -14.37178 -14.36548 -14.31677 -14.29767 -10.31015
 Alpha  occ. eigenvalues --  -10.30718 -10.28027 -10.27242 -10.24008 -10.23367
 Alpha  occ. eigenvalues --  -10.23290 -10.23162 -10.22652 -10.22428 -10.22242
 Alpha  occ. eigenvalues --  -10.22204 -10.21412 -10.21274 -10.21204 -10.21149
 Alpha  occ. eigenvalues --  -10.20994 -10.20983 -10.20969 -10.20946 -10.20898
 Alpha  occ. eigenvalues --  -10.20839 -10.20759 -10.20751 -10.20746 -10.20575
 Alpha  occ. eigenvalues --  -10.20037 -10.19944 -10.19913 -10.19878 -10.19808
 Alpha  occ. eigenvalues --  -10.19806 -10.19792 -10.19788 -10.19749 -10.19742
 Alpha  occ. eigenvalues --  -10.19637 -10.19577 -10.19196 -10.19189 -10.19038
 Alpha  occ. eigenvalues --  -10.18937 -10.18918 -10.18802 -10.18761 -10.18760
 Alpha  occ. eigenvalues --  -10.18566 -10.18367 -10.18044 -10.17919 -10.17390
 Alpha  occ. eigenvalues --  -10.17370 -10.17173 -10.16088 -10.16054  -1.11247
 Alpha  occ. eigenvalues --   -1.11202  -1.01791  -1.01676  -1.01304  -1.00700
 Alpha  occ. eigenvalues --   -0.97642  -0.95431  -0.92287  -0.85047  -0.84006
 Alpha  occ. eigenvalues --   -0.82708  -0.82412  -0.81941  -0.81325  -0.81088
 Alpha  occ. eigenvalues --   -0.80808  -0.79889  -0.79098  -0.78479  -0.78116
 Alpha  occ. eigenvalues --   -0.77293  -0.76198  -0.75412  -0.75274  -0.74232
 Alpha  occ. eigenvalues --   -0.73595  -0.73372  -0.72737  -0.71621  -0.70833
 Alpha  occ. eigenvalues --   -0.70632  -0.69364  -0.68732  -0.68241  -0.67941
 Alpha  occ. eigenvalues --   -0.67765  -0.66562  -0.66387  -0.65618  -0.65369
 Alpha  occ. eigenvalues --   -0.64317  -0.62579  -0.62471  -0.61776  -0.61169
 Alpha  occ. eigenvalues --   -0.61143  -0.60408  -0.58711  -0.58492  -0.58224
 Alpha  occ. eigenvalues --   -0.57201  -0.56863  -0.56278  -0.55996  -0.55456
 Alpha  occ. eigenvalues --   -0.55237  -0.54958  -0.53583  -0.52981  -0.52343
 Alpha  occ. eigenvalues --   -0.52258  -0.52110  -0.51580  -0.51289  -0.50507
 Alpha  occ. eigenvalues --   -0.50367  -0.49530  -0.49502  -0.48686  -0.48547
 Alpha  occ. eigenvalues --   -0.48328  -0.47761  -0.47559  -0.47440  -0.47378
 Alpha  occ. eigenvalues --   -0.46889  -0.46673  -0.46516  -0.46021  -0.45726
 Alpha  occ. eigenvalues --   -0.45710  -0.45399  -0.45382  -0.45037  -0.44947
 Alpha  occ. eigenvalues --   -0.44426  -0.44332  -0.44000  -0.43845  -0.43711
 Alpha  occ. eigenvalues --   -0.43448  -0.43292  -0.43049  -0.42974  -0.42740
 Alpha  occ. eigenvalues --   -0.42604  -0.42563  -0.42124  -0.41908  -0.41835
 Alpha  occ. eigenvalues --   -0.41566  -0.41486  -0.41311  -0.41204  -0.40882
 Alpha  occ. eigenvalues --   -0.40474  -0.40208  -0.40152  -0.39937  -0.39544
 Alpha  occ. eigenvalues --   -0.39513  -0.39173  -0.38897  -0.38804  -0.38653
 Alpha  occ. eigenvalues --   -0.38541  -0.38263  -0.37782  -0.37733  -0.37681
 Alpha  occ. eigenvalues --   -0.37515  -0.37213  -0.37156  -0.37080  -0.36869
 Alpha  occ. eigenvalues --   -0.36586  -0.36507  -0.36235  -0.35984  -0.35861
 Alpha  occ. eigenvalues --   -0.35707  -0.35657  -0.35500  -0.35281  -0.34790
 Alpha  occ. eigenvalues --   -0.34697  -0.34563  -0.34533  -0.34237  -0.34004
 Alpha  occ. eigenvalues --   -0.33578  -0.32730  -0.32618  -0.32456  -0.32206
 Alpha  occ. eigenvalues --   -0.32171  -0.32057  -0.31956  -0.31502  -0.31388
 Alpha  occ. eigenvalues --   -0.31333  -0.30663  -0.30631  -0.30451  -0.29322
 Alpha  occ. eigenvalues --   -0.29246  -0.28724  -0.28630  -0.28129  -0.27963
 Alpha  occ. eigenvalues --   -0.27310  -0.27112  -0.26801  -0.26591  -0.25729
 Alpha  occ. eigenvalues --   -0.24862  -0.24791  -0.22438  -0.22173  -0.19633
 Alpha  occ. eigenvalues --   -0.18921
 Alpha virt. eigenvalues --   -0.10163  -0.07912  -0.04820  -0.02044  -0.00665
 Alpha virt. eigenvalues --    0.00120   0.01745   0.02188   0.02713   0.02763
 Alpha virt. eigenvalues --    0.03468   0.03511   0.03865   0.04266   0.04864

 Mulliken charges:
               1
     1  C    0.023966
     2  C   -0.087900
     3  C   -0.055587
     4  C   -0.130020
     5  N   -0.139589
     6  C   -0.114024
     7  C   -0.086225
     8  C    0.021241
     9  C   -0.121491
    10  C    0.022538
    11  C    0.014648
    12  C    0.084390
    13  C    0.127310
    14  O   -0.243082
    15  O   -0.272335
    16  N    0.086739
    17  C    0.129776
    18  C   -0.164139
    19  C    0.045879
    20  C    0.004134
    21  C    0.133165
    22  C   -0.060382
    23  C   -0.110828
    24  N   -0.267910
    25  C    0.113954
    26  C   -0.188407
    27  C   -0.127229
    28  C    0.066800
    29  C    0.164309
    30  C    0.090274
    31  C   -0.041696
    32  N   -0.058799
    33  C    0.097960
    34  C   -0.177133
    35  C    0.050297
    36  C    0.061589
    37  C    0.179336
    38  C    0.042029
    39  O   -0.179033
    40  C   -0.070012
    41  C    0.205004
    42  O   -0.158329
    43  O   -0.319353
    44  C    0.233321
    45  C    0.212204
    46  C   -0.095047
    47  C   -0.170620
    48  C    0.016911
    49  C    0.086113
    50  C    0.122762
    51  C    0.069551
    52  C   -0.100672
    53  C   -0.096541
    54  C    0.114843
    55  C   -0.003971
    56  C    0.017593
    57  C   -0.133475
    58  C    0.109578
    59  C    0.221033
    60  C    0.067306
    61  C    0.046198
    62  C   -0.170842
    63  C   -0.077130
    64  C    0.005016
    65  H   -0.000091
    66  H   -0.054766
    67  H    0.020448
    68  H    0.045806
    69  H   -0.009301
    70  H    0.016842
    71  H    0.021443
    72  H    0.066538
    73  H    0.028599
    74  H    0.026742
    75  H   -0.005725
    76  H    0.004049
    77  H    0.029088
    78  H   -0.019811
    79  H    0.033807
    80  H   -0.009977
    81  H    0.052814
    82  H    0.031597
    83  H    0.016259
    84  H    0.030724
    85  H   -0.015832
    86  H   -0.015015
    87  H    0.010123
    88  H    0.021550
    89  H    0.059582
    90  H    0.016471
    91  H    0.002264
    92  H    0.037795
    93  H   -0.024319
    94  H    0.090622
    95  H    0.025267
    96  H   -0.019458
    97  H    0.032516
    98  H    0.045780
    99  H    0.072590
   100  H    0.008620
   101  H    0.009266
   102  H    0.058234
   103  H    0.050363
   104  H    0.004028
   105  H   -0.003417
   106  H   -0.053652
   107  H   -0.044631
   108  H   -0.021326
   109  H    0.006387
   110  H    0.008400
   111  H    0.035838
   112  H    0.037722
   113  H    0.027498
   114  H   -0.025612
   115  H   -0.063761
   116  H    0.029067
   117  H   -0.003300
   118  H   -0.012737
   119  H   -0.028972
   120  H   -0.014662
   121  H    0.005184
   122  H   -0.026343
   123  H   -0.012425
   124  H   -0.068109
   125  H   -0.041150
   126  H   -0.003503
   127  H   -0.061333
   128  H   -0.016160
   129  H   -0.016377
   130  H    0.011410
   131  H    0.013698
   132  H    0.036279
   133  H    0.058044
   134  H    0.032160
   135  H    0.023165
   136  H    0.016972
   137  H    0.168365
   138  H    0.145779
 Sum of Mulliken charges =   0.00000

 Dipole moment (field-independent basis, Debye):
    X=              2.8075    Y=              3.4524    Z=              1.0813  Tot=              4.5793
 Quadrupole moment (field-independent basis, Debye-Ang):
   XX=           -367.2755   YY=           -393.3906   ZZ=           -395.6529
   XY=            -11.4363   XZ=             14.0335   YZ=             -0.7608

 Normal termination of Gaussian 09 at Fri Aug  2 13:01:23 2019.
