 Gaussian 09, Revision D.01,
 Gaussian 09:  ES64L-G09RevD.01 24-Apr-2013

 --------------------------
 # td=(NStates=1) B3LYP/SVP
 --------------------------

 --
 TD
 --
 Symbolic Z-matrix:
 Charge =  0 Multiplicity = 1

                         Standard orientation:
 ---------------------------------------------------------------------
 Center     Atomic      Atomic             Coordinates (Angstroms)
 Number     Number       Type             X           Y           Z
 ---------------------------------------------------------------------
      1          6           0       -5.096752   -1.879802    0.423869
      2          6           0       -4.858356    2.862296    1.461307
      3          6           0       -9.358319    3.193979   -0.263256
      4          6           0       -9.809732   -1.595741   -0.967947
      5          7           0       -5.230229    0.510731    0.963382
      6          6           0       -4.472612   -0.621245    0.832000
      7          6           0       -2.939725   -0.476347    1.246464
      8          6           0       -3.106235    1.025020    1.844060
      9          6           0       -4.386375    1.505630    1.390342
     10          6           0       -2.960968    1.059571    3.305379
     11          6           0       -2.068374   -0.632599    0.096982
     12          6           0       -0.595473   -0.509707    0.460392
     13          6           0        0.361120   -1.019748   -0.680709
     14          8           0        0.020523   -1.562936   -1.679663
     15          8           0        1.581214   -0.595823   -0.367245
     16          7           0       -7.022829    2.692008    0.473282
     17          6           0       -6.112172    3.460686    1.114957
     18          6           0       -6.484132    4.802290    1.091565
     19          6           0       -7.738875    4.860133    0.507632
     20          6           0       -8.156494    3.468319    0.266665
     21          6           0       -5.512149    5.946085    1.501595
     22          6           0       -8.536274    6.148472    0.222683
     23          6           0       -9.240750    6.472077   -0.853769
     24          7           0       -9.261635    0.719151   -0.432434
     25          6           0       -9.935270    1.928295   -0.463695
     26          6           0      -11.337880    1.702203   -0.965472
     27          6           0      -11.515362    0.334474   -1.194297
     28          6           0      -10.168983   -0.211366   -0.915701
     29          6           0      -12.400977    2.819608   -1.121519
     30          6           0      -12.687134   -0.446552   -1.678840
     31          6           0      -12.506031   -0.669728   -3.223259
     32          7           0       -7.463411   -1.226555   -0.210030
     33          6           0       -8.512974   -2.093428   -0.546986
     34          6           0       -8.083530   -3.448355   -0.566651
     35          6           0       -6.728508   -3.392919   -0.184243
     36          6           0       -6.458108   -2.048391    0.041726
     37          6           0       -8.894461   -4.630602   -0.938249
     38          6           0       -5.525647   -4.262198   -0.025988
     39          8           0       -5.408199   -5.544425    0.059236
     40          6           0       -4.446385   -3.252131    0.441012
     41          6           0       -3.822200   -3.679458    1.818219
     42          8           0       -4.104337   -3.277294    2.896078
     43          8           0       -2.901460   -4.693770    1.592124
     44          6           0       -2.414491   -5.337212    2.747921
     45          6           0        2.657704   -1.095001   -1.181879
     46          6           0        3.976221   -0.601100   -0.515779
     47          6           0        5.009022   -0.007531   -1.110255
     48          6           0        5.029545    0.580578   -2.574762
     49          6           0        6.281929    0.396333   -0.463690
     50          6           0        7.547030   -0.283772   -0.990401
     51          6           0        8.807466   -0.041184   -0.230685
     52          6           0       10.079221   -0.731384   -0.792619
     53          6           0       10.052221   -2.246208   -0.926703
     54          6           0       11.303299   -0.244630    0.000350
     55          6           0       12.720190   -0.597388   -0.499089
     56          6           0       13.764146    0.091568    0.359811
     57          6           0       15.170132   -0.167300   -0.184644
     58          6           0       15.638958   -1.647735   -0.233367
     59          6           0       16.180817    0.818739    0.357017
     60          6           0       17.608415    0.632890   -0.072957
     61          6           0       18.605655    1.624256    0.525724
     62          6           0       20.039908    1.585903    0.079651
     63          6           0       20.394952    2.019706   -1.370251
     64          6           0       21.034563    2.359332    1.067051
     65          1           0       -4.076417    3.451726    1.795846
     66          1           0       -9.872291    4.237985   -0.542607
     67          1           0      -10.590743   -2.298184   -1.021012
     68          1           0       -2.943851   -1.205419    1.950624
     69          1           0       -2.198964    1.563322    1.432856
     70          1           0       -2.010108    0.812256    3.715397
     71          1           0       -3.122280    2.036677    3.647636
     72          1           0       -3.865604    0.457432    3.844035
     73          1           0       -2.401289   -1.638719   -0.317780
     74          1           0       -2.278487    0.201604   -0.632933
     75          1           0       -0.231264    0.508771    0.557037
     76          1           0       -0.431493   -1.340244    1.245166
     77          1           0       -4.376076    5.617745    0.871133
     78          1           0       -5.738821    6.934466    1.232600
     79          1           0       -5.332856    5.686046    2.749832
     80          1           0       -8.368762    6.961868    1.113538
     81          1           0       -9.610445    5.848963   -1.751455
     82          1           0       -9.628640    7.492326   -0.703815
     83          1           0      -12.693922    3.508656   -0.260337
     84          1           0      -11.892976    3.594481   -1.835232
     85          1           0      -13.397413    2.366363   -1.508750
     86          1           0      -12.840826   -1.398092   -1.099657
     87          1           0      -13.670364   -0.103932   -1.377649
     88          1           0      -12.557620    0.228342   -3.696363
     89          1           0      -11.490652   -1.222303   -3.581832
     90          1           0      -13.202363   -1.354317   -3.586505
     91          1           0       -9.376462   -4.967376   -0.018275
     92          1           0       -9.702739   -4.284860   -1.652329
     93          1           0       -8.169381   -5.452214   -1.153131
     94          1           0       -3.537327   -3.250492   -0.305797
     95          1           0       -1.743603   -6.118416    2.189145
     96          1           0       -1.715676   -4.605623    3.418175
     97          1           0       -3.114406   -5.499207    3.418925
     98          1           0        2.819549   -2.248902   -1.094605
     99          1           0        2.738175   -0.657252   -2.162370
    100          1           0        4.116177   -0.858481    0.526851
    101          1           0        5.474551    1.679784   -2.724958
    102          1           0        5.800678    0.248306   -3.368766
    103          1           0        3.987555    0.559100   -3.078639
    104          1           0        6.372293    1.491119   -0.588136
    105          1           0        6.156695    0.015518    0.724191
    106          1           0        7.390861   -1.358169   -1.222592
    107          1           0        7.783875    0.169514   -2.088249
    108          1           0        9.080667    0.944511   -0.253206
    109          1           0        8.615163   -0.534348    0.865998
    110          1           0       10.252038   -0.280313   -1.912431
    111          1           0        9.093319   -2.724947   -1.308741
    112          1           0       10.948383   -2.637581   -1.602936
    113          1           0       10.296450   -2.775380    0.189495
    114          1           0       11.134144    0.953983    0.164888
    115          1           0       11.143665   -0.642566    1.103481
    116          1           0       12.865298   -1.625841   -0.575342
    117          1           0       12.730444   -0.325802   -1.619303
    118          1           0       13.462885    1.002097    0.386974
    119          1           0       13.648570   -0.336546    1.209366
    120          1           0       15.127528    0.077951   -1.398792
    121          1           0       14.819075   -2.394825   -0.644714
    122          1           0       16.668347   -1.793286   -0.638648
    123          1           0       15.722531   -2.160577    0.731701
    124          1           0       15.808214    1.959870    0.281697
    125          1           0       16.136925    0.756237    1.457701
    126          1           0       17.990435   -0.417398    0.262738
    127          1           0       17.555958    0.921671   -1.192364
    128          1           0       18.202173    2.612478    0.335531
    129          1           0       18.524722    1.467835    1.671499
    130          1           0       20.295030    0.354897    0.163293
    131          1           0       20.288156    3.075764   -1.607837
    132          1           0       21.446261    1.719075   -1.600263
    133          1           0       19.870197    1.477205   -2.127174
    134          1           0       20.771342    1.958649    2.201699
    135          1           0       22.073551    2.210987    0.661268
    136          1           0       20.673344    3.503443    1.037427
    137          1           0       -6.998966    1.610891    0.613977
    138          1           0       -7.702179   -0.207744   -0.280094
 ---------------------------------------------------------------------

 SCF Done:  E(RB3LYP) =  -2733.08735156     A.U. after   17 cycles

 Excitation energies and oscillator strengths:

 Excited State   1:      Singlet-A      2.0249 eV  612.31 nm  f=0.1368  <S**2>=0.000
     235 -> 237       -0.21720
     235 -> 238        0.30886
     236 -> 237        0.57808
     236 -> 238        0.14276
 This state for optimization and/or second-order correction.
 Total Energy, E(TD-HF/TD-KS) =  -2733.01293961
 Copying the excited state density for this state as the 1-particle RhoCI density.

 The electronic state is 1-A.
 Alpha  occ. eigenvalues --  -19.18660 -19.17100 -19.13660 -19.12627 -19.12004
 Alpha  occ. eigenvalues --  -14.36843 -14.36401 -14.32635 -14.30681 -10.31964
 Alpha  occ. eigenvalues --  -10.31286 -10.28406 -10.26239 -10.24361 -10.23541
 Alpha  occ. eigenvalues --  -10.23524 -10.23401 -10.23087 -10.23024 -10.22944
 Alpha  occ. eigenvalues --  -10.22905 -10.22756 -10.22250 -10.21902 -10.21664
 Alpha  occ. eigenvalues --  -10.21247 -10.21051 -10.20964 -10.20928 -10.20816
 Alpha  occ. eigenvalues --  -10.20780 -10.20672 -10.20635 -10.20582 -10.20580
 Alpha  occ. eigenvalues --  -10.20498 -10.20466 -10.20362 -10.20311 -10.20247
 Alpha  occ. eigenvalues --  -10.20175 -10.20123 -10.20120 -10.20011 -10.19940
 Alpha  occ. eigenvalues --  -10.19692 -10.19678 -10.19645 -10.19584 -10.19423
 Alpha  occ. eigenvalues --  -10.19296 -10.19126 -10.19044 -10.18969 -10.18913
 Alpha  occ. eigenvalues --  -10.18873 -10.18861 -10.18684 -10.18518 -10.18268
 Alpha  occ. eigenvalues --  -10.18171 -10.17908 -10.17820 -10.15608  -1.10700
 Alpha  occ. eigenvalues --   -1.09486  -1.02119  -1.01776  -0.99038  -0.98317
 Alpha  occ. eigenvalues --   -0.97989  -0.93868  -0.92213  -0.84461  -0.82847
 Alpha  occ. eigenvalues --   -0.82328  -0.81940  -0.81397  -0.80907  -0.80784
 Alpha  occ. eigenvalues --   -0.80222  -0.79636  -0.79133  -0.78749  -0.77520
 Alpha  occ. eigenvalues --   -0.76987  -0.76324  -0.75776  -0.74803  -0.74064
 Alpha  occ. eigenvalues --   -0.73315  -0.72756  -0.72093  -0.71489  -0.70346
 Alpha  occ. eigenvalues --   -0.69571  -0.68800  -0.68121  -0.67459  -0.67245
 Alpha  occ. eigenvalues --   -0.66854  -0.66810  -0.66233  -0.65779  -0.65297
 Alpha  occ. eigenvalues --   -0.64011  -0.62981  -0.62602  -0.62117  -0.61560
 Alpha  occ. eigenvalues --   -0.60771  -0.59058  -0.58272  -0.58025  -0.57263
 Alpha  occ. eigenvalues --   -0.57107  -0.56412  -0.56178  -0.55058  -0.54703
 Alpha  occ. eigenvalues --   -0.54140  -0.53685  -0.53343  -0.53220  -0.52963
 Alpha  occ. eigenvalues --   -0.52731  -0.51811  -0.51510  -0.51020  -0.50272
 Alpha  occ. eigenvalues --   -0.50034  -0.49279  -0.49220  -0.48650  -0.48405
 Alpha  occ. eigenvalues --   -0.47893  -0.47840  -0.47637  -0.47574  -0.47274
 Alpha  occ. eigenvalues --   -0.47075  -0.46770  -0.46268  -0.45653  -0.45580
 Alpha  occ. eigenvalues --   -0.45258  -0.45019  -0.44858  -0.44619  -0.44469
 Alpha  occ. eigenvalues --   -0.44296  -0.43847  -0.43704  -0.43368  -0.43225
 Alpha  occ. eigenvalues --   -0.43035  -0.42872  -0.42734  -0.42554  -0.42290
 Alpha  occ. eigenvalues --   -0.42109  -0.41974  -0.41796  -0.41507  -0.41152
 Alpha  occ. eigenvalues --   -0.40879  -0.40795  -0.40450  -0.40300  -0.40132
 Alpha  occ. eigenvalues --   -0.39993  -0.39759  -0.39571  -0.39415  -0.39230
 Alpha  occ. eigenvalues --   -0.39204  -0.39053  -0.38634  -0.38345  -0.38239
 Alpha  occ. eigenvalues --   -0.38075  -0.38003  -0.37922  -0.37853  -0.37521
 Alpha  occ. eigenvalues --   -0.37414  -0.37207  -0.37023  -0.36847  -0.36294
 Alpha  occ. eigenvalues --   -0.36105  -0.36057  -0.36011  -0.35875  -0.35636
 Alpha  occ. eigenvalues --   -0.35571  -0.35351  -0.35285  -0.35130  -0.34966
 Alpha  occ. eigenvalues --   -0.34863  -0.34628  -0.34441  -0.34407  -0.33980
 Alpha  occ. eigenvalues --   -0.33686  -0.33556  -0.33011  -0.32971  -0.32546
 Alpha  occ. eigenvalues --   -0.32030  -0.31822  -0.31681  -0.31315  -0.30975
 Alpha  occ. eigenvalues --   -0.30710  -0.30505  -0.30423  -0.30196  -0.30027
 Alpha  occ. eigenvalues --   -0.29868  -0.29620  -0.28683  -0.28571  -0.28092
 Alpha  occ. eigenvalues --   -0.27643  -0.27399  -0.27170  -0.25985  -0.25746
 Alpha  occ. eigenvalues --   -0.25505  -0.25113  -0.24775  -0.22617  -0.19417
 Alpha  occ. eigenvalues --   -0.18735
 Alpha virt. eigenvalues --   -0.10129  -0.07703  -0.04988  -0.02286  -0.00529
 Alpha virt. eigenvalues --   -0.00177   0.00221   0.01181   0.02060   0.03047
 Alpha virt. eigenvalues --    0.03526   0.03815   0.03984   0.04271   0.04336

 Mulliken charges:
               1
     1  C   -0.028840
     2  C   -0.045155
     3  C   -0.154085
     4  C   -0.045286
     5  N   -0.199301
     6  C   -0.119051
     7  C    0.044597
     8  C   -0.030133
     9  C   -0.006122
    10  C    0.096376
    11  C    0.085414
    12  C    0.043027
    13  C    0.134105
    14  O   -0.199265
    15  O   -0.297442
    16  N   -0.089056
    17  C    0.119828
    18  C   -0.092717
    19  C   -0.040433
    20  C    0.116790
    21  C   -0.005969
    22  C   -0.081012
    23  C   -0.034429
    24  N   -0.283869
    25  C    0.115048
    26  C   -0.131426
    27  C   -0.061205
    28  C    0.048712
    29  C    0.016916
    30  C    0.058968
    31  C    0.045421
    32  N   -0.010530
    33  C    0.039268
    34  C   -0.176908
    35  C   -0.043462
    36  C    0.118309
    37  C    0.123679
    38  C    0.142644
    39  O   -0.242941
    40  C   -0.092117
    41  C    0.204910
    42  O   -0.186480
    43  O   -0.313247
    44  C    0.199555
    45  C    0.291696
    46  C   -0.140221
    47  C   -0.044202
    48  C   -0.055137
    49  C    0.055554
    50  C   -0.031144
    51  C    0.091601
    52  C   -0.099863
    53  C   -0.050077
    54  C   -0.062977
    55  C    0.034599
    56  C    0.274556
    57  C   -0.091353
    58  C   -0.013642
    59  C    0.004905
    60  C    0.011970
    61  C    0.037121
    62  C   -0.129644
    63  C    0.049480
    64  C   -0.032059
    65  H   -0.069857
    66  H    0.013972
    67  H   -0.029551
    68  H   -0.037006
    69  H   -0.008407
    70  H    0.006507
    71  H   -0.022552
    72  H    0.034239
    73  H    0.018440
    74  H    0.007786
    75  H    0.039347
    76  H    0.039063
    77  H    0.053718
    78  H    0.024396
    79  H    0.064021
    80  H    0.049929
    81  H    0.065982
    82  H    0.033255
    83  H    0.034024
    84  H    0.028656
    85  H    0.030544
    86  H   -0.003562
    87  H   -0.007713
    88  H   -0.000620
    89  H    0.027561
    90  H   -0.008113
    91  H    0.027047
    92  H    0.036775
    93  H    0.044865
    94  H    0.087490
    95  H    0.065820
    96  H    0.010088
    97  H   -0.005922
    98  H    0.056215
    99  H    0.013682
   100  H   -0.014591
   101  H    0.020909
   102  H    0.036132
   103  H    0.030030
   104  H    0.016893
   105  H    0.007648
   106  H    0.002929
   107  H   -0.007373
   108  H   -0.029746
   109  H    0.008800
   110  H    0.001636
   111  H    0.031141
   112  H    0.035003
   113  H    0.017618
   114  H    0.005506
   115  H   -0.001483
   116  H   -0.028466
   117  H   -0.010599
   118  H   -0.072959
   119  H   -0.066971
   120  H   -0.002823
   121  H    0.019160
   122  H    0.031736
   123  H   -0.012418
   124  H    0.000477
   125  H   -0.029066
   126  H    0.023327
   127  H    0.009545
   128  H   -0.024624
   129  H   -0.006780
   130  H   -0.003847
   131  H    0.006953
   132  H    0.004882
   133  H   -0.004152
   134  H    0.034011
   135  H    0.034332
   136  H    0.025824
   137  H    0.194023
   138  H    0.153012
 Sum of Mulliken charges =   0.00000

 Dipole moment (field-independent basis, Debye):
    X=              1.7596    Y=              5.2117    Z=              0.1559  Tot=              5.5029
 Quadrupole moment (field-independent basis, Debye-Ang):
   XX=           -343.3076   YY=           -386.1345   ZZ=           -398.1586
   XY=            -29.3021   XZ=              6.1216   YZ=             -3.2602

 Normal termination of Gaussian 09 at Tue Jul 30 04:19:25 2019.
