 Gaussian 09, Revision D.01,
 Gaussian 09:  ES64L-G09RevD.01 24-Apr-2013

 --------------------------
 # td=(NStates=1) B3LYP/SVP
 --------------------------

 --
 TD
 --
 Symbolic Z-matrix:
 Charge =  0 Multiplicity = 1

                         Standard orientation:
 ---------------------------------------------------------------------
 Center     Atomic      Atomic             Coordinates (Angstroms)
 Number     Number       Type             X           Y           Z
 ---------------------------------------------------------------------
      1          6           0       -5.095778   -1.907471    0.478904
      2          6           0       -4.870725    2.829180    1.373270
      3          6           0       -9.367811    3.240847   -0.267143
      4          6           0       -9.697523   -1.412239   -0.917815
      5          7           0       -5.152170    0.429290    0.801863
      6          6           0       -4.478493   -0.615554    0.802060
      7          6           0       -3.043451   -0.518037    1.289437
      8          6           0       -3.136348    0.967258    1.888542
      9          6           0       -4.397543    1.493920    1.312543
     10          6           0       -3.062227    0.903638    3.439134
     11          6           0       -1.990640   -0.576159    0.176578
     12          6           0       -0.587085   -0.766014    0.583540
     13          6           0        0.315638   -1.122545   -0.550404
     14          8           0        0.013426   -1.588003   -1.613036
     15          8           0        1.622612   -0.860871   -0.184999
     16          7           0       -7.193320    2.781712    0.534554
     17          6           0       -6.030004    3.410718    0.979872
     18          6           0       -6.271795    4.835900    1.006705
     19          6           0       -7.575022    4.973769    0.520264
     20          6           0       -8.061332    3.694001    0.171605
     21          6           0       -5.234978    5.895402    1.551397
     22          6           0       -8.355915    6.275202    0.247905
     23          6           0       -9.130903    6.659350   -0.726263
     24          7           0       -9.223602    0.907561   -0.518265
     25          6           0       -9.910063    2.031855   -0.560590
     26          6           0      -11.293189    1.800555   -0.901017
     27          6           0      -11.398355    0.417796   -1.087946
     28          6           0      -10.026848   -0.102756   -0.808692
     29          6           0      -12.331718    2.788164   -1.186867
     30          6           0      -12.636646   -0.367495   -1.659176
     31          6           0      -12.678867   -0.455902   -3.241827
     32          7           0       -7.403771   -1.161516   -0.220069
     33          6           0       -8.434806   -1.950645   -0.637759
     34          6           0       -8.081684   -3.322930   -0.582363
     35          6           0       -6.740069   -3.301578   -0.171440
     36          6           0       -6.402393   -2.039477    0.081031
     37          6           0       -8.980414   -4.455868   -0.930818
     38          6           0       -5.631503   -4.255063    0.123030
     39          8           0       -5.568484   -5.462043   -0.092304
     40          6           0       -4.433990   -3.229407    0.488284
     41          6           0       -3.944483   -3.747501    1.854755
     42          8           0       -4.243537   -3.426602    2.936080
     43          8           0       -3.044325   -4.695827    1.710450
     44          6           0       -2.459210   -5.445437    2.837140
     45          6           0        2.693767   -1.115716   -1.255837
     46          6           0        4.033043   -0.692771   -0.591145
     47          6           0        4.990819   -0.078541   -1.195151
     48          6           0        4.985585    0.281608   -2.642556
     49          6           0        6.360508    0.116198   -0.544099
     50          6           0        7.543661   -0.526185   -1.187718
     51          6           0        8.825853   -0.419351   -0.286424
     52          6           0       10.135377   -1.010488   -0.769274
     53          6           0       10.012366   -2.524023   -0.883567
     54          6           0       11.271967   -0.549082    0.059196
     55          6           0       12.700152   -0.755889   -0.581021
     56          6           0       13.782720   -0.062406    0.178977
     57          6           0       15.232838   -0.197091   -0.450244
     58          6           0       15.769174   -1.605720   -0.587542
     59          6           0       16.246629    0.654514    0.509921
     60          6           0       17.663527    0.900766   -0.168834
     61          6           0       18.542566    1.887650    0.667060
     62          6           0       19.954208    1.973525    0.211402
     63          6           0       20.058687    2.447372   -1.244671
     64          6           0       20.760114    2.768649    1.251242
     65          1           0       -4.016780    3.449659    1.867442
     66          1           0       -9.957750    4.272810   -0.574008
     67          1           0      -10.344282   -2.134083   -1.385410
     68          1           0       -2.506318   -1.303442    1.782232
     69          1           0       -2.330206    1.693063    1.635035
     70          1           0       -2.035979    0.770866    3.767689
     71          1           0       -3.290638    1.930145    3.780692
     72          1           0       -3.907395    0.349532    3.927129
     73          1           0       -2.172545   -1.441822   -0.514478
     74          1           0       -2.244971    0.354111   -0.522036
     75          1           0       -0.494421    0.037430    1.283266
     76          1           0       -0.150773   -1.386112    1.210481
     77          1           0       -4.325241    5.681752    1.043175
     78          1           0       -5.686290    6.983330    1.316198
     79          1           0       -5.092084    5.710275    2.539630
     80          1           0       -8.079828    6.945501    1.038009
     81          1           0       -9.286093    5.796115   -1.645100
     82          1           0       -9.403876    7.878645   -0.574253
     83          1           0      -12.064455    3.552421   -0.388692
     84          1           0      -12.425680    3.457043   -2.199905
     85          1           0      -13.389846    2.300699   -1.146060
     86          1           0      -12.637972   -1.329149   -1.326779
     87          1           0      -13.651372    0.048539   -1.484679
     88          1           0      -12.666877    0.449562   -3.735551
     89          1           0      -11.753978   -0.961426   -3.788937
     90          1           0      -13.373047   -1.258129   -3.597313
     91          1           0       -9.995573   -4.234191   -0.461547
     92          1           0       -9.182453   -4.408606   -2.023179
     93          1           0       -8.498990   -5.481861   -0.674287
     94          1           0       -3.458926   -3.357330   -0.231406
     95          1           0       -1.893197   -6.242786    2.417616
     96          1           0       -2.151092   -4.700579    3.611622
     97          1           0       -3.508306   -6.105502    3.258867
     98          1           0        2.564292   -2.102437   -1.671607
     99          1           0        2.497771   -0.675726   -2.269713
    100          1           0        4.088384   -0.915793    0.503609
    101          1           0        5.688274    1.203989   -3.012576
    102          1           0        5.566858   -0.611326   -3.371390
    103          1           0        4.010089    0.557193   -3.138366
    104          1           0        6.478003    1.176073   -0.249277
    105          1           0        6.386996   -0.425201    0.514754
    106          1           0        7.215345   -1.467011   -1.431149
    107          1           0        7.561535   -0.130400   -2.290456
    108          1           0        8.922144    0.786041   -0.126226
    109          1           0        8.605970   -0.590590    0.699640
    110          1           0       10.206956   -0.496054   -1.869647
    111          1           0        9.139025   -3.031915   -1.288296
    112          1           0       10.827585   -2.912793   -1.530990
    113          1           0       10.209196   -2.975653    0.050563
    114          1           0       11.111480    0.393632    0.210745
    115          1           0       11.229496   -0.998706    0.950814
    116          1           0       12.969800   -1.754118   -0.597192
    117          1           0       12.651905   -0.298871   -1.803480
    118          1           0       13.509740    0.888962    0.231655
    119          1           0       13.810579   -0.442326    1.289735
    120          1           0       15.282459    0.121717   -1.388419
    121          1           0       14.985226   -2.298884   -1.143040
    122          1           0       16.686322   -1.740085   -1.105352
    123          1           0       15.951562   -2.149998    0.393549
    124          1           0       15.661233    1.640848    0.702387
    125          1           0       16.349044    0.221360    1.564969
    126          1           0       18.158452   -0.121590   -0.050078
    127          1           0       17.714901    1.076011   -1.254958
    128          1           0       18.056487    2.897077    0.718824
    129          1           0       18.496617    1.468306    1.768716
    130          1           0       20.364779    1.014180    0.063747
    131          1           0       19.893914    3.626767   -1.409278
    132          1           0       21.223805    2.332139   -1.403563
    133          1           0       19.446999    1.680954   -1.784232
    134          1           0       20.884386    2.399291    2.509276
    135          1           0       21.966976    2.731761    1.186087
    136          1           0       20.486594    3.878227    1.109449
    137          1           0       -7.319664    1.674271    0.419836
    138          1           0       -7.636103   -0.089352    0.065832
 ---------------------------------------------------------------------

 SCF Done:  E(RB3LYP) =  -2732.98394427     A.U. after   17 cycles

 Excitation energies and oscillator strengths:

 Excited State   1:      Singlet-A      2.0755 eV  597.36 nm  f=0.1613  <S**2>=0.000
     235 -> 237        0.19788
     235 -> 238        0.28235
     236 -> 237        0.60054
     236 -> 238       -0.13930
 This state for optimization and/or second-order correction.
 Total Energy, E(TD-HF/TD-KS) =  -2732.90766924
 Copying the excited state density for this state as the 1-particle RhoCI density.

 The electronic state is 1-A.
 Alpha  occ. eigenvalues --  -19.17203 -19.16076 -19.13203 -19.13090 -19.11031
 Alpha  occ. eigenvalues --  -14.37438 -14.36405 -14.32234 -14.29926 -10.31858
 Alpha  occ. eigenvalues --  -10.30379 -10.28739 -10.26534 -10.25481 -10.23290
 Alpha  occ. eigenvalues --  -10.23144 -10.22916 -10.22870 -10.22489 -10.22254
 Alpha  occ. eigenvalues --  -10.22056 -10.22035 -10.21696 -10.21160 -10.20980
 Alpha  occ. eigenvalues --  -10.20972 -10.20948 -10.20946 -10.20878 -10.20690
 Alpha  occ. eigenvalues --  -10.20503 -10.20461 -10.20386 -10.20377 -10.20179
 Alpha  occ. eigenvalues --  -10.20151 -10.20136 -10.20066 -10.20054 -10.19880
 Alpha  occ. eigenvalues --  -10.19846 -10.19699 -10.19625 -10.19574 -10.19466
 Alpha  occ. eigenvalues --  -10.19388 -10.19284 -10.19118 -10.19074 -10.19069
 Alpha  occ. eigenvalues --  -10.18974 -10.18941 -10.18805 -10.18652 -10.18569
 Alpha  occ. eigenvalues --  -10.18564 -10.18559 -10.18553 -10.18489 -10.18426
 Alpha  occ. eigenvalues --  -10.18177 -10.17790 -10.17353 -10.16139  -1.10105
 Alpha  occ. eigenvalues --   -1.08036  -1.02389  -1.00104  -0.99785  -0.99119
 Alpha  occ. eigenvalues --   -0.98841  -0.96553  -0.95434  -0.85706  -0.83343
 Alpha  occ. eigenvalues --   -0.82863  -0.82204  -0.81485  -0.81307  -0.80764
 Alpha  occ. eigenvalues --   -0.80105  -0.79814  -0.79756  -0.78704  -0.78288
 Alpha  occ. eigenvalues --   -0.77036  -0.76139  -0.75592  -0.74724  -0.74261
 Alpha  occ. eigenvalues --   -0.73673  -0.73154  -0.72265  -0.71748  -0.71038
 Alpha  occ. eigenvalues --   -0.70488  -0.69059  -0.68944  -0.68574  -0.67231
 Alpha  occ. eigenvalues --   -0.67110  -0.66385  -0.66215  -0.65610  -0.65198
 Alpha  occ. eigenvalues --   -0.64618  -0.63080  -0.62104  -0.61615  -0.61216
 Alpha  occ. eigenvalues --   -0.60546  -0.59447  -0.58538  -0.57814  -0.57354
 Alpha  occ. eigenvalues --   -0.57316  -0.56852  -0.56622  -0.56154  -0.56104
 Alpha  occ. eigenvalues --   -0.54907  -0.54536  -0.54165  -0.54132  -0.52985
 Alpha  occ. eigenvalues --   -0.52719  -0.52118  -0.51666  -0.50852  -0.50237
 Alpha  occ. eigenvalues --   -0.49915  -0.49433  -0.49136  -0.48669  -0.48399
 Alpha  occ. eigenvalues --   -0.47740  -0.47391  -0.47300  -0.47105  -0.46736
 Alpha  occ. eigenvalues --   -0.46411  -0.46121  -0.45911  -0.45782  -0.45725
 Alpha  occ. eigenvalues --   -0.45575  -0.45336  -0.45174  -0.44908  -0.44791
 Alpha  occ. eigenvalues --   -0.44412  -0.44225  -0.43955  -0.43857  -0.43618
 Alpha  occ. eigenvalues --   -0.43504  -0.43404  -0.43250  -0.42819  -0.42505
 Alpha  occ. eigenvalues --   -0.42345  -0.42213  -0.41810  -0.41334  -0.41051
 Alpha  occ. eigenvalues --   -0.41031  -0.40894  -0.40870  -0.40640  -0.40558
 Alpha  occ. eigenvalues --   -0.40039  -0.39656  -0.39504  -0.39311  -0.39185
 Alpha  occ. eigenvalues --   -0.39030  -0.38904  -0.38798  -0.38576  -0.38270
 Alpha  occ. eigenvalues --   -0.38138  -0.38023  -0.37987  -0.37843  -0.37636
 Alpha  occ. eigenvalues --   -0.37599  -0.37408  -0.37167  -0.37025  -0.36923
 Alpha  occ. eigenvalues --   -0.36739  -0.36613  -0.36576  -0.36266  -0.36232
 Alpha  occ. eigenvalues --   -0.35832  -0.35504  -0.35272  -0.35025  -0.34520
 Alpha  occ. eigenvalues --   -0.34324  -0.34216  -0.33992  -0.33869  -0.33642
 Alpha  occ. eigenvalues --   -0.32989  -0.32758  -0.32531  -0.32206  -0.32050
 Alpha  occ. eigenvalues --   -0.31929  -0.31751  -0.31535  -0.31374  -0.30980
 Alpha  occ. eigenvalues --   -0.30942  -0.30840  -0.30693  -0.30582  -0.30234
 Alpha  occ. eigenvalues --   -0.30102  -0.29187  -0.28921  -0.28613  -0.28221
 Alpha  occ. eigenvalues --   -0.27438  -0.27294  -0.26880  -0.26507  -0.25661
 Alpha  occ. eigenvalues --   -0.25633  -0.25124  -0.24736  -0.22547  -0.19618
 Alpha  occ. eigenvalues --   -0.18778
 Alpha virt. eigenvalues --   -0.10167  -0.07413  -0.04386  -0.01752  -0.00358
 Alpha virt. eigenvalues --    0.00292   0.00802   0.02141   0.02539   0.03078
 Alpha virt. eigenvalues --    0.03648   0.03746   0.03820   0.04092   0.04567

 Mulliken charges:
               1
     1  C   -0.005520
     2  C   -0.121317
     3  C   -0.139162
     4  C   -0.138026
     5  N   -0.091123
     6  C   -0.058389
     7  C   -0.020913
     8  C   -0.035450
     9  C   -0.063259
    10  C    0.098293
    11  C   -0.005588
    12  C    0.083295
    13  C    0.214818
    14  O   -0.214629
    15  O   -0.371465
    16  N   -0.083527
    17  C    0.176849
    18  C   -0.174359
    19  C   -0.016460
    20  C   -0.013050
    21  C    0.161443
    22  C   -0.019437
    23  C   -0.087543
    24  N   -0.206518
    25  C    0.102577
    26  C   -0.076734
    27  C   -0.087441
    28  C    0.117607
    29  C   -0.023690
    30  C    0.132797
    31  C   -0.033884
    32  N   -0.090995
    33  C    0.057888
    34  C   -0.169222
    35  C   -0.012629
    36  C    0.140774
    37  C    0.079120
    38  C    0.107504
    39  O   -0.170047
    40  C   -0.150559
    41  C    0.153102
    42  O   -0.185375
    43  O   -0.314864
    44  C    0.147562
    45  C    0.256059
    46  C   -0.065923
    47  C   -0.043365
    48  C   -0.076118
    49  C    0.000557
    50  C    0.077290
    51  C    0.013545
    52  C   -0.067103
    53  C    0.071214
    54  C    0.196683
    55  C    0.001606
    56  C    0.081661
    57  C    0.015285
    58  C   -0.014204
    59  C   -0.016193
    60  C   -0.012893
    61  C    0.019317
    62  C   -0.024306
    63  C   -0.040381
    64  C   -0.074759
    65  H   -0.005782
    66  H    0.011907
    67  H   -0.031381
    68  H   -0.018347
    69  H   -0.001422
    70  H    0.010981
    71  H   -0.020310
    72  H    0.036885
    73  H    0.021481
    74  H    0.021669
    75  H   -0.001496
    76  H   -0.018364
    77  H    0.020493
    78  H    0.045530
    79  H    0.007801
    80  H   -0.005200
    81  H    0.076546
    82  H    0.065643
    83  H    0.037522
    84  H    0.044675
    85  H    0.029085
    86  H   -0.031071
    87  H    0.010648
    88  H    0.007027
    89  H   -0.003033
    90  H    0.016483
    91  H    0.034178
    92  H    0.033468
    93  H    0.061982
    94  H    0.096764
    95  H    0.046879
    96  H    0.063786
    97  H    0.043868
    98  H    0.018619
    99  H    0.011436
   100  H    0.007200
   101  H    0.038214
   102  H    0.048004
   103  H    0.038804
   104  H    0.008832
   105  H   -0.004809
   106  H   -0.031115
   107  H   -0.004878
   108  H   -0.010935
   109  H   -0.043188
   110  H   -0.000366
   111  H    0.006430
   112  H    0.001322
   113  H   -0.018509
   114  H   -0.075643
   115  H   -0.051047
   116  H   -0.018028
   117  H    0.005085
   118  H   -0.048028
   119  H   -0.001203
   120  H   -0.048410
   121  H    0.013033
   122  H    0.002854
   123  H    0.000401
   124  H   -0.000096
   125  H    0.012018
   126  H    0.001315
   127  H    0.011769
   128  H   -0.001488
   129  H    0.003216
   130  H   -0.026956
   131  H    0.029248
   132  H    0.020586
   133  H    0.033318
   134  H    0.031363
   135  H    0.013483
   136  H    0.027257
   137  H    0.193790
   138  H    0.207781
 Sum of Mulliken charges =   0.00000

 Dipole moment (field-independent basis, Debye):
    X=              3.5300    Y=              3.0165    Z=              0.9125  Tot=              4.7321
 Quadrupole moment (field-independent basis, Debye-Ang):
   XX=           -366.4229   YY=           -384.3560   ZZ=           -394.3606
   XY=            -22.5954   XZ=              8.8558   YZ=              1.1042

 Normal termination of Gaussian 09 at Wed Jul 24 12:28:15 2019.
