 Gaussian 09, Revision D.01,
 Gaussian 09:  ES64L-G09RevD.01 24-Apr-2013

 --------------------------
 # td=(NStates=1) B3LYP/SVP
 --------------------------

 --
 TD
 --
 Symbolic Z-matrix:
 Charge =  0 Multiplicity = 1

                         Standard orientation:
 ---------------------------------------------------------------------
 Center     Atomic      Atomic             Coordinates (Angstroms)
 Number     Number       Type             X           Y           Z
 ---------------------------------------------------------------------
      1          6           0       -5.024451   -1.945475    0.440245
      2          6           0       -4.721996    2.709518    1.265911
      3          6           0       -9.371095    3.267753   -0.165196
      4          6           0       -9.804117   -1.550312   -0.949041
      5          7           0       -5.135875    0.459870    0.634700
      6          6           0       -4.501370   -0.689139    0.793217
      7          6           0       -3.030734   -0.466805    1.272639
      8          6           0       -3.002280    0.937355    1.845903
      9          6           0       -4.330235    1.366079    1.252555
     10          6           0       -2.949099    0.954972    3.390479
     11          6           0       -2.069181   -0.759336    0.178338
     12          6           0       -0.603715   -0.839736    0.524564
     13          6           0        0.374195   -0.937902   -0.583134
     14          8           0        0.071831   -1.212564   -1.761635
     15          8           0        1.595945   -0.595770   -0.181972
     16          7           0       -7.036796    2.674736    0.339309
     17          6           0       -6.006751    3.308205    0.917008
     18          6           0       -6.379906    4.750590    0.977842
     19          6           0       -7.644472    4.890426    0.569919
     20          6           0       -8.097519    3.549394    0.214694
     21          6           0       -5.355044    5.775453    1.358503
     22          6           0       -8.387522    6.154517    0.536700
     23          6           0       -9.191503    6.535336   -0.473898
     24          7           0       -9.180499    0.762409   -0.455389
     25          6           0       -9.910308    2.002082   -0.442882
     26          6           0      -11.355518    1.733586   -0.854985
     27          6           0      -11.521054    0.361122   -1.022128
     28          6           0      -10.053469   -0.160410   -0.883764
     29          6           0      -12.445304    2.806932   -1.043332
     30          6           0      -12.805612   -0.403226   -1.374876
     31          6           0      -13.103019   -0.518332   -2.812827
     32          7           0       -7.410672   -1.195209   -0.414118
     33          6           0       -8.504817   -2.102915   -0.782978
     34          6           0       -8.079415   -3.373546   -0.858998
     35          6           0       -6.797293   -3.358313   -0.376832
     36          6           0       -6.384586   -2.041426   -0.150313
     37          6           0       -8.785415   -4.718490   -1.223813
     38          6           0       -5.679194   -4.286920   -0.116167
     39          8           0       -5.546262   -5.540621   -0.163795
     40          6           0       -4.458991   -3.300324    0.397203
     41          6           0       -3.860779   -3.830846    1.701954
     42          8           0       -4.248700   -3.534082    2.813997
     43          8           0       -2.815150   -4.687453    1.492597
     44          6           0       -2.249251   -5.385437    2.626527
     45          6           0        2.573573   -0.715340   -1.164646
     46          6           0        3.896735   -0.435635   -0.599659
     47          6           0        4.973211    0.347504   -0.959091
     48          6           0        4.945385    1.042230   -2.341266
     49          6           0        6.227549    0.389188   -0.160335
     50          6           0        7.534572   -0.201425   -0.923893
     51          6           0        8.731532   -0.143344   -0.017298
     52          6           0        9.941059   -0.762717   -0.622155
     53          6           0       10.012707   -2.337276   -0.359289
     54          6           0       11.154906   -0.083512    0.043656
     55          6           0       12.591208   -0.459845   -0.463190
     56          6           0       13.822412    0.043227    0.382546
     57          6           0       15.188809   -0.208634   -0.181231
     58          6           0       15.505830   -1.776003   -0.226241
     59          6           0       16.372006    0.615836    0.513017
     60          6           0       17.644662    0.593314   -0.234615
     61          6           0       18.713936    1.654751    0.457005
     62          6           0       20.214284    1.526298   -0.190688
     63          6           0       20.358938    1.936856   -1.612737
     64          6           0       21.218053    2.208254    0.809626
     65          1           0       -3.885946    3.381128    1.891841
     66          1           0      -10.210699    4.058212   -0.305211
     67          1           0      -10.533525   -2.206303   -1.269762
     68          1           0       -3.105320   -1.246049    2.176664
     69          1           0       -1.986664    1.468679    1.454368
     70          1           0       -2.077129    0.278423    3.757486
     71          1           0       -2.736363    1.989286    3.699925
     72          1           0       -4.016203    0.680917    3.986205
     73          1           0       -2.291632   -1.762307   -0.239271
     74          1           0       -1.991046    0.101607   -0.685471
     75          1           0       -0.104263   -0.084160    1.089870
     76          1           0       -0.435866   -1.529075    1.343652
     77          1           0       -4.574317    6.085029    0.411539
     78          1           0       -5.936539    6.821134    1.464730
     79          1           0       -4.865126    5.806749    2.445003
     80          1           0       -8.428148    6.913977    1.382774
     81          1           0       -9.147996    5.777045   -1.300163
     82          1           0       -9.575709    7.517435   -0.439557
     83          1           0      -12.615943    3.450629   -0.182118
     84          1           0      -12.129832    3.632353   -1.786826
     85          1           0      -13.359571    2.440199   -1.400022
     86          1           0      -12.879369   -1.380927   -0.856491
     87          1           0      -13.578358   -0.060973   -0.815573
     88          1           0      -13.372461    0.392910   -3.446673
     89          1           0      -12.355049   -1.137258   -3.283140
     90          1           0      -14.130733   -1.089464   -3.007204
     91          1           0       -9.581138   -4.732992   -0.598362
     92          1           0       -9.257357   -4.597251   -2.328023
     93          1           0       -7.974907   -5.476841   -1.220973
     94          1           0       -3.845130   -3.442440   -0.651902
     95          1           0       -1.388687   -6.117504    2.227212
     96          1           0       -1.718278   -4.819302    3.139140
     97          1           0       -2.979284   -5.852693    3.249414
     98          1           0        2.776527   -1.674063   -1.708134
     99          1           0        2.165091   -0.100906   -1.994526
    100          1           0        4.179154   -1.040082    0.246347
    101          1           0        5.448359    1.993379   -2.448752
    102          1           0        5.403426    0.446939   -2.874642
    103          1           0        3.897041    1.267108   -2.891734
    104          1           0        6.562420    1.532807    0.103103
    105          1           0        6.168917   -0.032091    0.812787
    106          1           0        7.139050   -1.013954   -1.161141
    107          1           0        7.629384    0.412913   -1.907642
    108          1           0        9.061802    0.710714    0.256551
    109          1           0        8.493612   -0.719439    0.932030
    110          1           0       10.082074   -0.537902   -1.755701
    111          1           0        9.190334   -2.615130   -1.013210
    112          1           0       10.877525   -2.874956   -0.865647
    113          1           0       10.044762   -2.554612    0.646657
    114          1           0       10.944407    1.242863   -0.043777
    115          1           0       10.973670   -0.061273    1.207376
    116          1           0       12.544901   -1.730448   -0.340940
    117          1           0       12.695926   -0.136039   -1.593873
    118          1           0       13.879059    1.090023    0.382515
    119          1           0       13.857020   -0.387925    1.435430
    120          1           0       15.015930   -0.034136   -1.276748
    121          1           0       14.953652   -2.258342   -0.904707
    122          1           0       16.469220   -1.968023   -0.535381
    123          1           0       15.332898   -2.303267    0.793466
    124          1           0       15.998374    1.644387    0.759695
    125          1           0       16.553218    0.172756    1.490656
    126          1           0       18.165691   -0.627356   -0.255416
    127          1           0       17.667892    0.830484   -1.440844
    128          1           0       18.396750    2.776424    0.202864
    129          1           0       18.943380    1.397453    1.517804
    130          1           0       20.369898    0.433076   -0.277001
    131          1           0       19.948149    3.062566   -1.744975
    132          1           0       21.504886    1.946036   -1.980136
    133          1           0       19.808645    0.999730   -2.182787
    134          1           0       21.330512    1.933139    1.741118
    135          1           0       22.197606    2.326078    0.340254
    136          1           0       20.750061    3.287443    0.838298
    137          1           0       -7.208883    1.661920    0.110891
    138          1           0       -7.441455   -0.116118   -0.639558
 ---------------------------------------------------------------------

 SCF Done:  E(RB3LYP) =  -2732.95747427     A.U. after   18 cycles

 Excitation energies and oscillator strengths:

 Excited State   1:      Singlet-A      2.0599 eV  601.91 nm  f=0.1625  <S**2>=0.000
     235 -> 238        0.31183
     236 -> 237        0.63182
 This state for optimization and/or second-order correction.
 Total Energy, E(TD-HF/TD-KS) =  -2732.88177575
 Copying the excited state density for this state as the 1-particle RhoCI density.

 The electronic state is 1-A.
 Alpha  occ. eigenvalues --  -19.18990 -19.17137 -19.12384 -19.12225 -19.12074
 Alpha  occ. eigenvalues --  -14.38333 -14.36651 -14.32366 -14.31407 -10.31821
 Alpha  occ. eigenvalues --  -10.31636 -10.28488 -10.25044 -10.24814 -10.23949
 Alpha  occ. eigenvalues --  -10.23370 -10.23343 -10.23109 -10.22686 -10.22657
 Alpha  occ. eigenvalues --  -10.22646 -10.22549 -10.22356 -10.22201 -10.21787
 Alpha  occ. eigenvalues --  -10.21576 -10.21425 -10.21139 -10.21044 -10.20895
 Alpha  occ. eigenvalues --  -10.20805 -10.20711 -10.20649 -10.20626 -10.20553
 Alpha  occ. eigenvalues --  -10.20545 -10.20539 -10.20384 -10.20302 -10.20261
 Alpha  occ. eigenvalues --  -10.20242 -10.20087 -10.20021 -10.19983 -10.19837
 Alpha  occ. eigenvalues --  -10.19761 -10.19693 -10.19681 -10.19482 -10.19426
 Alpha  occ. eigenvalues --  -10.19320 -10.19139 -10.19113 -10.19079 -10.18985
 Alpha  occ. eigenvalues --  -10.18445 -10.18429 -10.18225 -10.18035 -10.17985
 Alpha  occ. eigenvalues --  -10.17891 -10.17338 -10.17324 -10.16201  -1.11327
 Alpha  occ. eigenvalues --   -1.08038  -0.99968  -0.99724  -0.99578  -0.99424
 Alpha  occ. eigenvalues --   -0.97007  -0.95565  -0.91985  -0.83648  -0.82937
 Alpha  occ. eigenvalues --   -0.82900  -0.82204  -0.81171  -0.81056  -0.80617
 Alpha  occ. eigenvalues --   -0.80371  -0.79575  -0.78914  -0.78782  -0.78117
 Alpha  occ. eigenvalues --   -0.76748  -0.76131  -0.75457  -0.75025  -0.74619
 Alpha  occ. eigenvalues --   -0.73598  -0.73313  -0.72264  -0.70862  -0.70416
 Alpha  occ. eigenvalues --   -0.69867  -0.69037  -0.68844  -0.68491  -0.67810
 Alpha  occ. eigenvalues --   -0.67596  -0.67406  -0.66544  -0.66175  -0.65317
 Alpha  occ. eigenvalues --   -0.63947  -0.63515  -0.62360  -0.61968  -0.61044
 Alpha  occ. eigenvalues --   -0.60865  -0.59159  -0.58530  -0.57878  -0.57414
 Alpha  occ. eigenvalues --   -0.56597  -0.56430  -0.56282  -0.55048  -0.54583
 Alpha  occ. eigenvalues --   -0.54453  -0.54204  -0.53630  -0.53515  -0.53233
 Alpha  occ. eigenvalues --   -0.52780  -0.52111  -0.51424  -0.50913  -0.50340
 Alpha  occ. eigenvalues --   -0.49639  -0.49404  -0.49153  -0.48792  -0.48726
 Alpha  occ. eigenvalues --   -0.48359  -0.47865  -0.47066  -0.46850  -0.46591
 Alpha  occ. eigenvalues --   -0.46421  -0.46334  -0.46207  -0.46002  -0.45791
 Alpha  occ. eigenvalues --   -0.45216  -0.45154  -0.44975  -0.44842  -0.44655
 Alpha  occ. eigenvalues --   -0.44517  -0.44261  -0.44169  -0.43957  -0.43448
 Alpha  occ. eigenvalues --   -0.43060  -0.42928  -0.42674  -0.42383  -0.42353
 Alpha  occ. eigenvalues --   -0.42316  -0.41925  -0.41880  -0.41522  -0.41382
 Alpha  occ. eigenvalues --   -0.41034  -0.40933  -0.40771  -0.40465  -0.40218
 Alpha  occ. eigenvalues --   -0.40177  -0.40040  -0.39838  -0.39418  -0.39292
 Alpha  occ. eigenvalues --   -0.39124  -0.39007  -0.38509  -0.38378  -0.38241
 Alpha  occ. eigenvalues --   -0.37904  -0.37746  -0.37616  -0.37528  -0.37462
 Alpha  occ. eigenvalues --   -0.37279  -0.36898  -0.36670  -0.36609  -0.36472
 Alpha  occ. eigenvalues --   -0.36075  -0.36017  -0.35906  -0.35864  -0.35742
 Alpha  occ. eigenvalues --   -0.35644  -0.35197  -0.34930  -0.34852  -0.34703
 Alpha  occ. eigenvalues --   -0.34567  -0.34229  -0.33855  -0.33670  -0.33543
 Alpha  occ. eigenvalues --   -0.33288  -0.33207  -0.33028  -0.32863  -0.32648
 Alpha  occ. eigenvalues --   -0.32276  -0.32063  -0.31582  -0.31489  -0.31050
 Alpha  occ. eigenvalues --   -0.30723  -0.30690  -0.30569  -0.30133  -0.30117
 Alpha  occ. eigenvalues --   -0.29707  -0.28661  -0.28517  -0.28237  -0.27952
 Alpha  occ. eigenvalues --   -0.27567  -0.27490  -0.27194  -0.26470  -0.25949
 Alpha  occ. eigenvalues --   -0.25493  -0.24564  -0.23637  -0.23303  -0.19539
 Alpha  occ. eigenvalues --   -0.19193
 Alpha virt. eigenvalues --   -0.10538  -0.07269  -0.03969  -0.02151  -0.00528
 Alpha virt. eigenvalues --   -0.00301   0.00122   0.00211   0.02173   0.03658
 Alpha virt. eigenvalues --    0.03666   0.03947   0.04210   0.04239   0.04463

 Mulliken charges:
               1
     1  C   -0.001890
     2  C   -0.091894
     3  C   -0.129916
     4  C   -0.034207
     5  N   -0.147670
     6  C   -0.070721
     7  C   -0.067411
     8  C   -0.076992
     9  C    0.007273
    10  C    0.000064
    11  C    0.097610
    12  C    0.047031
    13  C    0.175188
    14  O   -0.271369
    15  O   -0.263101
    16  N   -0.033678
    17  C    0.085040
    18  C   -0.085707
    19  C    0.069558
    20  C    0.138194
    21  C   -0.038485
    22  C   -0.116318
    23  C   -0.007436
    24  N   -0.289732
    25  C    0.037601
    26  C   -0.114668
    27  C   -0.118336
    28  C    0.063765
    29  C    0.104870
    30  C    0.139129
    31  C   -0.008288
    32  N   -0.132979
    33  C    0.083681
    34  C   -0.150228
    35  C   -0.020456
    36  C    0.065844
    37  C    0.133808
    38  C    0.079623
    39  O   -0.217883
    40  C   -0.096308
    41  C    0.247356
    42  O   -0.228906
    43  O   -0.326817
    44  C    0.275320
    45  C    0.283625
    46  C   -0.103298
    47  C   -0.126838
    48  C    0.120066
    49  C    0.018451
    50  C    0.072469
    51  C    0.209168
    52  C   -0.134776
    53  C    0.063580
    54  C   -0.083505
    55  C   -0.026029
    56  C    0.099146
    57  C   -0.122719
    58  C    0.082174
    59  C    0.113738
    60  C   -0.120178
    61  C   -0.009956
    62  C   -0.108289
    63  C   -0.064116
    64  C    0.080375
    65  H    0.019082
    66  H    0.011950
    67  H   -0.057075
    68  H    0.042800
    69  H    0.039594
    70  H    0.036309
    71  H    0.012512
    72  H    0.055274
    73  H    0.025025
    74  H    0.037461
    75  H   -0.007850
    76  H    0.006351
    77  H    0.063887
    78  H    0.014120
    79  H    0.057955
    80  H    0.027795
    81  H    0.040530
    82  H    0.016733
    83  H    0.013499
    84  H    0.016146
    85  H    0.000469
    86  H   -0.010563
    87  H   -0.037695
    88  H    0.025997
    89  H    0.011714
    90  H    0.005417
    91  H    0.008517
    92  H    0.029940
    93  H    0.063802
    94  H    0.098568
    95  H    0.035896
    96  H   -0.051134
    97  H    0.032500
    98  H    0.034540
    99  H    0.006134
   100  H   -0.023501
   101  H    0.001119
   102  H   -0.045879
   103  H    0.028241
   104  H    0.012717
   105  H   -0.014027
   106  H   -0.066363
   107  H    0.013650
   108  H   -0.086253
   109  H   -0.008575
   110  H    0.003330
   111  H    0.003229
   112  H    0.016881
   113  H    0.002106
   114  H   -0.012089
   115  H    0.007026
   116  H    0.029686
   117  H    0.025766
   118  H   -0.023371
   119  H   -0.000670
   120  H   -0.014349
   121  H   -0.030828
   122  H   -0.029648
   123  H    0.001408
   124  H    0.001244
   125  H   -0.003929
   126  H    0.025071
   127  H    0.031990
   128  H    0.029237
   129  H    0.019331
   130  H   -0.011144
   131  H    0.025886
   132  H    0.030774
   133  H    0.041996
   134  H   -0.022240
   135  H   -0.000801
   136  H   -0.001160
   137  H    0.160906
   138  H    0.204388
 Sum of Mulliken charges =   0.00000

 Dipole moment (field-independent basis, Debye):
    X=              1.1799    Y=              4.8726    Z=              0.8133  Tot=              5.0790
 Quadrupole moment (field-independent basis, Debye-Ang):
   XX=           -332.5473   YY=           -387.2642   ZZ=           -394.9644
   XY=            -38.0624   XZ=             15.4012   YZ=              1.1324

 Normal termination of Gaussian 09 at Fri Aug  2 12:22:01 2019.
