 Gaussian 09, Revision D.01,
 Gaussian 09:  ES64L-G09RevD.01 24-Apr-2013

 --------------------------
 # td=(NStates=1) B3LYP/SVP
 --------------------------

 --
 TD
 --
 Symbolic Z-matrix:
 Charge =  0 Multiplicity = 1

                         Standard orientation:
 ---------------------------------------------------------------------
 Center     Atomic      Atomic             Coordinates (Angstroms)
 Number     Number       Type             X           Y           Z
 ---------------------------------------------------------------------
      1          6           0       -5.048753   -1.910322    0.404733
      2          6           0       -4.808071    2.797963    1.447305
      3          6           0       -9.208130    3.349230   -0.349730
      4          6           0       -9.797581   -1.477323   -0.976114
      5          7           0       -5.170235    0.434717    0.842802
      6          6           0       -4.521122   -0.751677    0.808662
      7          6           0       -3.132939   -0.491614    1.329203
      8          6           0       -3.137317    0.830099    1.945319
      9          6           0       -4.497563    1.387645    1.381872
     10          6           0       -3.198313    0.751117    3.478226
     11          6           0       -2.059945   -0.698070    0.231459
     12          6           0       -0.550594   -0.832394    0.704854
     13          6           0        0.400867   -1.002319   -0.558960
     14          8           0        0.092032   -1.343269   -1.673826
     15          8           0        1.734220   -0.840154   -0.150726
     16          7           0       -7.061601    2.786785    0.431684
     17          6           0       -5.934371    3.400029    0.934410
     18          6           0       -6.265043    4.769090    1.045597
     19          6           0       -7.533893    4.970103    0.460879
     20          6           0       -8.054385    3.676808    0.119668
     21          6           0       -5.307587    5.834383    1.459190
     22          6           0       -8.227143    6.180612    0.360531
     23          6           0       -9.227277    6.499165   -0.527287
     24          7           0       -9.052401    0.849031   -0.542791
     25          6           0       -9.746667    2.071685   -0.618674
     26          6           0      -11.189283    1.791835   -1.043501
     27          6           0      -11.358090    0.492280   -1.172279
     28          6           0      -10.115504   -0.118425   -0.830293
     29          6           0      -12.249070    2.882519   -1.018702
     30          6           0      -12.562616   -0.266522   -1.561462
     31          6           0      -12.651464   -0.661169   -3.081084
     32          7           0       -7.463175   -1.234763   -0.157564
     33          6           0       -8.522278   -1.989878   -0.696788
     34          6           0       -8.159906   -3.352880   -0.718764
     35          6           0       -6.817749   -3.334990   -0.201083
     36          6           0       -6.437158   -1.999994    0.012779
     37          6           0       -9.008292   -4.548653   -0.970448
     38          6           0       -5.575708   -4.285680    0.090881
     39          8           0       -5.518984   -5.472130   -0.049133
     40          6           0       -4.524510   -3.299373    0.423077
     41          6           0       -3.952024   -3.781635    1.737429
     42          8           0       -4.094549   -3.293993    2.784551
     43          8           0       -3.047725   -4.819914    1.506382
     44          6           0       -2.575350   -5.455819    2.658405
     45          6           0        2.677882   -0.939007   -1.209430
     46          6           0        3.913862   -0.517254   -0.638763
     47          6           0        4.951029    0.094105   -1.168181
     48          6           0        4.942155    0.789029   -2.580891
     49          6           0        6.270510    0.365832   -0.511903
     50          6           0        7.530031   -0.357853   -1.170512
     51          6           0        8.732171   -0.258912   -0.281723
     52          6           0       10.015505   -0.776423   -0.873473
     53          6           0        9.976229   -2.276287   -0.904395
     54          6           0       11.240559   -0.280402   -0.001163
     55          6           0       12.734783   -0.561786   -0.563679
     56          6           0       13.840663   -0.113623    0.307540
     57          6           0       15.221302   -0.251492   -0.343211
     58          6           0       15.570641   -1.763006   -0.500534
     59          6           0       16.213656    0.397447    0.523447
     60          6           0       17.744193    0.603454   -0.079728
     61          6           0       18.565428    1.645761    0.655392
     62          6           0       19.998333    1.784557    0.172315
     63          6           0       20.179922    2.247100   -1.312397
     64          6           0       20.881647    2.631079    1.152295
     65          1           0       -4.059802    3.504251    1.932400
     66          1           0      -10.040683    4.171989   -0.403055
     67          1           0      -10.469184   -2.252826   -1.141889
     68          1           0       -2.868043   -1.278932    2.153028
     69          1           0       -2.378460    1.406836    1.574289
     70          1           0       -2.237864    0.555630    3.976824
     71          1           0       -3.429688    1.785429    3.868170
     72          1           0       -4.030396    0.166042    3.785858
     73          1           0       -2.316304   -1.557971   -0.518102
     74          1           0       -2.027411    0.136933   -0.440011
     75          1           0       -0.169233    0.133448    1.252073
     76          1           0       -0.340382   -1.796025    1.412716
     77          1           0       -4.724202    6.256029    0.460351
     78          1           0       -5.993779    6.687282    1.970023
     79          1           0       -4.535830    5.377358    2.280394
     80          1           0       -7.993535    6.971209    1.034201
     81          1           0       -9.467409    5.738121   -1.439151
     82          1           0       -9.588684    7.478231   -0.417876
     83          1           0      -12.644476    3.280725    0.127440
     84          1           0      -12.170057    3.941880   -1.307211
     85          1           0      -13.229317    2.410029   -1.412286
     86          1           0      -12.600092   -1.213732   -1.039581
     87          1           0      -13.488988    0.363985   -1.496954
     88          1           0      -12.582672    0.226121   -3.680927
     89          1           0      -11.728448   -1.165966   -3.471782
     90          1           0      -13.458597   -1.144765   -3.373552
     91          1           0       -9.726891   -4.841483   -0.153071
     92          1           0       -9.841465   -4.231438   -1.977734
     93          1           0       -8.349290   -5.355695   -1.203894
     94          1           0       -3.671106   -3.546877   -0.310918
     95          1           0       -1.936851   -6.211689    2.278164
     96          1           0       -1.737494   -4.775952    3.251243
     97          1           0       -3.391972   -5.872499    3.337892
     98          1           0        2.756905   -2.005361   -1.784352
     99          1           0        2.176362   -0.286477   -2.017452
    100          1           0        4.244916   -0.865871    0.370668
    101          1           0        5.629147    1.723925   -2.528232
    102          1           0        5.392592    0.116816   -3.513363
    103          1           0        3.881043    0.816249   -2.784303
    104          1           0        6.414727    1.392009   -0.387379
    105          1           0        6.211070    0.120113    0.511252
    106          1           0        7.000521   -1.494030   -1.067503
    107          1           0        7.634509   -0.059463   -2.335973
    108          1           0        9.013845    0.810692   -0.212307
    109          1           0        8.764541   -0.480447    0.688992
    110          1           0       10.411557   -0.267709   -1.980708
    111          1           0        9.038529   -2.680917   -1.267859
    112          1           0       10.762434   -2.829637   -1.400776
    113          1           0       10.074474   -2.940002    0.146412
    114          1           0       11.146736    0.854712    0.156650
    115          1           0       11.416789   -0.695607    1.018268
    116          1           0       12.662608   -1.596974   -0.844524
    117          1           0       12.923207   -0.102462   -1.677490
    118          1           0       13.611359    1.040069    0.642359
    119          1           0       13.892913   -0.643943    1.225604
    120          1           0       15.350748    0.329039   -1.202201
    121          1           0       14.569794   -2.314777   -0.937184
    122          1           0       16.559289   -2.101411   -1.073199
    123          1           0       15.644843   -2.317190    0.396471
    124          1           0       15.881248    1.500120    0.802997
    125          1           0       16.422447   -0.100851    1.551630
    126          1           0       18.289771   -0.250227    0.052480
    127          1           0       17.439685    1.139731   -1.044364
    128          1           0       18.184896    2.623105    0.560891
    129          1           0       18.596897    1.249043    1.632525
    130          1           0       20.278919    0.845837    0.317623
    131          1           0       19.850630    3.226787   -1.413393
    132          1           0       21.281191    2.272448   -1.442770
    133          1           0       19.607946    1.572506   -2.016290
    134          1           0       20.574096    2.107471    2.077832
    135          1           0       21.984654    2.383777    0.904504
    136          1           0       20.655668    3.847591    1.272644
    137          1           0       -7.325559    1.815547    0.171590
    138          1           0       -7.641444   -0.123499   -0.115638
 ---------------------------------------------------------------------

 SCF Done:  E(RB3LYP) =  -2733.06569224     A.U. after   16 cycles

 Excitation energies and oscillator strengths:

 Excited State   1:      Singlet-A      2.1175 eV  585.53 nm  f=0.1628  <S**2>=0.000
     235 -> 238       -0.28020
     236 -> 237        0.64122
 This state for optimization and/or second-order correction.
 Total Energy, E(TD-HF/TD-KS) =  -2732.98787720
 Copying the excited state density for this state as the 1-particle RhoCI density.

 The electronic state is 1-A.
 Alpha  occ. eigenvalues --  -19.17579 -19.17208 -19.14007 -19.13698 -19.12663
 Alpha  occ. eigenvalues --  -14.36303 -14.36180 -14.32088 -14.31555 -10.32415
 Alpha  occ. eigenvalues --  -10.31828 -10.28286 -10.25702 -10.24872 -10.24137
 Alpha  occ. eigenvalues --  -10.23329 -10.23244 -10.23104 -10.22813 -10.22660
 Alpha  occ. eigenvalues --  -10.22548 -10.22249 -10.22141 -10.21935 -10.21923
 Alpha  occ. eigenvalues --  -10.21506 -10.21305 -10.21286 -10.20989 -10.20703
 Alpha  occ. eigenvalues --  -10.20570 -10.20519 -10.20282 -10.20258 -10.20246
 Alpha  occ. eigenvalues --  -10.20241 -10.20237 -10.20199 -10.20115 -10.19914
 Alpha  occ. eigenvalues --  -10.19684 -10.19455 -10.19406 -10.19389 -10.19347
 Alpha  occ. eigenvalues --  -10.19311 -10.19154 -10.18934 -10.18883 -10.18837
 Alpha  occ. eigenvalues --  -10.18704 -10.18638 -10.18620 -10.18514 -10.18369
 Alpha  occ. eigenvalues --  -10.18184 -10.18068 -10.18027 -10.17869 -10.17790
 Alpha  occ. eigenvalues --  -10.17373 -10.17354 -10.17271 -10.16288  -1.10529
 Alpha  occ. eigenvalues --   -1.08958  -1.03989  -1.02511  -1.01455  -0.98686
 Alpha  occ. eigenvalues --   -0.98485  -0.96021  -0.91799  -0.85574  -0.82721
 Alpha  occ. eigenvalues --   -0.82592  -0.82518  -0.82232  -0.81270  -0.80943
 Alpha  occ. eigenvalues --   -0.80558  -0.80253  -0.80108  -0.78792  -0.77366
 Alpha  occ. eigenvalues --   -0.76788  -0.75739  -0.75599  -0.74736  -0.74501
 Alpha  occ. eigenvalues --   -0.73890  -0.73107  -0.72518  -0.71257  -0.70370
 Alpha  occ. eigenvalues --   -0.69638  -0.69404  -0.68721  -0.67638  -0.67239
 Alpha  occ. eigenvalues --   -0.67068  -0.66340  -0.66069  -0.65956  -0.65424
 Alpha  occ. eigenvalues --   -0.64333  -0.63146  -0.62656  -0.61916  -0.61274
 Alpha  occ. eigenvalues --   -0.61039  -0.59314  -0.58830  -0.58010  -0.57826
 Alpha  occ. eigenvalues --   -0.56821  -0.56145  -0.55830  -0.55651  -0.55430
 Alpha  occ. eigenvalues --   -0.55201  -0.54638  -0.54115  -0.53436  -0.53032
 Alpha  occ. eigenvalues --   -0.52755  -0.52047  -0.51553  -0.51355  -0.50772
 Alpha  occ. eigenvalues --   -0.50246  -0.49288  -0.48954  -0.48847  -0.48686
 Alpha  occ. eigenvalues --   -0.48466  -0.47839  -0.47733  -0.47453  -0.47122
 Alpha  occ. eigenvalues --   -0.46876  -0.46397  -0.46180  -0.46068  -0.45955
 Alpha  occ. eigenvalues --   -0.45606  -0.45431  -0.45024  -0.44607  -0.44506
 Alpha  occ. eigenvalues --   -0.44350  -0.44096  -0.44027  -0.43836  -0.43675
 Alpha  occ. eigenvalues --   -0.43598  -0.43210  -0.43066  -0.43003  -0.42504
 Alpha  occ. eigenvalues --   -0.42272  -0.42137  -0.42018  -0.41566  -0.41221
 Alpha  occ. eigenvalues --   -0.40871  -0.40742  -0.40663  -0.40434  -0.40397
 Alpha  occ. eigenvalues --   -0.40243  -0.40081  -0.39837  -0.39754  -0.39576
 Alpha  occ. eigenvalues --   -0.39342  -0.39118  -0.38900  -0.38703  -0.38425
 Alpha  occ. eigenvalues --   -0.38279  -0.38145  -0.38109  -0.37905  -0.37846
 Alpha  occ. eigenvalues --   -0.37644  -0.37179  -0.37095  -0.36897  -0.36736
 Alpha  occ. eigenvalues --   -0.36674  -0.36372  -0.36155  -0.36016  -0.35815
 Alpha  occ. eigenvalues --   -0.35535  -0.35488  -0.34980  -0.34957  -0.34801
 Alpha  occ. eigenvalues --   -0.34770  -0.34709  -0.34373  -0.34220  -0.33780
 Alpha  occ. eigenvalues --   -0.33561  -0.33361  -0.33250  -0.33112  -0.32715
 Alpha  occ. eigenvalues --   -0.32250  -0.31928  -0.31660  -0.31436  -0.31264
 Alpha  occ. eigenvalues --   -0.30942  -0.30709  -0.30417  -0.30126  -0.29899
 Alpha  occ. eigenvalues --   -0.29782  -0.29502  -0.29058  -0.28689  -0.28639
 Alpha  occ. eigenvalues --   -0.28230  -0.27961  -0.26864  -0.25680  -0.25253
 Alpha  occ. eigenvalues --   -0.24852  -0.24803  -0.23713  -0.23602  -0.20259
 Alpha  occ. eigenvalues --   -0.19285
 Alpha virt. eigenvalues --   -0.10329  -0.07938  -0.03989  -0.02304  -0.01129
 Alpha virt. eigenvalues --   -0.00112   0.00666   0.00965   0.02296   0.03253
 Alpha virt. eigenvalues --    0.03563   0.03736   0.04156   0.04289   0.04305

 Mulliken charges:
               1
     1  C    0.069540
     2  C   -0.094654
     3  C   -0.144473
     4  C   -0.049469
     5  N   -0.090388
     6  C   -0.109680
     7  C   -0.041915
     8  C    0.033182
     9  C   -0.078958
    10  C    0.099290
    11  C    0.028086
    12  C   -0.043314
    13  C    0.195017
    14  O   -0.215988
    15  O   -0.333826
    16  N   -0.083355
    17  C    0.177638
    18  C   -0.136225
    19  C    0.118791
    20  C    0.131637
    21  C   -0.038407
    22  C   -0.106743
    23  C   -0.037409
    24  N   -0.373323
    25  C    0.056161
    26  C   -0.064359
    27  C   -0.045374
    28  C    0.121720
    29  C   -0.025240
    30  C    0.077813
    31  C    0.050148
    32  N   -0.039944
    33  C    0.060429
    34  C   -0.127728
    35  C   -0.118446
    36  C    0.071012
    37  C    0.017706
    38  C    0.076435
    39  O   -0.137376
    40  C   -0.018394
    41  C    0.170502
    42  O   -0.155730
    43  O   -0.319101
    44  C    0.151934
    45  C    0.206647
    46  C   -0.038377
    47  C   -0.177395
    48  C    0.010622
    49  C    0.129243
    50  C   -0.046074
    51  C    0.153979
    52  C   -0.104129
    53  C    0.013640
    54  C   -0.021939
    55  C    0.002312
    56  C    0.019853
    57  C    0.056997
    58  C   -0.016039
    59  C   -0.075890
    60  C    0.055013
    61  C    0.044072
    62  C   -0.057848
    63  C    0.063703
    64  C   -0.033486
    65  H   -0.003642
    66  H    0.017642
    67  H   -0.053459
    68  H    0.030117
    69  H   -0.050666
    70  H    0.018336
    71  H   -0.011813
    72  H    0.021084
    73  H    0.034923
    74  H   -0.009702
    75  H    0.051290
    76  H    0.069071
    77  H    0.075828
    78  H    0.050977
    79  H    0.053162
    80  H   -0.018823
    81  H    0.066933
    82  H    0.009131
    83  H    0.021861
    84  H    0.027813
    85  H    0.023205
    86  H    0.004765
    87  H    0.008220
    88  H   -0.010247
    89  H    0.004303
    90  H   -0.015469
    91  H    0.053163
    92  H    0.030652
    93  H    0.043606
    94  H    0.084434
    95  H    0.016514
    96  H    0.024892
    97  H    0.049795
    98  H    0.055191
    99  H    0.035292
   100  H   -0.009172
   101  H    0.039228
   102  H    0.038375
   103  H    0.003445
   104  H   -0.020892
   105  H   -0.045649
   106  H    0.027290
   107  H    0.042059
   108  H   -0.022549
   109  H   -0.045051
   110  H    0.026549
   111  H   -0.000358
   112  H    0.005466
   113  H    0.002198
   114  H   -0.000436
   115  H   -0.002014
   116  H   -0.008519
   117  H   -0.006889
   118  H    0.011202
   119  H   -0.017268
   120  H   -0.031017
   121  H    0.012233
   122  H    0.035806
   123  H   -0.009815
   124  H   -0.000155
   125  H   -0.009152
   126  H   -0.022260
   127  H    0.009379
   128  H   -0.026412
   129  H   -0.029621
   130  H   -0.059339
   131  H   -0.014852
   132  H    0.004259
   133  H    0.023032
   134  H    0.005387
   135  H    0.026671
   136  H    0.036516
   137  H    0.148479
   138  H    0.213350
 Sum of Mulliken charges =   0.00000

 Dipole moment (field-independent basis, Debye):
    X=              0.3375    Y=              4.2413    Z=              1.4190  Tot=              4.4851
 Quadrupole moment (field-independent basis, Debye-Ang):
   XX=           -353.8446   YY=           -382.1514   ZZ=           -399.3282
   XY=            -31.3596   XZ=             10.8452   YZ=             -2.1857

 Normal termination of Gaussian 09 at Sun Aug  4 19:25:59 2019.
