 Gaussian 09, Revision D.01,
 Gaussian 09:  ES64L-G09RevD.01 24-Apr-2013

 --------------------------
 # td=(NStates=1) B3LYP/SVP
 --------------------------

 --
 TD
 --
 Symbolic Z-matrix:
 Charge =  0 Multiplicity = 1

                         Standard orientation:
 ---------------------------------------------------------------------
 Center     Atomic      Atomic             Coordinates (Angstroms)
 Number     Number       Type             X           Y           Z
 ---------------------------------------------------------------------
      1          6           0       -5.143070   -1.895204    0.441239
      2          6           0       -4.688778    2.683083    1.573647
      3          6           0       -9.150324    3.427344   -0.103558
      4          6           0       -9.797207   -1.285384   -1.296960
      5          7           0       -5.112787    0.402602    1.025114
      6          6           0       -4.481912   -0.781646    0.929575
      7          6           0       -3.022140   -0.608915    1.252266
      8          6           0       -3.031197    0.774080    1.980802
      9          6           0       -4.317089    1.302491    1.488013
     10          6           0       -2.920314    0.685554    3.422276
     11          6           0       -2.028509   -0.753659    0.135171
     12          6           0       -0.642813   -0.864504    0.694723
     13          6           0        0.299150   -1.281527   -0.425495
     14          8           0        0.123928   -2.058803   -1.378562
     15          8           0        1.592750   -0.763896   -0.152814
     16          7           0       -6.937881    2.687542    0.500510
     17          6           0       -5.840854    3.342587    1.116594
     18          6           0       -6.085251    4.780993    1.150938
     19          6           0       -7.363382    4.991605    0.553178
     20          6           0       -7.927627    3.705637    0.137388
     21          6           0       -5.074705    5.773999    1.501803
     22          6           0       -7.956502    6.405278    0.389849
     23          6           0       -8.902160    6.715500   -0.462162
     24          7           0       -9.216183    1.008059   -0.465331
     25          6           0       -9.770890    2.141241   -0.498116
     26          6           0      -11.168946    2.024549   -0.889917
     27          6           0      -11.354176    0.704047   -1.334642
     28          6           0      -10.120467   -0.015675   -0.920194
     29          6           0      -12.210407    3.180585   -1.075983
     30          6           0      -12.623938    0.115596   -1.855707
     31          6           0      -12.546958   -0.061227   -3.314359
     32          7           0       -7.630176   -1.244502   -0.292320
     33          6           0       -8.559581   -1.937757   -0.898702
     34          6           0       -8.184564   -3.321554   -0.903262
     35          6           0       -6.875429   -3.348035   -0.361324
     36          6           0       -6.447635   -1.989037   -0.058208
     37          6           0       -9.096205   -4.541400   -1.185198
     38          6           0       -5.789371   -4.292471   -0.065955
     39          8           0       -5.771347   -5.433350   -0.295414
     40          6           0       -4.582769   -3.333719    0.457225
     41          6           0       -4.052770   -3.914937    1.765046
     42          8           0       -4.253265   -3.314252    2.822328
     43          8           0       -3.391555   -5.089171    1.585682
     44          6           0       -3.016779   -5.689012    2.722261
     45          6           0        2.585065   -1.262580   -1.163480
     46          6           0        3.957338   -0.800385   -0.502451
     47          6           0        4.958039   -0.080457   -1.008322
     48          6           0        4.829937    0.483018   -2.443625
     49          6           0        6.261339    0.101409   -0.321065
     50          6           0        7.511162   -0.498778   -0.994052
     51          6           0        8.729468   -0.290694   -0.124639
     52          6           0       10.097156   -0.787767   -0.707023
     53          6           0       10.080486   -2.303906   -0.861442
     54          6           0       11.315951   -0.348292    0.114516
     55          6           0       12.715271   -0.487285   -0.524633
     56          6           0       13.800419   -0.056945    0.396242
     57          6           0       15.185855   -0.188224   -0.137975
     58          6           0       15.630264   -1.600038   -0.474595
     59          6           0       16.290391    0.754080    0.585844
     60          6           0       17.575513    0.762954   -0.218430
     61          6           0       18.601637    1.773148    0.474657
     62          6           0       19.959515    1.798849   -0.110687
     63          6           0       20.086214    2.361711   -1.603337
     64          6           0       20.901188    2.505361    0.779905
     65          1           0       -4.067637    3.357529    2.013347
     66          1           0       -9.986157    4.210521   -0.172764
     67          1           0      -10.539764   -1.807005   -1.850522
     68          1           0       -2.746374   -1.303491    2.171499
     69          1           0       -2.123669    1.434463    1.861658
     70          1           0       -2.042413    0.054681    3.598992
     71          1           0       -2.972170    1.727719    4.013817
     72          1           0       -3.592155    0.047017    3.999921
     73          1           0       -2.256845   -1.831625   -0.242877
     74          1           0       -1.901643    0.097460   -0.675623
     75          1           0       -0.030688    0.096223    1.058489
     76          1           0       -0.528689   -1.685168    1.284614
     77          1           0       -4.225433    5.992346    0.758708
     78          1           0       -5.480381    6.777901    2.007062
     79          1           0       -4.659970    5.157285    2.529193
     80          1           0       -7.774692    7.227407    1.208777
     81          1           0       -9.301880    6.030566   -1.199850
     82          1           0       -9.345411    7.714024   -0.373118
     83          1           0      -12.240327    4.026865   -0.366797
     84          1           0      -12.126957    3.728958   -1.944124
     85          1           0      -13.258906    2.786603   -1.109460
     86          1           0      -12.925139   -1.026327   -1.638853
     87          1           0      -13.438665    0.851977   -1.615375
     88          1           0      -12.604856    0.995952   -3.870503
     89          1           0      -11.480024   -0.437053   -3.684290
     90          1           0      -13.299819   -0.609452   -3.704526
     91          1           0       -9.643566   -4.652697   -0.292420
     92          1           0       -9.690588   -4.123726   -2.008509
     93          1           0       -8.606289   -5.532183   -1.512022
     94          1           0       -3.671280   -3.542522   -0.142855
     95          1           0       -2.265510   -6.399485    2.274544
     96          1           0       -2.350099   -5.163701    3.477691
     97          1           0       -3.751898   -6.098275    3.375955
     98          1           0        2.717331   -2.445682   -1.083372
     99          1           0        2.521108   -1.045243   -2.170806
    100          1           0        4.035640   -1.299842    0.454945
    101          1           0        5.063494    1.769860   -2.351438
    102          1           0        5.861442    0.218375   -3.082337
    103          1           0        3.840414    0.266269   -2.916525
    104          1           0        6.399006    1.126320   -0.111738
    105          1           0        6.187792   -0.409162    0.598060
    106          1           0        7.268027   -1.570721   -1.226406
    107          1           0        7.753190    0.163417   -1.836653
    108          1           0        8.796119    0.730617    0.171195
    109          1           0        8.548107   -0.847368    0.829484
    110          1           0       10.184696   -0.205178   -1.767644
    111          1           0        9.077127   -2.751011   -1.471658
    112          1           0       11.045642   -2.571532   -1.466242
    113          1           0       10.140272   -2.823723    0.062510
    114          1           0       11.072232    0.753428    0.542589
    115          1           0       11.337998   -0.844452    1.275432
    116          1           0       12.985592   -1.595925   -1.103149
    117          1           0       12.613282    0.145700   -1.426387
    118          1           0       13.622372    1.087208    0.923338
    119          1           0       13.987374   -0.837704    1.194534
    120          1           0       15.109931    0.216279   -1.342784
    121          1           0       14.914742   -1.863418   -1.169419
    122          1           0       16.489970   -1.550662   -1.154408
    123          1           0       15.590360   -1.949540    0.732604
    124          1           0       15.791189    1.668102    0.555495
    125          1           0       16.588961    0.289748    1.592470
    126          1           0       18.101501   -0.255379   -0.267183
    127          1           0       17.327290    1.231585   -1.292622
    128          1           0       17.999348    2.764636    0.527705
    129          1           0       18.758812    1.496981    1.483723
    130          1           0       20.327229    0.902017    0.141264
    131          1           0       19.600750    3.288460   -1.620552
    132          1           0       21.234398    2.277102   -1.870001
    133          1           0       19.496120    1.724299   -2.239042
    134          1           0       20.833910    2.159164    1.887497
    135          1           0       21.947857    2.642799    0.611619
    136          1           0       20.668789    3.603280    0.732650
    137          1           0       -7.001229    1.775493    0.141719
    138          1           0       -7.613020   -0.279627   -0.049755
 ---------------------------------------------------------------------

 SCF Done:  E(RB3LYP) =  -2733.01798349     A.U. after   16 cycles

 Excitation energies and oscillator strengths:

 Excited State   1:      Singlet-A      2.1929 eV  565.39 nm  f=0.1571  <S**2>=0.000
     235 -> 237       -0.12790
     235 -> 238        0.29482
     236 -> 237        0.61689
     236 -> 238        0.12212
 This state for optimization and/or second-order correction.
 Total Energy, E(TD-HF/TD-KS) =  -2732.93739537
 Copying the excited state density for this state as the 1-particle RhoCI density.

 The electronic state is 1-A.
 Alpha  occ. eigenvalues --  -19.19364 -19.17951 -19.13271 -19.12729 -19.12357
 Alpha  occ. eigenvalues --  -14.37074 -14.35890 -14.31450 -14.29782 -10.32072
 Alpha  occ. eigenvalues --  -10.31882 -10.27507 -10.25414 -10.24642 -10.24146
 Alpha  occ. eigenvalues --  -10.23476 -10.23415 -10.23338 -10.22834 -10.22576
 Alpha  occ. eigenvalues --  -10.22408 -10.21970 -10.21953 -10.21553 -10.21544
 Alpha  occ. eigenvalues --  -10.21535 -10.21530 -10.21526 -10.21467 -10.21050
 Alpha  occ. eigenvalues --  -10.20948 -10.20934 -10.20824 -10.20794 -10.20784
 Alpha  occ. eigenvalues --  -10.20484 -10.20472 -10.20072 -10.19926 -10.19717
 Alpha  occ. eigenvalues --  -10.19704 -10.19620 -10.19615 -10.19558 -10.19426
 Alpha  occ. eigenvalues --  -10.19378 -10.19360 -10.19179 -10.19051 -10.19044
 Alpha  occ. eigenvalues --  -10.18961 -10.18821 -10.18627 -10.18620 -10.18529
 Alpha  occ. eigenvalues --  -10.18461 -10.18396 -10.18315 -10.18153 -10.18151
 Alpha  occ. eigenvalues --  -10.17806 -10.17783 -10.17363 -10.17320  -1.11546
 Alpha  occ. eigenvalues --   -1.06746  -1.05458  -1.01153  -0.98850  -0.98727
 Alpha  occ. eigenvalues --   -0.96719  -0.95196  -0.93867  -0.84417  -0.82809
 Alpha  occ. eigenvalues --   -0.82572  -0.82169  -0.81449  -0.81333  -0.81271
 Alpha  occ. eigenvalues --   -0.80129  -0.79992  -0.79605  -0.78999  -0.78441
 Alpha  occ. eigenvalues --   -0.76921  -0.76560  -0.76382  -0.75102  -0.74795
 Alpha  occ. eigenvalues --   -0.74448  -0.73218  -0.72528  -0.71526  -0.70416
 Alpha  occ. eigenvalues --   -0.69902  -0.69611  -0.68778  -0.67962  -0.67718
 Alpha  occ. eigenvalues --   -0.67240  -0.66920  -0.66137  -0.65495  -0.64731
 Alpha  occ. eigenvalues --   -0.64438  -0.62865  -0.62176  -0.61340  -0.61123
 Alpha  occ. eigenvalues --   -0.60691  -0.58752  -0.58578  -0.58143  -0.57509
 Alpha  occ. eigenvalues --   -0.56955  -0.56917  -0.55963  -0.55632  -0.55526
 Alpha  occ. eigenvalues --   -0.55180  -0.54449  -0.53832  -0.52919  -0.52473
 Alpha  occ. eigenvalues --   -0.51931  -0.51869  -0.51373  -0.51011  -0.50312
 Alpha  occ. eigenvalues --   -0.49979  -0.49664  -0.49210  -0.48879  -0.48836
 Alpha  occ. eigenvalues --   -0.48396  -0.48217  -0.47840  -0.47596  -0.46999
 Alpha  occ. eigenvalues --   -0.46655  -0.46490  -0.46255  -0.46097  -0.45952
 Alpha  occ. eigenvalues --   -0.45659  -0.45414  -0.44965  -0.44661  -0.44581
 Alpha  occ. eigenvalues --   -0.44495  -0.44101  -0.44001  -0.43842  -0.43770
 Alpha  occ. eigenvalues --   -0.43488  -0.43309  -0.43040  -0.42838  -0.42407
 Alpha  occ. eigenvalues --   -0.42271  -0.42165  -0.42027  -0.41803  -0.41646
 Alpha  occ. eigenvalues --   -0.41473  -0.41299  -0.41047  -0.40729  -0.40621
 Alpha  occ. eigenvalues --   -0.40209  -0.40129  -0.39752  -0.39646  -0.39466
 Alpha  occ. eigenvalues --   -0.39424  -0.39150  -0.38825  -0.38768  -0.38557
 Alpha  occ. eigenvalues --   -0.38489  -0.38423  -0.38242  -0.38109  -0.38024
 Alpha  occ. eigenvalues --   -0.37719  -0.37419  -0.37313  -0.37248  -0.36544
 Alpha  occ. eigenvalues --   -0.36522  -0.36113  -0.35869  -0.35584  -0.35379
 Alpha  occ. eigenvalues --   -0.35157  -0.35109  -0.34953  -0.34853  -0.34792
 Alpha  occ. eigenvalues --   -0.34501  -0.34316  -0.34115  -0.33963  -0.33707
 Alpha  occ. eigenvalues --   -0.33527  -0.32942  -0.32825  -0.32683  -0.32424
 Alpha  occ. eigenvalues --   -0.32330  -0.31684  -0.31499  -0.31486  -0.31395
 Alpha  occ. eigenvalues --   -0.30974  -0.30819  -0.30646  -0.30530  -0.30027
 Alpha  occ. eigenvalues --   -0.29432  -0.28783  -0.28539  -0.28240  -0.27665
 Alpha  occ. eigenvalues --   -0.27556  -0.27085  -0.26473  -0.25652  -0.25367
 Alpha  occ. eigenvalues --   -0.24559  -0.24430  -0.24383  -0.22645  -0.20640
 Alpha  occ. eigenvalues --   -0.18601
 Alpha virt. eigenvalues --   -0.09487  -0.08219  -0.04310  -0.01308  -0.01111
 Alpha virt. eigenvalues --   -0.00348   0.00408   0.00754   0.02038   0.03183
 Alpha virt. eigenvalues --    0.03625   0.03774   0.03811   0.04173   0.04433

 Mulliken charges:
               1
     1  C    0.059660
     2  C   -0.019542
     3  C   -0.071632
     4  C   -0.038551
     5  N   -0.107902
     6  C   -0.067804
     7  C   -0.076429
     8  C   -0.046821
     9  C    0.024233
    10  C    0.035874
    11  C    0.083748
    12  C    0.065393
    13  C    0.161124
    14  O   -0.253211
    15  O   -0.355672
    16  N   -0.139997
    17  C    0.114551
    18  C   -0.079131
    19  C    0.016813
    20  C    0.171032
    21  C   -0.042987
    22  C   -0.048956
    23  C   -0.026683
    24  N   -0.201017
    25  C   -0.052031
    26  C   -0.112130
    27  C   -0.086188
    28  C    0.080753
    29  C    0.085496
    30  C    0.044583
    31  C   -0.021195
    32  N    0.001818
    33  C    0.053181
    34  C   -0.177118
    35  C   -0.040196
    36  C    0.085732
    37  C    0.101099
    38  C    0.074832
    39  O   -0.105195
    40  C   -0.096972
    41  C    0.179753
    42  O   -0.240823
    43  O   -0.243574
    44  C    0.168427
    45  C    0.265233
    46  C   -0.117505
    47  C   -0.087647
    48  C   -0.045746
    49  C    0.142728
    50  C    0.018619
    51  C    0.029425
    52  C   -0.056925
    53  C   -0.000869
    54  C   -0.061747
    55  C   -0.000854
    56  C    0.067865
    57  C   -0.235734
    58  C    0.098107
    59  C    0.131308
    60  C   -0.062462
    61  C    0.002704
    62  C    0.032882
    63  C    0.055254
    64  C   -0.012613
    65  H   -0.096088
    66  H    0.000242
    67  H   -0.026568
    68  H    0.027582
    69  H   -0.002840
    70  H    0.001973
    71  H    0.033485
    72  H    0.005796
    73  H    0.034903
    74  H    0.040173
    75  H    0.067093
    76  H    0.001858
    77  H    0.075061
    78  H    0.045998
    79  H    0.046725
    80  H    0.033271
    81  H    0.025051
    82  H    0.022740
    83  H    0.012579
    84  H   -0.001850
    85  H    0.007814
    86  H    0.024609
    87  H    0.009861
    88  H    0.003722
    89  H    0.032296
    90  H   -0.011937
    91  H    0.032518
    92  H    0.018644
    93  H    0.055096
    94  H    0.056065
    95  H    0.028676
    96  H    0.009473
    97  H    0.020395
    98  H    0.041943
    99  H    0.002399
   100  H   -0.015550
   101  H    0.022542
   102  H    0.050863
   103  H    0.036669
   104  H   -0.015246
   105  H   -0.034049
   106  H    0.019543
   107  H   -0.005023
   108  H   -0.024438
   109  H   -0.017142
   110  H    0.003721
   111  H    0.029959
   112  H    0.020315
   113  H    0.005545
   114  H    0.008495
   115  H    0.001551
   116  H    0.039394
   117  H   -0.002288
   118  H    0.027207
   119  H   -0.013934
   120  H   -0.038644
   121  H   -0.031929
   122  H    0.008834
   123  H    0.033137
   124  H   -0.015790
   125  H    0.005335
   126  H    0.018241
   127  H    0.015925
   128  H   -0.010782
   129  H   -0.031544
   130  H   -0.051892
   131  H    0.002389
   132  H    0.034547
   133  H    0.003089
   134  H    0.008359
   135  H   -0.010664
   136  H   -0.021950
   137  H    0.122930
   138  H    0.125152
 Sum of Mulliken charges =   0.00000

 Dipole moment (field-independent basis, Debye):
    X=              1.5419    Y=              4.5846    Z=              0.4652  Tot=              4.8593
 Quadrupole moment (field-independent basis, Debye-Ang):
   XX=           -352.5329   YY=           -381.9476   ZZ=           -396.9271
   XY=            -28.6056   XZ=             11.2003   YZ=             -3.2627

 Normal termination of Gaussian 09 at Fri Jul 26 19:36:11 2019.
