 Gaussian 09, Revision D.01,
 Gaussian 09:  ES64L-G09RevD.01 24-Apr-2013

 --------------------------
 # td=(NStates=1) B3LYP/SVP
 --------------------------

 --
 TD
 --
 Symbolic Z-matrix:
 Charge =  0 Multiplicity = 1

                         Standard orientation:
 ---------------------------------------------------------------------
 Center     Atomic      Atomic             Coordinates (Angstroms)
 Number     Number       Type             X           Y           Z
 ---------------------------------------------------------------------
      1          6           0       -5.098243   -1.948310    0.398396
      2          6           0       -4.889319    2.728359    1.508112
      3          6           0       -9.347217    3.363632   -0.164073
      4          6           0       -9.865743   -1.398911   -0.929705
      5          7           0       -5.200391    0.371036    0.818793
      6          6           0       -4.481275   -0.785683    0.764404
      7          6           0       -3.127618   -0.585541    1.280588
      8          6           0       -3.102438    0.872637    1.900136
      9          6           0       -4.534316    1.351126    1.464962
     10          6           0       -3.001911    0.855778    3.369455
     11          6           0       -1.983930   -0.983018    0.172313
     12          6           0       -0.548584   -0.836953    0.583693
     13          6           0        0.457486   -1.057335   -0.598230
     14          8           0        0.149985   -1.280018   -1.687357
     15          8           0        1.708619   -0.771941   -0.176379
     16          7           0       -7.025433    2.685738    0.648622
     17          6           0       -6.034350    3.350524    1.168963
     18          6           0       -6.211117    4.759733    1.164260
     19          6           0       -7.508461    4.966258    0.553036
     20          6           0       -8.062959    3.642505    0.313095
     21          6           0       -5.275355    5.765808    1.696883
     22          6           0       -8.103588    6.223678    0.294252
     23          6           0       -8.747498    6.739102   -0.823113
     24          7           0       -9.253232    0.862733   -0.362639
     25          6           0       -9.918760    2.100833   -0.434038
     26          6           0      -11.244849    1.840483   -0.967704
     27          6           0      -11.406669    0.513321   -1.210122
     28          6           0      -10.113949   -0.065190   -0.837258
     29          6           0      -12.260667    3.062082   -1.186582
     30          6           0      -12.620377   -0.151336   -1.708024
     31          6           0      -12.728642   -0.201352   -3.283284
     32          7           0       -7.518537   -1.302873   -0.182566
     33          6           0       -8.668460   -2.055676   -0.582012
     34          6           0       -8.216250   -3.349096   -0.618510
     35          6           0       -6.851008   -3.460221   -0.214988
     36          6           0       -6.561886   -2.069192    0.069811
     37          6           0       -8.993046   -4.442053   -1.281214
     38          6           0       -5.759759   -4.317096    0.017278
     39          8           0       -5.687206   -5.504838   -0.125075
     40          6           0       -4.570362   -3.408467    0.344500
     41          6           0       -3.978102   -3.805263    1.761813
     42          8           0       -4.263187   -3.458062    2.927779
     43          8           0       -3.249957   -4.825871    1.617265
     44          6           0       -2.531213   -5.612624    2.801528
     45          6           0        2.743843   -1.028281   -1.170107
     46          6           0        4.064520   -0.680913   -0.693549
     47          6           0        5.055029    0.098359   -1.229207
     48          6           0        4.902473    0.586605   -2.651779
     49          6           0        6.251189    0.374663   -0.428187
     50          6           0        7.539394   -0.486367   -0.902093
     51          6           0        8.758242   -0.044507   -0.200611
     52          6           0       10.062066   -0.571231   -0.907544
     53          6           0       10.046211   -2.067945   -1.104959
     54          6           0       11.237027   -0.125802   -0.085717
     55          6           0       12.658693   -0.579551   -0.587046
     56          6           0       13.911164   -0.078343    0.244067
     57          6           0       15.287018   -0.201995   -0.322534
     58          6           0       15.664615   -1.806327   -0.564533
     59          6           0       16.419434    0.443801    0.541112
     60          6           0       17.702305    0.700040   -0.095145
     61          6           0       18.609338    1.633136    0.699934
     62          6           0       20.003020    1.694740    0.161513
     63          6           0       20.151430    2.165271   -1.305746
     64          6           0       20.920615    2.553885    1.113919
     65          1           0       -4.002432    3.441699    1.993829
     66          1           0      -10.033748    4.296386   -0.224139
     67          1           0      -10.718948   -1.971366   -1.424169
     68          1           0       -2.827520   -1.260267    2.186770
     69          1           0       -2.262110    1.532742    1.280354
     70          1           0       -1.908477    0.540417    3.675236
     71          1           0       -3.129039    1.869922    3.684200
     72          1           0       -3.777740   -0.035510    3.647596
     73          1           0       -2.218630   -2.088784   -0.231818
     74          1           0       -2.262028   -0.500170   -0.826993
     75          1           0       -0.263462    0.094583    0.869354
     76          1           0       -0.188014   -1.476850    1.452451
     77          1           0       -4.131482    5.524300    1.324301
     78          1           0       -5.685733    6.647929    1.443594
     79          1           0       -5.191510    5.527267    2.778416
     80          1           0       -7.832330    6.998643    1.162774
     81          1           0       -8.910348    6.003406   -1.705833
     82          1           0       -9.306105    7.655427   -1.097324
     83          1           0      -12.319668    3.448349   -0.180500
     84          1           0      -11.696687    3.479309   -1.916745
     85          1           0      -13.366710    2.799572   -1.447132
     86          1           0      -12.702930   -1.046535   -1.224919
     87          1           0      -13.471345    0.415011   -1.327849
     88          1           0      -12.659458    0.862158   -3.790443
     89          1           0      -11.984450   -0.693008   -3.639102
     90          1           0      -13.635996   -0.852749   -3.437621
     91          1           0       -9.965454   -4.737645   -0.802990
     92          1           0       -9.334736   -4.088421   -2.313863
     93          1           0       -8.588551   -5.585234   -1.320579
     94          1           0       -3.860727   -3.566362   -0.346302
     95          1           0       -2.258833   -6.516313    2.105319
     96          1           0       -1.391757   -4.849831    3.084795
     97          1           0       -3.232643   -5.625440    3.734923
     98          1           0        2.418322   -2.061732   -1.275526
     99          1           0        2.593650   -0.527525   -2.041915
    100          1           0        4.214397   -1.014684    0.381837
    101          1           0        5.497709    1.491119   -2.691966
    102          1           0        5.519717   -0.217596   -3.216721
    103          1           0        3.936448    0.673804   -2.983133
    104          1           0        6.405320    1.462562   -0.568641
    105          1           0        6.074648    0.321417    0.679187
    106          1           0        7.175498   -1.524722   -0.660492
    107          1           0        7.833389   -0.238327   -1.878039
    108          1           0        8.730333    0.944943   -0.299781
    109          1           0        8.660207   -0.397514    0.981511
    110          1           0        9.942680   -0.067946   -1.793426
    111          1           0        9.153318   -2.407049   -1.666633
    112          1           0       11.049691   -2.411921   -1.337166
    113          1           0        9.790656   -2.455268    0.007233
    114          1           0       11.086904    0.867795   -0.133592
    115          1           0       11.192023   -0.498630    0.898760
    116          1           0       12.884181   -1.633053   -0.735820
    117          1           0       13.040099   -0.297434   -1.657228
    118          1           0       13.769789    0.871848    0.520963
    119          1           0       13.697035   -0.707874    1.186831
    120          1           0       15.323793    0.092113   -1.437561
    121          1           0       14.982262   -2.249403   -1.225023
    122          1           0       16.584935   -1.854210   -1.098748
    123          1           0       15.731969   -2.248827    0.317919
    124          1           0       16.032353    1.389984    0.752067
    125          1           0       16.493091   -0.189372    1.572966
    126          1           0       18.540345   -0.238265   -0.038748
    127          1           0       17.727150    0.955227   -1.164307
    128          1           0       17.971299    2.712093    0.770603
    129          1           0       18.597079    1.211938    1.742027
    130          1           0       20.354859    0.737095    0.318015
    131          1           0       19.575938    3.189558   -1.186676
    132          1           0       21.155729    2.296655   -1.551294
    133          1           0       19.606522    1.392971   -2.036672
    134          1           0       20.439326    2.069978    2.128049
    135          1           0       22.089820    2.510034    1.187364
    136          1           0       20.718919    3.622530    1.104352
    137          1           0       -7.071150    1.776672    0.647338
    138          1           0       -7.266692   -0.272905   -0.391284
 ---------------------------------------------------------------------

 SCF Done:  E(RB3LYP) =  -2732.98186074     A.U. after   17 cycles

 Excitation energies and oscillator strengths:

 Excited State   1:      Singlet-A      2.1012 eV  590.08 nm  f=0.1516  <S**2>=0.000
     235 -> 237       -0.27552
     235 -> 238       -0.21998
     236 -> 237        0.57944
     236 -> 238       -0.18186
 This state for optimization and/or second-order correction.
 Total Energy, E(TD-HF/TD-KS) =  -2732.90464470
 Copying the excited state density for this state as the 1-particle RhoCI density.

 The electronic state is 1-A.
 Alpha  occ. eigenvalues --  -19.16898 -19.16490 -19.12490 -19.10656 -19.09729
 Alpha  occ. eigenvalues --  -14.37133 -14.36143 -14.31920 -14.29251 -10.30613
 Alpha  occ. eigenvalues --  -10.30242 -10.29600 -10.26235 -10.24603 -10.23200
 Alpha  occ. eigenvalues --  -10.23147 -10.22899 -10.22869 -10.22864 -10.22580
 Alpha  occ. eigenvalues --  -10.22151 -10.21683 -10.21522 -10.21389 -10.20972
 Alpha  occ. eigenvalues --  -10.20953 -10.20905 -10.20818 -10.20736 -10.20689
 Alpha  occ. eigenvalues --  -10.20681 -10.20475 -10.20360 -10.20325 -10.20305
 Alpha  occ. eigenvalues --  -10.20266 -10.20054 -10.19833 -10.19806 -10.19781
 Alpha  occ. eigenvalues --  -10.19725 -10.19608 -10.19502 -10.19457 -10.19254
 Alpha  occ. eigenvalues --  -10.19216 -10.19181 -10.19105 -10.18953 -10.18934
 Alpha  occ. eigenvalues --  -10.18800 -10.18787 -10.18408 -10.18403 -10.18272
 Alpha  occ. eigenvalues --  -10.18259 -10.18234 -10.18152 -10.18110 -10.17821
 Alpha  occ. eigenvalues --  -10.17745 -10.17530 -10.17297 -10.15944  -1.10364
 Alpha  occ. eigenvalues --   -1.08896  -1.02415  -1.02127  -1.00038  -0.99385
 Alpha  occ. eigenvalues --   -0.95935  -0.93915  -0.92440  -0.83785  -0.83612
 Alpha  occ. eigenvalues --   -0.83117  -0.82406  -0.82126  -0.81418  -0.80498
 Alpha  occ. eigenvalues --   -0.79964  -0.79612  -0.79201  -0.78868  -0.77834
 Alpha  occ. eigenvalues --   -0.77089  -0.76272  -0.75397  -0.75033  -0.74415
 Alpha  occ. eigenvalues --   -0.73764  -0.72666  -0.72373  -0.71779  -0.71589
 Alpha  occ. eigenvalues --   -0.69522  -0.69253  -0.69153  -0.68208  -0.68117
 Alpha  occ. eigenvalues --   -0.67500  -0.67360  -0.66521  -0.66070  -0.64883
 Alpha  occ. eigenvalues --   -0.64191  -0.63256  -0.62853  -0.62230  -0.61914
 Alpha  occ. eigenvalues --   -0.61028  -0.59327  -0.57954  -0.57513  -0.57257
 Alpha  occ. eigenvalues --   -0.56604  -0.56225  -0.56171  -0.55410  -0.55366
 Alpha  occ. eigenvalues --   -0.55010  -0.54617  -0.54042  -0.53817  -0.52849
 Alpha  occ. eigenvalues --   -0.52695  -0.51412  -0.51089  -0.50950  -0.50390
 Alpha  occ. eigenvalues --   -0.50246  -0.49909  -0.49440  -0.48568  -0.48091
 Alpha  occ. eigenvalues --   -0.47947  -0.47849  -0.47540  -0.47262  -0.47100
 Alpha  occ. eigenvalues --   -0.46936  -0.46483  -0.46276  -0.45980  -0.45914
 Alpha  occ. eigenvalues --   -0.45798  -0.45340  -0.45205  -0.45087  -0.44811
 Alpha  occ. eigenvalues --   -0.44539  -0.44420  -0.44302  -0.43919  -0.43688
 Alpha  occ. eigenvalues --   -0.43533  -0.43131  -0.42977  -0.42880  -0.42639
 Alpha  occ. eigenvalues --   -0.42404  -0.42263  -0.42097  -0.41893  -0.41844
 Alpha  occ. eigenvalues --   -0.41729  -0.41418  -0.40787  -0.40550  -0.40252
 Alpha  occ. eigenvalues --   -0.40123  -0.39918  -0.39799  -0.39707  -0.39626
 Alpha  occ. eigenvalues --   -0.39509  -0.39269  -0.39028  -0.38533  -0.38515
 Alpha  occ. eigenvalues --   -0.38369  -0.38066  -0.37689  -0.37590  -0.37565
 Alpha  occ. eigenvalues --   -0.37343  -0.37206  -0.37160  -0.36743  -0.36675
 Alpha  occ. eigenvalues --   -0.36596  -0.36461  -0.36091  -0.35808  -0.35532
 Alpha  occ. eigenvalues --   -0.35297  -0.35033  -0.34944  -0.34767  -0.34471
 Alpha  occ. eigenvalues --   -0.34386  -0.34149  -0.33982  -0.33877  -0.33602
 Alpha  occ. eigenvalues --   -0.33419  -0.33090  -0.32814  -0.32654  -0.32635
 Alpha  occ. eigenvalues --   -0.32442  -0.32361  -0.32011  -0.31289  -0.31082
 Alpha  occ. eigenvalues --   -0.30632  -0.30489  -0.30464  -0.30185  -0.29993
 Alpha  occ. eigenvalues --   -0.29169  -0.28573  -0.28477  -0.27981  -0.27802
 Alpha  occ. eigenvalues --   -0.26732  -0.26103  -0.25922  -0.25514  -0.25078
 Alpha  occ. eigenvalues --   -0.24229  -0.24063  -0.24023  -0.22154  -0.19796
 Alpha  occ. eigenvalues --   -0.19024
 Alpha virt. eigenvalues --   -0.10459  -0.07326  -0.04192  -0.02510  -0.00931
 Alpha virt. eigenvalues --   -0.00042   0.00524   0.01946   0.02697   0.03137
 Alpha virt. eigenvalues --    0.03738   0.03855   0.04240   0.04254   0.04725

 Mulliken charges:
               1
     1  C    0.007734
     2  C   -0.126214
     3  C   -0.132079
     4  C   -0.116401
     5  N   -0.189102
     6  C   -0.027665
     7  C   -0.051996
     8  C   -0.104165
     9  C   -0.029031
    10  C    0.050204
    11  C   -0.030732
    12  C    0.110774
    13  C    0.117189
    14  O   -0.174154
    15  O   -0.347291
    16  N    0.047707
    17  C    0.104611
    18  C   -0.154346
    19  C    0.045156
    20  C    0.130686
    21  C    0.131536
    22  C   -0.110082
    23  C   -0.072955
    24  N   -0.239765
    25  C    0.061978
    26  C   -0.171456
    27  C   -0.114504
    28  C    0.046894
    29  C    0.118024
    30  C    0.111706
    31  C    0.076427
    32  N    0.018522
    33  C    0.122875
    34  C   -0.086628
    35  C   -0.002597
    36  C   -0.026825
    37  C    0.004284
    38  C    0.032342
    39  O   -0.155204
    40  C    0.036772
    41  C    0.172047
    42  O   -0.293445
    43  O   -0.272836
    44  C    0.065014
    45  C    0.372423
    46  C   -0.117681
    47  C   -0.188367
    48  C    0.126818
    49  C    0.059045
    50  C    0.032515
    51  C    0.039795
    52  C   -0.080091
    53  C    0.033952
    54  C    0.197928
    55  C   -0.037661
    56  C    0.083852
    57  C   -0.146433
    58  C    0.086153
    59  C    0.121746
    60  C   -0.041232
    61  C   -0.041744
    62  C   -0.043037
    63  C    0.017492
    64  C   -0.039813
    65  H    0.008447
    66  H    0.018712
    67  H    0.000841
    68  H    0.033600
    69  H    0.029655
    70  H    0.024129
    71  H    0.003273
    72  H    0.073528
    73  H    0.024684
    74  H    0.018450
    75  H   -0.013915
    76  H    0.027082
    77  H    0.049882
    78  H   -0.007998
    79  H    0.036427
    80  H    0.038304
    81  H    0.038845
    82  H    0.046538
    83  H    0.030565
    84  H    0.018725
    85  H    0.024480
    86  H   -0.031369
    87  H   -0.012678
    88  H    0.031904
    89  H   -0.047004
    90  H    0.016785
    91  H    0.014179
    92  H    0.034195
    93  H    0.056938
    94  H   -0.001207
    95  H    0.099341
    96  H    0.069987
    97  H    0.111505
    98  H   -0.004277
    99  H   -0.038614
   100  H   -0.013854
   101  H   -0.000695
   102  H    0.041778
   103  H    0.012935
   104  H   -0.009636
   105  H    0.008905
   106  H    0.024680
   107  H   -0.018466
   108  H   -0.049724
   109  H    0.004340
   110  H   -0.038320
   111  H    0.018298
   112  H    0.020225
   113  H   -0.001698
   114  H   -0.043031
   115  H   -0.018817
   116  H   -0.003193
   117  H   -0.023048
   118  H   -0.047018
   119  H   -0.007346
   120  H    0.003685
   121  H   -0.008100
   122  H   -0.010473
   123  H   -0.027093
   124  H   -0.027172
   125  H    0.021732
   126  H   -0.005073
   127  H    0.006078
   128  H    0.001949
   129  H    0.005721
   130  H   -0.023665
   131  H    0.024201
   132  H    0.006044
   133  H    0.034006
   134  H    0.012099
   135  H    0.030228
   136  H    0.007369
   137  H    0.056718
   138  H    0.192824
 Sum of Mulliken charges =   0.00000

 Dipole moment (field-independent basis, Debye):
    X=              3.3206    Y=              4.7071    Z=             -0.3627  Tot=              5.7719
 Quadrupole moment (field-independent basis, Debye-Ang):
   XX=           -353.2715   YY=           -379.8638   ZZ=           -395.4935
   XY=            -28.9363   XZ=              9.8855   YZ=             -2.8734

 Normal termination of Gaussian 09 at Sun Aug  4 08:22:27 2019.
