 Gaussian 09, Revision D.01,
 Gaussian 09:  ES64L-G09RevD.01 24-Apr-2013

 --------------------------
 # td=(NStates=1) B3LYP/SVP
 --------------------------

 --
 TD
 --
 Symbolic Z-matrix:
 Charge =  0 Multiplicity = 1

                         Standard orientation:
 ---------------------------------------------------------------------
 Center     Atomic      Atomic             Coordinates (Angstroms)
 Number     Number       Type             X           Y           Z
 ---------------------------------------------------------------------
      1          6           0       -5.215151   -2.038516    0.361815
      2          6           0       -4.728400    2.654900    1.438488
      3          6           0       -9.208021    3.488934   -0.288234
      4          6           0       -9.971520   -1.340074   -0.864086
      5          7           0       -5.163203    0.346836    0.799133
      6          6           0       -4.509027   -0.801492    0.809215
      7          6           0       -3.049310   -0.641571    1.230215
      8          6           0       -3.051174    0.767959    1.666208
      9          6           0       -4.371293    1.307400    1.315896
     10          6           0       -2.712031    0.948031    3.171999
     11          6           0       -2.004683   -0.959419   -0.011099
     12          6           0       -0.555291   -0.935919    0.561718
     13          6           0        0.431339   -1.394665   -0.516407
     14          8           0        0.107504   -1.903013   -1.587686
     15          8           0        1.639619   -0.977673   -0.273097
     16          7           0       -6.955091    2.840045    0.439019
     17          6           0       -5.874264    3.466906    0.968608
     18          6           0       -6.050590    4.794885    1.128382
     19          6           0       -7.391813    5.110629    0.568957
     20          6           0       -7.958458    3.844759    0.163002
     21          6           0       -5.089769    5.783071    1.596118
     22          6           0       -7.963045    6.356579    0.476279
     23          6           0       -8.853377    6.700198   -0.518531
     24          7           0       -9.284650    0.972577   -0.442348
     25          6           0       -9.860573    2.218771   -0.572034
     26          6           0      -11.217529    2.153578   -1.022829
     27          6           0      -11.475257    0.789263   -1.195229
     28          6           0      -10.237791    0.074286   -0.709824
     29          6           0      -12.221256    3.214523   -1.089189
     30          6           0      -12.747242   -0.028866   -1.469325
     31          6           0      -12.724616   -0.346505   -3.048515
     32          7           0       -7.576129   -1.230073   -0.179555
     33          6           0       -8.648709   -1.873331   -0.607787
     34          6           0       -8.295332   -3.339027   -0.731906
     35          6           0       -6.950936   -3.406116   -0.163657
     36          6           0       -6.520537   -2.057805    0.026268
     37          6           0       -9.162859   -4.383210   -1.345178
     38          6           0       -5.851057   -4.313034   -0.018400
     39          8           0       -5.864592   -5.541063   -0.063575
     40          6           0       -4.563279   -3.390026    0.392178
     41          6           0       -3.951841   -3.811194    1.711071
     42          8           0       -4.156060   -3.274959    2.728705
     43          8           0       -3.192740   -4.997690    1.589375
     44          6           0       -2.640162   -5.532951    2.739365
     45          6           0        2.560719   -1.407290   -1.187678
     46          6           0        3.840231   -1.032462   -0.655538
     47          6           0        4.915648   -0.201043   -1.030995
     48          6           0        4.906836    0.515799   -2.362221
     49          6           0        6.172379   -0.034113   -0.353392
     50          6           0        7.465736   -0.379067   -0.914893
     51          6           0        8.739493   -0.285553    0.004034
     52          6           0       10.028519   -0.745418   -0.666221
     53          6           0       10.066990   -2.299219   -1.006157
     54          6           0       11.244985   -0.270244    0.234027
     55          6           0       12.612924   -0.506253   -0.297563
     56          6           0       13.828949    0.061480    0.556499
     57          6           0       15.181736   -0.204037   -0.159485
     58          6           0       15.613701   -1.680589   -0.258437
     59          6           0       16.300580    0.710342    0.565371
     60          6           0       17.662229    0.893803   -0.210147
     61          6           0       18.680827    1.787275    0.523180
     62          6           0       20.041039    1.796578   -0.092956
     63          6           0       20.072971    2.282074   -1.642655
     64          6           0       21.147812    2.594139    0.676042
     65          1           0       -4.105300    3.151976    1.998479
     66          1           0       -9.837635    4.360857   -0.314281
     67          1           0      -10.751586   -1.945650   -1.021660
     68          1           0       -2.736287   -1.424476    1.930552
     69          1           0       -2.209803    1.182164    1.111297
     70          1           0       -1.725589    0.828284    3.430051
     71          1           0       -2.835439    1.925691    3.403086
     72          1           0       -3.403182    0.218189    3.602419
     73          1           0       -2.149923   -1.949320   -0.673989
     74          1           0       -2.075070   -0.210343   -0.835535
     75          1           0       -0.260429    0.254603    0.746874
     76          1           0       -0.238438   -1.635417    1.625333
     77          1           0       -4.156702    5.768745    1.051288
     78          1           0       -5.587589    6.786152    1.642268
     79          1           0       -4.851381    5.446193    2.619242
     80          1           0       -7.713399    7.017874    1.295514
     81          1           0       -9.063316    6.064979   -1.339001
     82          1           0       -9.215580    7.562187   -0.617268
     83          1           0      -12.550359    3.694956   -0.236959
     84          1           0      -12.100037    4.077061   -1.801967
     85          1           0      -13.061247    2.731963   -1.528306
     86          1           0      -12.850839   -1.074608   -0.943634
     87          1           0      -13.491485    0.599363   -1.465551
     88          1           0      -12.656875    0.684930   -3.586454
     89          1           0      -11.784593   -0.873186   -3.435878
     90          1           0      -13.427945   -1.056918   -3.305572
     91          1           0      -10.014377   -4.227345   -0.915321
     92          1           0       -9.310844   -4.084183   -2.487779
     93          1           0       -8.759507   -5.410019   -1.642840
     94          1           0       -3.733903   -3.577156   -0.364227
     95          1           0       -1.841779   -6.261173    2.309879
     96          1           0       -2.113808   -4.630586    3.312103
     97          1           0       -3.431226   -6.138769    3.272983
     98          1           0        2.694097   -2.536320   -1.529701
     99          1           0        2.209295   -1.040568   -2.085650
    100          1           0        4.033898   -1.725341    0.334593
    101          1           0        5.475381    1.729357   -2.240066
    102          1           0        5.677308   -0.173041   -3.047882
    103          1           0        3.799255    0.737764   -2.635324
    104          1           0        6.246408    1.082954    0.115376
    105          1           0        6.005012   -0.433331    0.656333
    106          1           0        7.342571   -1.379194   -1.244935
    107          1           0        7.869485    0.152646   -1.929013
    108          1           0        9.215189    0.674671    0.214506
    109          1           0        8.610389   -0.706355    1.071909
    110          1           0       10.137010   -0.256352   -1.560220
    111          1           0        9.283666   -2.791456   -1.428536
    112          1           0       11.076148   -2.541243   -1.621903
    113          1           0       10.105230   -3.061697   -0.055866
    114          1           0       11.136137    0.875724    0.241769
    115          1           0       11.134167   -0.685230    1.160396
    116          1           0       12.647942   -1.518662   -0.572751
    117          1           0       12.755340   -0.150639   -1.217519
    118          1           0       13.756710    1.134710    0.595335
    119          1           0       14.123473   -0.459366    1.665319
    120          1           0       15.226803    0.232482   -1.149662
    121          1           0       14.845363   -2.327034   -0.692720
    122          1           0       16.674482   -1.801620   -0.782325
    123          1           0       15.777505   -2.107050    0.729025
    124          1           0       15.914193    1.694106    0.576730
    125          1           0       16.621721    0.402057    1.645632
    126          1           0       18.258642   -0.257207   -0.092889
    127          1           0       17.566946    1.369899   -1.284330
    128          1           0       18.073295    2.764859    0.556769
    129          1           0       18.760285    1.727232    1.566477
    130          1           0       20.467806    0.825220   -0.159674
    131          1           0       19.718712    3.198686   -1.751986
    132          1           0       21.072877    2.443527   -1.758895
    133          1           0       19.432202    1.715127   -2.443200
    134          1           0       21.326580    2.309310    1.697341
    135          1           0       22.345988    2.791250    0.097963
    136          1           0       20.640321    3.528561    0.588109
    137          1           0       -6.986537    1.793692    0.376588
    138          1           0       -7.778878   -0.102561   -0.149984
 ---------------------------------------------------------------------

 SCF Done:  E(RB3LYP) =  -2732.94310384     A.U. after   17 cycles

 Excitation energies and oscillator strengths:

 Excited State   1:      Singlet-A      1.9455 eV  637.30 nm  f=0.1777  <S**2>=0.000
     235 -> 237       -0.18321
     235 -> 238       -0.26978
     236 -> 237        0.60577
     236 -> 238       -0.15680
 This state for optimization and/or second-order correction.
 Total Energy, E(TD-HF/TD-KS) =  -2732.87160900
 Copying the excited state density for this state as the 1-particle RhoCI density.

 The electronic state is 1-A.
 Alpha  occ. eigenvalues --  -19.19584 -19.16335 -19.13370 -19.12838 -19.12116
 Alpha  occ. eigenvalues --  -14.37226 -14.36191 -14.32078 -14.30347 -10.32115
 Alpha  occ. eigenvalues --  -10.31592 -10.27956 -10.25170 -10.24920 -10.24309
 Alpha  occ. eigenvalues --  -10.24128 -10.23520 -10.23421 -10.23419 -10.23046
 Alpha  occ. eigenvalues --  -10.22942 -10.22467 -10.22310 -10.21795 -10.21668
 Alpha  occ. eigenvalues --  -10.21650 -10.21425 -10.20938 -10.20840 -10.20510
 Alpha  occ. eigenvalues --  -10.20457 -10.20431 -10.20400 -10.20348 -10.20076
 Alpha  occ. eigenvalues --  -10.20069 -10.20040 -10.20033 -10.19881 -10.19716
 Alpha  occ. eigenvalues --  -10.19562 -10.19558 -10.19481 -10.19438 -10.19423
 Alpha  occ. eigenvalues --  -10.19391 -10.19349 -10.19316 -10.19243 -10.19102
 Alpha  occ. eigenvalues --  -10.19020 -10.18959 -10.18945 -10.18671 -10.18622
 Alpha  occ. eigenvalues --  -10.18345 -10.18187 -10.18170 -10.18103 -10.18088
 Alpha  occ. eigenvalues --  -10.18034 -10.17472 -10.16965 -10.16543  -1.13881
 Alpha  occ. eigenvalues --   -1.09564  -1.02134  -1.01613  -1.01272  -0.98959
 Alpha  occ. eigenvalues --   -0.96599  -0.95744  -0.93350  -0.85519  -0.83285
 Alpha  occ. eigenvalues --   -0.82380  -0.81895  -0.81256  -0.80816  -0.80595
 Alpha  occ. eigenvalues --   -0.79829  -0.79526  -0.79425  -0.79017  -0.78238
 Alpha  occ. eigenvalues --   -0.77188  -0.76080  -0.75680  -0.75181  -0.74518
 Alpha  occ. eigenvalues --   -0.73392  -0.73191  -0.72042  -0.71854  -0.70844
 Alpha  occ. eigenvalues --   -0.70229  -0.68720  -0.68457  -0.68060  -0.67817
 Alpha  occ. eigenvalues --   -0.67508  -0.66951  -0.66252  -0.65815  -0.65501
 Alpha  occ. eigenvalues --   -0.65085  -0.63927  -0.63247  -0.62384  -0.61732
 Alpha  occ. eigenvalues --   -0.60977  -0.59295  -0.58832  -0.58469  -0.57533
 Alpha  occ. eigenvalues --   -0.57477  -0.56992  -0.56832  -0.55747  -0.55319
 Alpha  occ. eigenvalues --   -0.54744  -0.54729  -0.54148  -0.53696  -0.53669
 Alpha  occ. eigenvalues --   -0.53027  -0.52668  -0.51809  -0.51237  -0.51028
 Alpha  occ. eigenvalues --   -0.50588  -0.49744  -0.49003  -0.48722  -0.48536
 Alpha  occ. eigenvalues --   -0.48409  -0.48090  -0.47958  -0.47567  -0.47042
 Alpha  occ. eigenvalues --   -0.46910  -0.46694  -0.46321  -0.46052  -0.45870
 Alpha  occ. eigenvalues --   -0.45715  -0.45443  -0.45257  -0.45054  -0.44955
 Alpha  occ. eigenvalues --   -0.44739  -0.44665  -0.44370  -0.44291  -0.44191
 Alpha  occ. eigenvalues --   -0.43470  -0.43440  -0.43185  -0.42922  -0.42605
 Alpha  occ. eigenvalues --   -0.42487  -0.42249  -0.41954  -0.41916  -0.41748
 Alpha  occ. eigenvalues --   -0.41417  -0.41121  -0.40858  -0.40716  -0.40401
 Alpha  occ. eigenvalues --   -0.40250  -0.40095  -0.39943  -0.39801  -0.39752
 Alpha  occ. eigenvalues --   -0.39347  -0.39289  -0.38934  -0.38571  -0.38469
 Alpha  occ. eigenvalues --   -0.38297  -0.38202  -0.38150  -0.38034  -0.37820
 Alpha  occ. eigenvalues --   -0.37654  -0.37459  -0.37248  -0.36969  -0.36859
 Alpha  occ. eigenvalues --   -0.36449  -0.36285  -0.36079  -0.36065  -0.35705
 Alpha  occ. eigenvalues --   -0.35508  -0.35107  -0.35075  -0.34975  -0.34828
 Alpha  occ. eigenvalues --   -0.34452  -0.34232  -0.34063  -0.33894  -0.33881
 Alpha  occ. eigenvalues --   -0.33808  -0.33710  -0.33511  -0.33126  -0.32905
 Alpha  occ. eigenvalues --   -0.32106  -0.31895  -0.31799  -0.31516  -0.31267
 Alpha  occ. eigenvalues --   -0.31018  -0.30807  -0.30623  -0.30588  -0.29733
 Alpha  occ. eigenvalues --   -0.29701  -0.29395  -0.28707  -0.28617  -0.28488
 Alpha  occ. eigenvalues --   -0.27903  -0.27563  -0.26702  -0.25755  -0.25274
 Alpha  occ. eigenvalues --   -0.24688  -0.23999  -0.22728  -0.22513  -0.19800
 Alpha  occ. eigenvalues --   -0.18375
 Alpha virt. eigenvalues --   -0.10310  -0.08320  -0.04921  -0.02323  -0.01572
 Alpha virt. eigenvalues --   -0.01405  -0.00355   0.00444   0.02232   0.02618
 Alpha virt. eigenvalues --    0.03153   0.03737   0.03860   0.04426   0.04862

 Mulliken charges:
               1
     1  C   -0.074034
     2  C    0.004504
     3  C   -0.074518
     4  C    0.004786
     5  N   -0.136550
     6  C   -0.048333
     7  C   -0.032156
     8  C    0.029329
     9  C   -0.007310
    10  C    0.147276
    11  C   -0.028972
    12  C   -0.089086
    13  C    0.169231
    14  O   -0.260972
    15  O   -0.218833
    16  N   -0.120154
    17  C    0.096523
    18  C   -0.163685
    19  C    0.095034
    20  C    0.098201
    21  C    0.130543
    22  C   -0.115479
    23  C    0.072807
    24  N   -0.249024
    25  C    0.075767
    26  C   -0.116634
    27  C   -0.128952
    28  C    0.036974
    29  C    0.148868
    30  C    0.149603
    31  C   -0.038814
    32  N   -0.043512
    33  C    0.042616
    34  C   -0.149672
    35  C   -0.022314
    36  C    0.167533
    37  C    0.140564
    38  C    0.060871
    39  O   -0.177472
    40  C   -0.061893
    41  C    0.196017
    42  O   -0.169080
    43  O   -0.328535
    44  C    0.123786
    45  C    0.250393
    46  C   -0.103733
    47  C   -0.135076
    48  C   -0.068588
    49  C    0.102476
    50  C    0.046345
    51  C    0.031290
    52  C   -0.052420
    53  C   -0.016058
    54  C    0.053905
    55  C    0.126334
    56  C    0.033954
    57  C   -0.079271
    58  C    0.027924
    59  C    0.028528
    60  C   -0.085489
    61  C    0.066949
    62  C   -0.053007
    63  C    0.075992
    64  C   -0.048575
    65  H   -0.126968
    66  H   -0.038987
    67  H   -0.082206
    68  H    0.010110
    69  H   -0.011344
    70  H   -0.021909
    71  H   -0.029453
    72  H    0.036254
    73  H    0.061582
    74  H    0.017519
    75  H    0.068453
    76  H    0.075242
    77  H    0.027700
    78  H    0.014772
    79  H    0.022065
    80  H    0.003224
    81  H    0.020573
    82  H   -0.048909
    83  H    0.005368
    84  H    0.001459
    85  H   -0.020855
    86  H    0.040103
    87  H   -0.054650
    88  H    0.029409
    89  H    0.011012
    90  H   -0.005641
    91  H   -0.009313
    92  H    0.031092
    93  H    0.056901
    94  H    0.064889
    95  H    0.040609
    96  H    0.040480
    97  H    0.045227
    98  H    0.045231
    99  H   -0.030902
   100  H    0.013757
   101  H    0.032891
   102  H    0.071389
   103  H    0.050075
   104  H    0.006518
   105  H   -0.023508
   106  H   -0.011136
   107  H    0.012526
   108  H   -0.019045
   109  H    0.000961
   110  H   -0.033582
   111  H   -0.013753
   112  H    0.024498
   113  H    0.002809
   114  H    0.001703
   115  H   -0.020515
   116  H   -0.037948
   117  H   -0.066052
   118  H   -0.009562
   119  H    0.021955
   120  H   -0.019537
   121  H    0.009966
   122  H    0.028834
   123  H   -0.008275
   124  H   -0.024156
   125  H    0.011301
   126  H    0.016607
   127  H    0.032065
   128  H   -0.024054
   129  H   -0.033502
   130  H   -0.007886
   131  H   -0.046406
   132  H   -0.025756
   133  H    0.033384
   134  H    0.020643
   135  H    0.031732
   136  H    0.006969
   137  H    0.155932
   138  H    0.213299
 Sum of Mulliken charges =   0.00000

 Dipole moment (field-independent basis, Debye):
    X=              1.9036    Y=              4.2397    Z=              0.3379  Tot=              4.6597
 Quadrupole moment (field-independent basis, Debye-Ang):
   XX=           -368.8840   YY=           -387.3623   ZZ=           -396.4125
   XY=            -17.6704   XZ=             13.7670   YZ=              2.3654

 Normal termination of Gaussian 09 at Sun Jul 28 14:32:02 2019.
