 Gaussian 09, Revision D.01,
 Gaussian 09:  ES64L-G09RevD.01 24-Apr-2013

 --------------------------
 # td=(NStates=1) B3LYP/SVP
 --------------------------

 --
 TD
 --
 Symbolic Z-matrix:
 Charge =  0 Multiplicity = 1

                         Standard orientation:
 ---------------------------------------------------------------------
 Center     Atomic      Atomic             Coordinates (Angstroms)
 Number     Number       Type             X           Y           Z
 ---------------------------------------------------------------------
      1          6           0       -5.087800   -1.948981    0.498125
      2          6           0       -4.703086    2.774831    1.354265
      3          6           0       -9.329772    3.379365   -0.268519
      4          6           0       -9.945153   -1.425353   -0.676630
      5          7           0       -5.260179    0.441048    0.981368
      6          6           0       -4.508427   -0.730381    0.890956
      7          6           0       -3.053247   -0.524778    1.267783
      8          6           0       -3.023599    0.932221    1.825625
      9          6           0       -4.441048    1.373540    1.402981
     10          6           0       -2.735965    1.018283    3.318560
     11          6           0       -2.175147   -0.763385    0.079760
     12          6           0       -0.599832   -0.769820    0.492162
     13          6           0        0.309275   -1.075183   -0.763988
     14          8           0       -0.102310   -1.469896   -1.869066
     15          8           0        1.583236   -0.711675   -0.445451
     16          7           0       -7.174028    2.786159    0.519673
     17          6           0       -5.963004    3.326575    0.963628
     18          6           0       -6.167467    4.808324    0.968331
     19          6           0       -7.463214    4.975130    0.520616
     20          6           0       -8.182464    3.722584    0.158735
     21          6           0       -5.224797    5.857757    1.267742
     22          6           0       -8.146433    6.238951    0.202930
     23          6           0       -9.066089    6.558714   -0.780075
     24          7           0       -9.299096    0.877201   -0.334527
     25          6           0       -9.919915    2.072171   -0.533479
     26          6           0      -11.306114    1.881661   -0.918747
     27          6           0      -11.514120    0.489847   -0.911115
     28          6           0      -10.241178   -0.058814   -0.624856
     29          6           0      -12.254296    2.958518   -1.238662
     30          6           0      -12.698250   -0.310380   -1.383530
     31          6           0      -12.606842   -0.782851   -2.848654
     32          7           0       -7.542883   -1.283299    0.002120
     33          6           0       -8.699072   -2.011451   -0.368015
     34          6           0       -8.337912   -3.421060   -0.495342
     35          6           0       -6.945252   -3.432496   -0.126886
     36          6           0       -6.470925   -2.106791    0.115297
     37          6           0       -9.173479   -4.603548   -1.008676
     38          6           0       -5.768562   -4.260277    0.016933
     39          8           0       -5.667504   -5.509881   -0.041538
     40          6           0       -4.554552   -3.370693    0.373284
     41          6           0       -3.876774   -3.783413    1.742671
     42          8           0       -4.143442   -3.316635    2.804107
     43          8           0       -2.854030   -4.706213    1.467905
     44          6           0       -2.185321   -5.274489    2.610369
     45          6           0        2.630237   -1.052627   -1.331422
     46          6           0        3.887312   -0.743307   -0.681317
     47          6           0        4.953594    0.008577   -1.182402
     48          6           0        4.954605    0.532533   -2.674836
     49          6           0        6.243386    0.238848   -0.358690
     50          6           0        7.459367   -0.305675   -1.167803
     51          6           0        8.747804   -0.245036   -0.222034
     52          6           0       10.166861   -0.661014   -0.833869
     53          6           0       10.205446   -2.173965   -1.154343
     54          6           0       11.253852   -0.219679   -0.102078
     55          6           0       12.653906   -0.314167   -0.617548
     56          6           0       13.743649    0.125699    0.280939
     57          6           0       15.266134   -0.036073   -0.315351
     58          6           0       15.553952   -1.590846   -0.446917
     59          6           0       16.269927    0.709499    0.546302
     60          6           0       17.701257    0.672088    0.074795
     61          6           0       18.656129    1.464425    0.748014
     62          6           0       20.151211    1.465076    0.223248
     63          6           0       20.428524    2.026399   -1.139295
     64          6           0       21.135699    2.237664    1.236415
     65          1           0       -4.002106    3.475890    1.736803
     66          1           0      -10.039275    4.225740   -0.284935
     67          1           0      -10.665388   -2.175321   -0.841658
     68          1           0       -2.793605   -1.178999    1.924879
     69          1           0       -2.178156    1.647901    1.362682
     70          1           0       -1.812306    0.696763    3.493726
     71          1           0       -2.760621    2.015348    3.591914
     72          1           0       -3.748202    0.625501    3.912537
     73          1           0       -2.142960   -1.653430   -0.497119
     74          1           0       -2.147664   -0.004357   -0.531206
     75          1           0       -0.428820    0.178557    0.992272
     76          1           0       -0.497912   -1.474014    1.267920
     77          1           0       -4.288217    5.866704    0.697659
     78          1           0       -5.707940    6.679333    1.015911
     79          1           0       -4.798617    5.848292    2.351359
     80          1           0       -7.927614    7.049892    0.965183
     81          1           0       -9.275759    5.909162   -1.628802
     82          1           0       -9.523341    7.651239   -0.864630
     83          1           0      -12.455254    3.715692   -0.563331
     84          1           0      -11.653629    3.451646   -2.114974
     85          1           0      -13.228999    2.278892   -1.875599
     86          1           0      -12.806184   -1.283669   -0.771686
     87          1           0      -13.642587    0.350398   -1.191227
     88          1           0      -12.546994    0.058131   -3.527875
     89          1           0      -11.766685   -1.668659   -2.993217
     90          1           0      -13.594094   -1.158035   -3.233919
     91          1           0      -10.075555   -4.865339   -0.471550
     92          1           0       -9.488186   -4.583328   -2.066648
     93          1           0       -8.634771   -5.609741   -1.028205
     94          1           0       -3.764837   -3.765895   -0.366474
     95          1           0       -1.436787   -6.022339    2.129478
     96          1           0       -1.672388   -4.589675    3.115459
     97          1           0       -2.878782   -5.618791    3.268041
     98          1           0        2.561539   -2.082009   -1.581627
     99          1           0        2.493719   -0.500094   -2.231021
    100          1           0        4.069015   -1.044740    0.235264
    101          1           0        5.178280    1.580505   -2.845763
    102          1           0        5.484003   -0.022604   -3.321323
    103          1           0        3.857677    0.323124   -2.948856
    104          1           0        6.246097    1.425896   -0.258247
    105          1           0        6.233182   -0.230198    0.666142
    106          1           0        7.178206   -1.377506   -1.437487
    107          1           0        7.471294    0.252895   -2.122226
    108          1           0        8.990468    0.799671    0.101974
    109          1           0        8.627674   -0.725578    0.679815
    110          1           0       10.288715   -0.060190   -1.833800
    111          1           0        9.236133   -2.457887   -1.393295
    112          1           0       10.938454   -2.562084   -1.920444
    113          1           0       10.604321   -2.931555   -0.217057
    114          1           0       11.140759    0.798434   -0.021145
    115          1           0       11.141366   -0.779143    0.936783
    116          1           0       13.017821   -1.171369   -0.890226
    117          1           0       12.593902    0.125922   -1.461669
    118          1           0       13.640477    1.146154    0.564066
    119          1           0       13.504837   -0.446428    1.298036
    120          1           0       15.408050    0.349027   -1.232605
    121          1           0       15.045669   -2.102623   -1.214016
    122          1           0       16.465392   -1.574755   -0.771466
    123          1           0       15.562096   -2.103431    0.469111
    124          1           0       15.942686    1.765883    0.522223
    125          1           0       16.161020    0.465892    1.533618
    126          1           0       17.888888   -0.400701   -0.071865
    127          1           0       17.890944    0.727634   -1.167061
    128          1           0       18.333839    2.606233    0.843662
    129          1           0       18.674448    1.146591    1.809709
    130          1           0       20.260904    0.436536    0.119778
    131          1           0       20.025192    2.970088   -1.130550
    132          1           0       21.513871    2.256624   -1.190989
    133          1           0       20.042526    1.521276   -2.058481
    134          1           0       21.038516    1.662608    2.266675
    135          1           0       22.291629    2.125351    1.018880
    136          1           0       20.910346    3.224105    1.379596
    137          1           0       -7.671181    1.825778    0.478907
    138          1           0       -7.510947   -0.186688   -0.116235
 ---------------------------------------------------------------------

 SCF Done:  E(RB3LYP) =  -2733.03405658     A.U. after   17 cycles

 Excitation energies and oscillator strengths:

 Excited State   1:      Singlet-A      2.1579 eV  574.55 nm  f=0.1197  <S**2>=0.000
     235 -> 238        0.35189
     236 -> 237        0.60566
 This state for optimization and/or second-order correction.
 Total Energy, E(TD-HF/TD-KS) =  -2732.95475394
 Copying the excited state density for this state as the 1-particle RhoCI density.

 The electronic state is 1-A.
 Alpha  occ. eigenvalues --  -19.18203 -19.17006 -19.13493 -19.13419 -19.10444
 Alpha  occ. eigenvalues --  -14.37092 -14.36460 -14.32357 -14.30393 -10.32801
 Alpha  occ. eigenvalues --  -10.31775 -10.26695 -10.25516 -10.24134 -10.23555
 Alpha  occ. eigenvalues --  -10.23510 -10.23405 -10.23217 -10.23084 -10.22883
 Alpha  occ. eigenvalues --  -10.22615 -10.21911 -10.21535 -10.21471 -10.21446
 Alpha  occ. eigenvalues --  -10.21271 -10.21196 -10.21155 -10.21037 -10.20985
 Alpha  occ. eigenvalues --  -10.20737 -10.20714 -10.20690 -10.20593 -10.20533
 Alpha  occ. eigenvalues --  -10.20364 -10.20033 -10.19930 -10.19801 -10.19630
 Alpha  occ. eigenvalues --  -10.19551 -10.19411 -10.19156 -10.19069 -10.19063
 Alpha  occ. eigenvalues --  -10.18961 -10.18896 -10.18871 -10.18779 -10.18776
 Alpha  occ. eigenvalues --  -10.18775 -10.18714 -10.18662 -10.18642 -10.18589
 Alpha  occ. eigenvalues --  -10.18165 -10.18129 -10.18006 -10.17454 -10.17327
 Alpha  occ. eigenvalues --  -10.16773 -10.16764 -10.15634 -10.14494  -1.09123
 Alpha  occ. eigenvalues --   -1.08182  -1.01103  -1.00419  -0.99175  -0.96865
 Alpha  occ. eigenvalues --   -0.96187  -0.94750  -0.93817  -0.84064  -0.83601
 Alpha  occ. eigenvalues --   -0.82383  -0.82170  -0.81977  -0.81550  -0.81160
 Alpha  occ. eigenvalues --   -0.79635  -0.79426  -0.79127  -0.78870  -0.78088
 Alpha  occ. eigenvalues --   -0.77120  -0.76406  -0.75607  -0.75241  -0.74727
 Alpha  occ. eigenvalues --   -0.74032  -0.73253  -0.72861  -0.72150  -0.70954
 Alpha  occ. eigenvalues --   -0.70509  -0.69641  -0.68854  -0.68799  -0.68291
 Alpha  occ. eigenvalues --   -0.67513  -0.67356  -0.66984  -0.66076  -0.65634
 Alpha  occ. eigenvalues --   -0.64376  -0.63165  -0.62276  -0.61740  -0.61226
 Alpha  occ. eigenvalues --   -0.60729  -0.59520  -0.58786  -0.58535  -0.58297
 Alpha  occ. eigenvalues --   -0.57789  -0.57407  -0.57270  -0.56670  -0.56189
 Alpha  occ. eigenvalues --   -0.55717  -0.54996  -0.54646  -0.53741  -0.53006
 Alpha  occ. eigenvalues --   -0.52441  -0.52341  -0.51331  -0.51070  -0.50372
 Alpha  occ. eigenvalues --   -0.49875  -0.49408  -0.49213  -0.49114  -0.48752
 Alpha  occ. eigenvalues --   -0.48273  -0.47691  -0.47333  -0.46999  -0.46969
 Alpha  occ. eigenvalues --   -0.46744  -0.46617  -0.46255  -0.45888  -0.45702
 Alpha  occ. eigenvalues --   -0.45560  -0.45159  -0.44987  -0.44701  -0.44623
 Alpha  occ. eigenvalues --   -0.44472  -0.44251  -0.44203  -0.43981  -0.43642
 Alpha  occ. eigenvalues --   -0.43499  -0.43303  -0.42997  -0.42871  -0.42851
 Alpha  occ. eigenvalues --   -0.42567  -0.42454  -0.42406  -0.41943  -0.41841
 Alpha  occ. eigenvalues --   -0.41784  -0.41616  -0.41430  -0.41002  -0.40700
 Alpha  occ. eigenvalues --   -0.40586  -0.40378  -0.40142  -0.39862  -0.39775
 Alpha  occ. eigenvalues --   -0.39509  -0.39465  -0.39295  -0.38803  -0.38670
 Alpha  occ. eigenvalues --   -0.38543  -0.38306  -0.38144  -0.37896  -0.37740
 Alpha  occ. eigenvalues --   -0.37598  -0.37334  -0.37111  -0.36988  -0.36840
 Alpha  occ. eigenvalues --   -0.36731  -0.36661  -0.36429  -0.36247  -0.35962
 Alpha  occ. eigenvalues --   -0.35727  -0.35468  -0.35379  -0.35189  -0.34951
 Alpha  occ. eigenvalues --   -0.34499  -0.34239  -0.34126  -0.34074  -0.33869
 Alpha  occ. eigenvalues --   -0.33824  -0.33712  -0.33119  -0.33003  -0.32690
 Alpha  occ. eigenvalues --   -0.32575  -0.32327  -0.32228  -0.31859  -0.31468
 Alpha  occ. eigenvalues --   -0.31277  -0.30702  -0.30537  -0.30379  -0.30286
 Alpha  occ. eigenvalues --   -0.29904  -0.29284  -0.28745  -0.28630  -0.27783
 Alpha  occ. eigenvalues --   -0.27569  -0.27534  -0.27080  -0.26153  -0.25555
 Alpha  occ. eigenvalues --   -0.24683  -0.23926  -0.23876  -0.22342  -0.20202
 Alpha  occ. eigenvalues --   -0.19319
 Alpha virt. eigenvalues --   -0.10017  -0.08405  -0.04376  -0.02149  -0.01119
 Alpha virt. eigenvalues --   -0.00510  -0.00077   0.00580   0.01750   0.02639
 Alpha virt. eigenvalues --    0.03977   0.04480   0.04631   0.04726   0.05148

 Mulliken charges:
               1
     1  C    0.084268
     2  C   -0.090522
     3  C   -0.107735
     4  C   -0.045806
     5  N   -0.138435
     6  C   -0.079008
     7  C    0.164620
     8  C   -0.166305
     9  C    0.033983
    10  C    0.149714
    11  C    0.112000
    12  C   -0.012226
    13  C    0.226617
    14  O   -0.254078
    15  O   -0.313805
    16  N   -0.170764
    17  C    0.182629
    18  C   -0.135179
    19  C    0.052623
    20  C    0.092035
    21  C    0.158240
    22  C   -0.079583
    23  C   -0.072050
    24  N   -0.255559
    25  C    0.069846
    26  C   -0.143510
    27  C   -0.076681
    28  C    0.110429
    29  C    0.053977
    30  C    0.013350
    31  C   -0.009232
    32  N   -0.096168
    33  C    0.042926
    34  C   -0.088002
    35  C    0.017509
    36  C    0.018951
    37  C    0.061563
    38  C    0.044000
    39  O   -0.223359
    40  C   -0.061127
    41  C    0.203838
    42  O   -0.188345
    43  O   -0.351389
    44  C    0.269892
    45  C    0.375134
    46  C   -0.041649
    47  C   -0.186588
    48  C    0.093744
    49  C    0.036306
    50  C   -0.005774
    51  C    0.064704
    52  C   -0.077665
    53  C    0.016623
    54  C    0.066024
    55  C    0.254293
    56  C    0.011681
    57  C   -0.063469
    58  C    0.148584
    59  C    0.115258
    60  C   -0.026888
    61  C    0.051212
    62  C   -0.067073
    63  C    0.079212
    64  C   -0.009172
    65  H   -0.039012
    66  H   -0.017940
    67  H   -0.043288
    68  H   -0.083526
    69  H    0.023508
    70  H   -0.014490
    71  H   -0.026675
    72  H    0.042669
    73  H    0.022381
    74  H   -0.047335
    75  H    0.011407
    76  H    0.008460
    77  H    0.019498
    78  H   -0.033194
    79  H    0.036240
    80  H    0.023393
    81  H    0.033422
    82  H    0.049673
    83  H    0.024849
    84  H    0.030422
    85  H    0.039682
    86  H    0.015724
    87  H    0.021524
    88  H    0.003851
    89  H    0.042267
    90  H    0.007776
    91  H    0.020628
    92  H    0.025831
    93  H    0.040291
    94  H    0.071039
    95  H    0.049923
    96  H   -0.023118
    97  H    0.002453
    98  H    0.006700
    99  H   -0.007695
   100  H   -0.079073
   101  H    0.020922
   102  H    0.005738
   103  H   -0.004047
   104  H    0.028881
   105  H    0.011097
   106  H    0.024866
   107  H    0.014906
   108  H   -0.013236
   109  H   -0.027542
   110  H   -0.016460
   111  H   -0.013970
   112  H    0.018289
   113  H    0.005262
   114  H   -0.042268
   115  H   -0.015443
   116  H   -0.098693
   117  H   -0.095560
   118  H   -0.037024
   119  H   -0.001665
   120  H   -0.046449
   121  H   -0.003272
   122  H   -0.071792
   123  H   -0.006048
   124  H   -0.015964
   125  H   -0.034226
   126  H   -0.017810
   127  H   -0.022469
   128  H   -0.005145
   129  H   -0.011448
   130  H   -0.028516
   131  H   -0.035978
   132  H   -0.000358
   133  H    0.018060
   134  H    0.015044
   135  H    0.029085
   136  H    0.003531
   137  H    0.174809
   138  H    0.197985
 Sum of Mulliken charges =   0.00000

 Dipole moment (field-independent basis, Debye):
    X=              3.3985    Y=              5.2246    Z=              0.3009  Tot=              6.2399
 Quadrupole moment (field-independent basis, Debye-Ang):
   XX=           -350.6349   YY=           -384.4920   ZZ=           -393.6884
   XY=            -27.1325   XZ=              9.6119   YZ=              0.3686

 Normal termination of Gaussian 09 at Tue Jul 30 17:41:29 2019.
