 Gaussian 09, Revision D.01,
 Gaussian 09:  ES64L-G09RevD.01 24-Apr-2013

 --------------------------
 # td=(NStates=1) B3LYP/SVP
 --------------------------

 --
 TD
 --
 Symbolic Z-matrix:
 Charge =  0 Multiplicity = 1

                         Standard orientation:
 ---------------------------------------------------------------------
 Center     Atomic      Atomic             Coordinates (Angstroms)
 Number     Number       Type             X           Y           Z
 ---------------------------------------------------------------------
      1          6           0       -5.093321   -1.863128    0.372902
      2          6           0       -4.850347    2.755772    1.441921
      3          6           0       -9.364563    3.291115   -0.251585
      4          6           0       -9.792940   -1.542877   -0.981316
      5          7           0       -5.150421    0.402845    0.665102
      6          6           0       -4.457640   -0.695026    0.704462
      7          6           0       -2.973623   -0.542509    1.160528
      8          6           0       -3.105799    0.987267    1.741057
      9          6           0       -4.452305    1.452231    1.212449
     10          6           0       -2.938597    0.971263    3.298434
     11          6           0       -1.951836   -0.758116    0.082557
     12          6           0       -0.583853   -0.697550    0.620415
     13          6           0        0.413020   -0.858359   -0.530074
     14          8           0        0.139672   -1.089495   -1.697798
     15          8           0        1.727658   -0.856284   -0.046459
     16          7           0       -7.122601    2.670031    0.395776
     17          6           0       -6.087819    3.352351    1.012730
     18          6           0       -6.450603    4.778783    1.118693
     19          6           0       -7.750291    4.917607    0.535285
     20          6           0       -8.224760    3.596375    0.245861
     21          6           0       -5.472825    5.889115    1.568138
     22          6           0       -8.378806    6.193379    0.363155
     23          6           0       -9.316486    6.657704   -0.591393
     24          7           0       -9.209088    0.760653   -0.465597
     25          6           0       -9.926147    1.970777   -0.566792
     26          6           0      -11.287911    1.747635   -0.985732
     27          6           0      -11.462888    0.425197   -1.172097
     28          6           0      -10.069889   -0.105655   -0.887972
     29          6           0      -12.369769    2.874512   -0.967727
     30          6           0      -12.750337   -0.366602   -1.572896
     31          6           0      -12.724770   -0.502716   -3.073896
     32          7           0       -7.507003   -1.319692   -0.227606
     33          6           0       -8.598046   -2.118119   -0.719038
     34          6           0       -8.066748   -3.460628   -0.735042
     35          6           0       -6.786346   -3.397479   -0.303367
     36          6           0       -6.461261   -2.059829   -0.104208
     37          6           0       -8.829947   -4.572256   -1.197779
     38          6           0       -5.672764   -4.342564   -0.039523
     39          8           0       -5.547956   -5.538663   -0.171335
     40          6           0       -4.488468   -3.258482    0.428812
     41          6           0       -3.950949   -3.773630    1.763457
     42          8           0       -4.262333   -3.428107    2.872399
     43          8           0       -3.141077   -4.851934    1.541241
     44          6           0       -2.536124   -5.438430    2.727383
     45          6           0        2.764093   -1.040547   -0.998791
     46          6           0        4.139335   -0.564680   -0.515988
     47          6           0        5.072854    0.182832   -1.093587
     48          6           0        5.061939    0.675745   -2.588487
     49          6           0        6.255370    0.431260   -0.304980
     50          6           0        7.564123   -0.378962   -0.838877
     51          6           0        8.728822   -0.008712   -0.030399
     52          6           0       10.060859   -0.665684   -0.622207
     53          6           0       10.023548   -2.265082   -0.656277
     54          6           0       11.299775   -0.081870    0.221802
     55          6           0       12.710335   -0.475379   -0.361948
     56          6           0       13.907961   -0.005627    0.369345
     57          6           0       15.232392   -0.217632   -0.208962
     58          6           0       15.513649   -1.775809   -0.195379
     59          6           0       16.368635    0.604250    0.459195
     60          6           0       17.862187    0.477693   -0.090266
     61          6           0       18.764373    1.556808    0.407878
     62          6           0       20.196682    1.664470   -0.132265
     63          6           0       20.300954    2.084238   -1.610782
     64          6           0       21.033787    2.585485    0.726312
     65          1           0       -4.135135    3.510268    1.858165
     66          1           0      -10.218316    4.144452   -0.535291
     67          1           0      -10.474005   -2.132928   -1.545767
     68          1           0       -2.828375   -1.257586    1.919615
     69          1           0       -2.312233    1.755532    1.238784
     70          1           0       -1.939145    0.676832    3.928518
     71          1           0       -3.091554    2.037919    3.706424
     72          1           0       -3.657880    0.565681    3.774507
     73          1           0       -2.008410   -1.874912   -0.325636
     74          1           0       -2.081155    0.063158   -0.798420
     75          1           0       -0.324701    0.168336    1.306847
     76          1           0       -0.656987   -1.460092    1.349091
     77          1           0       -4.625824    5.997324    0.931895
     78          1           0       -6.075749    6.743380    1.668154
     79          1           0       -5.311755    5.626438    2.557886
     80          1           0       -8.197725    6.959853    0.988187
     81          1           0       -9.619327    6.000469   -1.346704
     82          1           0       -9.815219    7.569940   -0.235176
     83          1           0      -12.373113    3.508692   -0.095908
     84          1           0      -12.182039    3.446038   -1.823080
     85          1           0      -13.459017    2.469590   -0.916831
     86          1           0      -12.727958   -1.408568   -1.145825
     87          1           0      -13.655360    0.187486   -1.356455
     88          1           0      -12.214012    0.567107   -3.445724
     89          1           0      -11.910506   -1.372385   -3.332277
     90          1           0      -13.771829   -0.891660   -3.498478
     91          1           0       -9.754201   -5.087963   -0.632374
     92          1           0       -9.458404   -4.602226   -2.284615
     93          1           0       -8.348737   -5.608437   -1.306291
     94          1           0       -3.682395   -3.444203   -0.238392
     95          1           0       -1.906286   -6.290694    2.521928
     96          1           0       -2.137045   -4.578281    3.471915
     97          1           0       -3.299420   -6.054584    3.081113
     98          1           0        2.718960   -2.046393   -1.539250
     99          1           0        2.459291   -0.384456   -1.809288
    100          1           0        4.408609   -0.908904    0.518552
    101          1           0        5.892668    1.751888   -2.707473
    102          1           0        5.401400   -0.171232   -3.342035
    103          1           0        4.001833    0.826060   -2.788570
    104          1           0        6.371063    1.461219   -0.375340
    105          1           0        6.145689    0.178630    0.807694
    106          1           0        7.284241   -1.368967   -0.945439
    107          1           0        7.512888   -0.161388   -1.920924
    108          1           0        8.825452    1.007528   -0.119100
    109          1           0        8.499254   -0.443995    1.015152
    110          1           0       10.084991   -0.171689   -1.703846
    111          1           0        9.179066   -2.851486   -1.400751
    112          1           0       11.069335   -2.515831   -1.024577
    113          1           0        9.967799   -2.451215    0.427715
    114          1           0       11.093700    0.998901    0.202470
    115          1           0       11.186397   -0.385344    1.230290
    116          1           0       12.816625   -1.587212   -0.375282
    117          1           0       12.671837   -0.221502   -1.373614
    118          1           0       13.819219    1.119415    0.525357
    119          1           0       13.736012   -0.607177    1.423995
    120          1           0       15.142769    0.036194   -1.253041
    121          1           0       14.775781   -2.383210   -0.667041
    122          1           0       16.398336   -1.993635   -0.928657
    123          1           0       15.738513   -2.080176    0.963882
    124          1           0       16.150269    1.627869    0.644981
    125          1           0       16.337851    0.223069    1.570967
    126          1           0       18.290112   -0.554654   -0.007948
    127          1           0       18.001761    0.503854   -1.283339
    128          1           0       18.233197    2.442780    0.339553
    129          1           0       18.800906    1.216421    1.509080
    130          1           0       20.497308    0.540302   -0.034778
    131          1           0       19.878152    3.077778   -1.693782
    132          1           0       21.307130    1.915922   -1.961757
    133          1           0       19.803693    1.443078   -2.164080
    134          1           0       21.111532    2.154927    1.794923
    135          1           0       22.056843    2.470034    0.193148
    136          1           0       20.639541    3.622191    0.500660
    137          1           0       -7.126271    1.743117    0.036492
    138          1           0       -7.609347   -0.227205   -0.201745
 ---------------------------------------------------------------------

 SCF Done:  E(RB3LYP) =  -2733.07160317     A.U. after   16 cycles

 Excitation energies and oscillator strengths:

 Excited State   1:      Singlet-A      2.0290 eV  611.05 nm  f=0.1031  <S**2>=0.000
     235 -> 238       -0.35355
     236 -> 237        0.59591
 This state for optimization and/or second-order correction.
 Total Energy, E(TD-HF/TD-KS) =  -2732.99703742
 Copying the excited state density for this state as the 1-particle RhoCI density.

 The electronic state is 1-A.
 Alpha  occ. eigenvalues --  -19.17215 -19.16711 -19.13628 -19.13484 -19.11777
 Alpha  occ. eigenvalues --  -14.37071 -14.36822 -14.31829 -14.31022 -10.32321
 Alpha  occ. eigenvalues --  -10.30865 -10.28997 -10.24937 -10.24474 -10.24194
 Alpha  occ. eigenvalues --  -10.23509 -10.23245 -10.23120 -10.23095 -10.22492
 Alpha  occ. eigenvalues --  -10.22390 -10.22152 -10.21891 -10.21824 -10.21781
 Alpha  occ. eigenvalues --  -10.21568 -10.21420 -10.21231 -10.21047 -10.20754
 Alpha  occ. eigenvalues --  -10.20676 -10.20660 -10.20484 -10.20459 -10.20324
 Alpha  occ. eigenvalues --  -10.20234 -10.20196 -10.20128 -10.20128 -10.19902
 Alpha  occ. eigenvalues --  -10.19876 -10.19820 -10.19591 -10.19397 -10.19325
 Alpha  occ. eigenvalues --  -10.19222 -10.19202 -10.19087 -10.19084 -10.19039
 Alpha  occ. eigenvalues --  -10.18956 -10.18875 -10.18856 -10.18847 -10.18689
 Alpha  occ. eigenvalues --  -10.18670 -10.18505 -10.18489 -10.18130 -10.17949
 Alpha  occ. eigenvalues --  -10.17666 -10.17506 -10.17230 -10.16420  -1.08197
 Alpha  occ. eigenvalues --   -1.08107  -1.03542  -1.00502  -0.99650  -0.99417
 Alpha  occ. eigenvalues --   -0.96745  -0.94956  -0.94531  -0.83883  -0.82564
 Alpha  occ. eigenvalues --   -0.82355  -0.82067  -0.81942  -0.81770  -0.80842
 Alpha  occ. eigenvalues --   -0.80702  -0.79760  -0.79447  -0.79092  -0.77409
 Alpha  occ. eigenvalues --   -0.76383  -0.76099  -0.75599  -0.75030  -0.74389
 Alpha  occ. eigenvalues --   -0.73260  -0.72971  -0.72330  -0.71789  -0.71058
 Alpha  occ. eigenvalues --   -0.69820  -0.68999  -0.68584  -0.68183  -0.67888
 Alpha  occ. eigenvalues --   -0.67395  -0.66533  -0.66187  -0.65758  -0.64955
 Alpha  occ. eigenvalues --   -0.64901  -0.63196  -0.62247  -0.61767  -0.60742
 Alpha  occ. eigenvalues --   -0.59516  -0.59199  -0.58435  -0.57504  -0.57427
 Alpha  occ. eigenvalues --   -0.57302  -0.56144  -0.55847  -0.55678  -0.55275
 Alpha  occ. eigenvalues --   -0.55186  -0.54629  -0.54422  -0.54004  -0.53130
 Alpha  occ. eigenvalues --   -0.52706  -0.51920  -0.51541  -0.50463  -0.49994
 Alpha  occ. eigenvalues --   -0.49665  -0.49272  -0.48685  -0.48216  -0.48067
 Alpha  occ. eigenvalues --   -0.47909  -0.47635  -0.47446  -0.47397  -0.47158
 Alpha  occ. eigenvalues --   -0.46794  -0.46509  -0.46426  -0.45969  -0.45942
 Alpha  occ. eigenvalues --   -0.45581  -0.45366  -0.45010  -0.44910  -0.44705
 Alpha  occ. eigenvalues --   -0.44564  -0.44478  -0.44291  -0.44249  -0.43926
 Alpha  occ. eigenvalues --   -0.43466  -0.43202  -0.43114  -0.42805  -0.42594
 Alpha  occ. eigenvalues --   -0.42568  -0.42175  -0.41832  -0.41509  -0.41477
 Alpha  occ. eigenvalues --   -0.41216  -0.41059  -0.40711  -0.40094  -0.40026
 Alpha  occ. eigenvalues --   -0.39956  -0.39844  -0.39693  -0.39402  -0.39219
 Alpha  occ. eigenvalues --   -0.39109  -0.39059  -0.38856  -0.38652  -0.38260
 Alpha  occ. eigenvalues --   -0.38028  -0.37969  -0.37810  -0.37634  -0.37538
 Alpha  occ. eigenvalues --   -0.37396  -0.37330  -0.37184  -0.36891  -0.36436
 Alpha  occ. eigenvalues --   -0.36395  -0.36255  -0.36189  -0.35831  -0.35794
 Alpha  occ. eigenvalues --   -0.35477  -0.35101  -0.35013  -0.34990  -0.34901
 Alpha  occ. eigenvalues --   -0.34807  -0.34449  -0.34237  -0.33930  -0.33448
 Alpha  occ. eigenvalues --   -0.33235  -0.32916  -0.32761  -0.32647  -0.32461
 Alpha  occ. eigenvalues --   -0.32295  -0.32224  -0.31625  -0.31570  -0.31041
 Alpha  occ. eigenvalues --   -0.30880  -0.30643  -0.30493  -0.30179  -0.29852
 Alpha  occ. eigenvalues --   -0.29470  -0.29288  -0.28786  -0.28704  -0.28567
 Alpha  occ. eigenvalues --   -0.28347  -0.27493  -0.26983  -0.26764  -0.26040
 Alpha  occ. eigenvalues --   -0.25218  -0.24243  -0.23927  -0.23796  -0.19778
 Alpha  occ. eigenvalues --   -0.19164
 Alpha virt. eigenvalues --   -0.10275  -0.08611  -0.04326  -0.02596  -0.01274
 Alpha virt. eigenvalues --    0.00220   0.00543   0.00973   0.02350   0.02924
 Alpha virt. eigenvalues --    0.03466   0.04140   0.04233   0.04416   0.04561

 Mulliken charges:
               1
     1  C    0.097188
     2  C   -0.080824
     3  C   -0.188103
     4  C   -0.057270
     5  N   -0.151961
     6  C   -0.141259
     7  C    0.046843
     8  C   -0.098866
     9  C    0.055914
    10  C    0.090091
    11  C   -0.013322
    12  C    0.038572
    13  C    0.236484
    14  O   -0.230032
    15  O   -0.337953
    16  N   -0.103036
    17  C    0.092061
    18  C   -0.214608
    19  C    0.112232
    20  C    0.224845
    21  C    0.225072
    22  C   -0.106640
    23  C   -0.002044
    24  N   -0.222198
    25  C    0.012931
    26  C   -0.126438
    27  C   -0.148012
    28  C    0.016384
    29  C    0.100515
    30  C    0.139848
    31  C   -0.114127
    32  N   -0.053443
    33  C    0.092683
    34  C    0.025510
    35  C   -0.025863
    36  C    0.059124
    37  C   -0.109564
    38  C    0.113071
    39  O   -0.137781
    40  C   -0.088083
    41  C    0.180585
    42  O   -0.219283
    43  O   -0.329289
    44  C    0.199047
    45  C    0.281943
    46  C   -0.108580
    47  C   -0.142701
    48  C   -0.018063
    49  C    0.077797
    50  C    0.020111
    51  C    0.138773
    52  C   -0.167435
    53  C   -0.018887
    54  C    0.069027
    55  C    0.050087
    56  C    0.008861
    57  C   -0.016829
    58  C   -0.028416
    59  C    0.057621
    60  C   -0.009046
    61  C    0.042036
    62  C   -0.158892
    63  C    0.135287
    64  C    0.039863
    65  H   -0.008593
    66  H    0.028307
    67  H   -0.030238
    68  H   -0.015155
    69  H    0.027705
    70  H    0.035151
    71  H   -0.005507
    72  H   -0.033996
    73  H    0.040631
    74  H    0.035039
    75  H    0.033996
    76  H    0.008220
    77  H    0.044316
    78  H   -0.020558
    79  H    0.002112
    80  H   -0.034636
    81  H    0.011837
    82  H    0.033667
    83  H    0.022532
    84  H    0.010853
    85  H    0.021616
    86  H    0.013409
    87  H   -0.002456
    88  H    0.051146
    89  H    0.024107
    90  H    0.038419
    91  H    0.039392
    92  H    0.042519
    93  H    0.036411
    94  H    0.030501
    95  H    0.016672
    96  H    0.066080
    97  H    0.003045
    98  H    0.031060
    99  H   -0.015090
   100  H   -0.001571
   101  H    0.046147
   102  H    0.058535
   103  H    0.029159
   104  H   -0.022452
   105  H   -0.002054
   106  H   -0.038200
   107  H   -0.028994
   108  H   -0.029896
   109  H    0.007339
   110  H    0.002120
   111  H    0.052415
   112  H    0.026826
   113  H    0.016729
   114  H   -0.010378
   115  H   -0.022150
   116  H   -0.003042
   117  H   -0.034547
   118  H   -0.008992
   119  H   -0.000558
   120  H   -0.022082
   121  H    0.006840
   122  H    0.014009
   123  H    0.031280
   124  H   -0.019262
   125  H   -0.004679
   126  H   -0.003131
   127  H   -0.017140
   128  H   -0.032550
   129  H   -0.004951
   130  H   -0.011236
   131  H    0.004195
   132  H   -0.001476
   133  H   -0.047359
   134  H    0.030607
   135  H    0.010745
   136  H    0.017847
   137  H    0.125432
   138  H    0.192402
 Sum of Mulliken charges =   0.00000

 Dipole moment (field-independent basis, Debye):
    X=              0.9690    Y=              4.2276    Z=              0.3569  Tot=              4.3519
 Quadrupole moment (field-independent basis, Debye-Ang):
   XX=           -346.7198   YY=           -377.0990   ZZ=           -398.0725
   XY=            -24.6251   XZ=             -0.1027   YZ=              3.8666

 Normal termination of Gaussian 09 at Mon Aug  5 00:11:44 2019.
