 Gaussian 09, Revision D.01,
 Gaussian 09:  ES64L-G09RevD.01 24-Apr-2013

 --------------------------
 # td=(NStates=1) B3LYP/SVP
 --------------------------

 --
 TD
 --
 Symbolic Z-matrix:
 Charge =  0 Multiplicity = 1

                         Standard orientation:
 ---------------------------------------------------------------------
 Center     Atomic      Atomic             Coordinates (Angstroms)
 Number     Number       Type             X           Y           Z
 ---------------------------------------------------------------------
      1          6           0       -5.063300   -1.904665    0.589976
      2          6           0       -4.832030    2.813367    1.425662
      3          6           0       -9.316730    3.214498   -0.239020
      4          6           0       -9.830501   -1.576309   -0.849533
      5          7           0       -5.172303    0.550395    0.715428
      6          6           0       -4.508254   -0.710178    0.816937
      7          6           0       -3.045539   -0.492510    1.301974
      8          6           0       -3.163024    0.976260    1.794127
      9          6           0       -4.379062    1.480269    1.206563
     10          6           0       -2.970607    1.191701    3.359908
     11          6           0       -2.140586   -0.768908    0.134331
     12          6           0       -0.600808   -0.751719    0.577342
     13          6           0        0.390279   -1.007544   -0.464366
     14          8           0        0.264149   -1.612798   -1.594649
     15          8           0        1.658823   -0.359677   -0.173784
     16          7           0       -7.158005    2.697373    0.471794
     17          6           0       -6.062237    3.318171    0.991233
     18          6           0       -6.399983    4.780058    1.074040
     19          6           0       -7.704040    4.946480    0.535156
     20          6           0       -8.097760    3.580977    0.176508
     21          6           0       -5.463628    5.928194    1.652960
     22          6           0       -8.496442    6.196993    0.444470
     23          6           0       -9.379989    6.551878   -0.512630
     24          7           0       -9.158296    0.792282   -0.420360
     25          6           0       -9.904936    1.952540   -0.553060
     26          6           0      -11.258216    1.702693   -1.037420
     27          6           0      -11.344850    0.320471   -1.328085
     28          6           0      -10.135849   -0.193173   -0.920386
     29          6           0      -12.314795    2.732406   -1.236516
     30          6           0      -12.541037   -0.494810   -1.764863
     31          6           0      -12.478970   -0.670785   -3.248526
     32          7           0       -7.534481   -1.274036   -0.167465
     33          6           0       -8.606576   -2.103679   -0.598074
     34          6           0       -8.008988   -3.428485   -0.703262
     35          6           0       -6.750141   -3.324975   -0.271681
     36          6           0       -6.416475   -2.037031   -0.009288
     37          6           0       -8.826951   -4.638476   -1.190365
     38          6           0       -5.592592   -4.322508   -0.019940
     39          8           0       -5.426657   -5.449239    0.036067
     40          6           0       -4.353236   -3.292050    0.516225
     41          6           0       -3.907135   -3.803660    1.874986
     42          8           0       -4.319469   -3.464757    2.933804
     43          8           0       -3.042935   -4.730647    1.663285
     44          6           0       -2.403374   -5.402780    2.814542
     45          6           0        2.687927   -0.805171   -1.101318
     46          6           0        3.919580   -0.347049   -0.536925
     47          6           0        4.967499    0.379080   -1.144259
     48          6           0        5.053457    0.785451   -2.656955
     49          6           0        6.286972    0.584643   -0.449105
     50          6           0        7.482825   -0.336093   -0.881196
     51          6           0        8.735617   -0.319640    0.034939
     52          6           0        9.966601   -0.857745   -0.722821
     53          6           0        9.987733   -2.277034   -0.888606
     54          6           0       11.297267   -0.282971    0.147916
     55          6           0       12.652044   -0.492962   -0.497374
     56          6           0       13.830777    0.093121    0.233978
     57          6           0       15.252236   -0.083949   -0.305859
     58          6           0       15.543073   -1.553522   -0.440421
     59          6           0       16.429327    0.652947    0.479108
     60          6           0       17.699425    0.595442   -0.104455
     61          6           0       18.727177    1.411263    0.570668
     62          6           0       20.095675    1.463319    0.017992
     63          6           0       20.160918    2.084008   -1.454144
     64          6           0       21.066015    2.266824    0.963207
     65          1           0       -4.067772    3.499052    1.725575
     66          1           0      -10.265423    3.979450   -0.417965
     67          1           0      -10.687565   -2.265087   -1.160624
     68          1           0       -2.885321   -1.263545    2.131413
     69          1           0       -2.367786    1.581155    1.098080
     70          1           0       -1.801792    0.748533    3.466566
     71          1           0       -3.037338    2.067569    3.703472
     72          1           0       -3.688374    0.431809    3.915938
     73          1           0       -2.508787   -1.769270   -0.354440
     74          1           0       -2.498798   -0.060612   -0.744411
     75          1           0       -0.594010    0.186254    0.908937
     76          1           0       -0.349179   -1.238872    1.348326
     77          1           0       -4.555133    6.144602    0.811576
     78          1           0       -6.014281    6.884135    1.871199
     79          1           0       -5.131419    5.610506    2.609930
     80          1           0       -8.074709    6.994718    1.078115
     81          1           0       -9.678834    5.770731   -1.213758
     82          1           0       -9.499526    7.612115   -0.684064
     83          1           0      -12.507455    3.374408   -0.233496
     84          1           0      -12.032003    3.613002   -1.927749
     85          1           0      -13.407155    2.477776   -1.611926
     86          1           0      -12.580465   -1.499709   -1.366739
     87          1           0      -13.552475   -0.085909   -1.714531
     88          1           0      -12.393578    0.277583   -3.801020
     89          1           0      -11.697194   -1.131877   -3.720702
     90          1           0      -13.397538   -1.412344   -3.690613
     91          1           0       -9.866875   -4.726371   -0.784807
     92          1           0       -8.910752   -4.697747   -2.219479
     93          1           0       -8.239052   -5.742215   -1.013247
     94          1           0       -3.682354   -3.214077   -0.290966
     95          1           0       -1.451809   -5.848157    2.485038
     96          1           0       -2.274793   -4.592737    3.622842
     97          1           0       -3.071119   -6.078044    3.134264
     98          1           0        2.453588   -1.942553   -1.564459
     99          1           0        2.359030   -0.373858   -2.022439
    100          1           0        4.286927   -0.581204    0.588725
    101          1           0        5.481892    1.916969   -2.753307
    102          1           0        5.570345    0.145918   -3.311411
    103          1           0        4.144428    0.916553   -3.150214
    104          1           0        6.438301    1.861560   -0.696267
    105          1           0        5.762584    0.391637    0.711642
    106          1           0        7.155510   -1.504227   -0.855999
    107          1           0        7.660448   -0.152875   -2.064697
    108          1           0        8.993205    0.651897    0.442032
    109          1           0        8.491243   -0.687150    0.917673
    110          1           0        9.915769   -0.202983   -1.573857
    111          1           0        9.442470   -2.464728   -1.734931
    112          1           0       10.936549   -2.481141   -1.344505
    113          1           0        9.723396   -3.001038    0.002592
    114          1           0       10.914723    0.808030    0.377026
    115          1           0       11.304618   -0.955048    1.141908
    116          1           0       12.925557   -1.573504   -0.784963
    117          1           0       12.857593    0.053879   -1.482279
    118          1           0       13.477929    1.214902    0.302844
    119          1           0       13.920998   -0.539637    1.110608
    120          1           0       15.150892    0.307378   -1.518584
    121          1           0       14.724492   -2.123024   -0.995856
    122          1           0       16.546234   -1.901851   -0.866352
    123          1           0       15.537099   -2.056216    0.440908
    124          1           0       16.083873    1.712028    0.612391
    125          1           0       16.350375    0.341967    1.602574
    126          1           0       18.262380   -0.477415   -0.104056
    127          1           0       17.725505    0.953886   -1.031978
    128          1           0       18.080581    2.338776    0.584476
    129          1           0       18.732343    1.188624    1.667356
    130          1           0       20.415517    0.610549    0.009449
    131          1           0       19.792451    2.998949   -1.618387
    132          1           0       21.309672    2.144789   -1.839905
    133          1           0       19.471145    1.487877   -2.133749
    134          1           0       20.933724    1.949042    1.939386
    135          1           0       22.220995    2.094965    0.602115
    136          1           0       20.739920    3.280782    0.661257
    137          1           0       -7.095335    1.579428    0.156006
    138          1           0       -7.940690   -0.319976   -0.122846
 ---------------------------------------------------------------------

 SCF Done:  E(RB3LYP) =  -2732.87822228     A.U. after   16 cycles

 Excitation energies and oscillator strengths:

 Excited State   1:      Singlet-A      2.1570 eV  574.81 nm  f=0.1105  <S**2>=0.000
     235 -> 237       -0.28340
     235 -> 238        0.25974
     236 -> 237        0.54035
     236 -> 238        0.23420
 This state for optimization and/or second-order correction.
 Total Energy, E(TD-HF/TD-KS) =  -2732.79895493
 Copying the excited state density for this state as the 1-particle RhoCI density.

 The electronic state is 1-A.
 Alpha  occ. eigenvalues --  -19.17503 -19.17212 -19.14580 -19.13631 -19.11304
 Alpha  occ. eigenvalues --  -14.37298 -14.35777 -14.31893 -14.30562 -10.32729
 Alpha  occ. eigenvalues --  -10.30634 -10.29258 -10.24849 -10.24479 -10.24465
 Alpha  occ. eigenvalues --  -10.23687 -10.23248 -10.22354 -10.22292 -10.22286
 Alpha  occ. eigenvalues --  -10.22104 -10.21968 -10.21746 -10.21721 -10.21695
 Alpha  occ. eigenvalues --  -10.21503 -10.21444 -10.21300 -10.21116 -10.21061
 Alpha  occ. eigenvalues --  -10.21012 -10.20996 -10.20949 -10.20894 -10.20762
 Alpha  occ. eigenvalues --  -10.20607 -10.20527 -10.20518 -10.20192 -10.20159
 Alpha  occ. eigenvalues --  -10.20067 -10.20042 -10.19876 -10.19761 -10.19670
 Alpha  occ. eigenvalues --  -10.19507 -10.19497 -10.18964 -10.18941 -10.18910
 Alpha  occ. eigenvalues --  -10.18886 -10.18859 -10.18762 -10.18688 -10.18424
 Alpha  occ. eigenvalues --  -10.18377 -10.18328 -10.18251 -10.17381 -10.17354
 Alpha  occ. eigenvalues --  -10.17206 -10.17202 -10.17064 -10.16963  -1.10806
 Alpha  occ. eigenvalues --   -1.08469  -1.05695  -1.00997  -0.98807  -0.97663
 Alpha  occ. eigenvalues --   -0.97602  -0.94112  -0.91635  -0.83779  -0.83439
 Alpha  occ. eigenvalues --   -0.82264  -0.81880  -0.81090  -0.80841  -0.80677
 Alpha  occ. eigenvalues --   -0.80067  -0.79902  -0.79358  -0.78734  -0.77947
 Alpha  occ. eigenvalues --   -0.77304  -0.76334  -0.75433  -0.74963  -0.74651
 Alpha  occ. eigenvalues --   -0.73939  -0.73433  -0.73125  -0.72014  -0.70735
 Alpha  occ. eigenvalues --   -0.69992  -0.69497  -0.68832  -0.68330  -0.67314
 Alpha  occ. eigenvalues --   -0.67052  -0.66832  -0.66505  -0.65514  -0.64812
 Alpha  occ. eigenvalues --   -0.64067  -0.63114  -0.62212  -0.61825  -0.61328
 Alpha  occ. eigenvalues --   -0.60963  -0.58991  -0.58787  -0.57632  -0.57421
 Alpha  occ. eigenvalues --   -0.57091  -0.56779  -0.56218  -0.56110  -0.55643
 Alpha  occ. eigenvalues --   -0.54937  -0.53861  -0.53814  -0.53449  -0.53153
 Alpha  occ. eigenvalues --   -0.52659  -0.51752  -0.51580  -0.50745  -0.50241
 Alpha  occ. eigenvalues --   -0.49873  -0.49532  -0.49240  -0.48602  -0.48487
 Alpha  occ. eigenvalues --   -0.48060  -0.47987  -0.47565  -0.47373  -0.47037
 Alpha  occ. eigenvalues --   -0.46746  -0.46434  -0.46311  -0.46146  -0.45617
 Alpha  occ. eigenvalues --   -0.45484  -0.45399  -0.45109  -0.44947  -0.44827
 Alpha  occ. eigenvalues --   -0.44528  -0.44378  -0.44144  -0.44027  -0.43934
 Alpha  occ. eigenvalues --   -0.43635  -0.43407  -0.43233  -0.43020  -0.42546
 Alpha  occ. eigenvalues --   -0.42395  -0.42099  -0.41713  -0.41682  -0.41547
 Alpha  occ. eigenvalues --   -0.41345  -0.41165  -0.40838  -0.40698  -0.40468
 Alpha  occ. eigenvalues --   -0.40360  -0.40119  -0.39857  -0.39621  -0.39125
 Alpha  occ. eigenvalues --   -0.38996  -0.38918  -0.38762  -0.38705  -0.38219
 Alpha  occ. eigenvalues --   -0.38166  -0.37984  -0.37904  -0.37479  -0.37400
 Alpha  occ. eigenvalues --   -0.37130  -0.37032  -0.36985  -0.36704  -0.36636
 Alpha  occ. eigenvalues --   -0.36558  -0.36331  -0.36198  -0.36048  -0.35925
 Alpha  occ. eigenvalues --   -0.35446  -0.35372  -0.35267  -0.34922  -0.34897
 Alpha  occ. eigenvalues --   -0.34280  -0.34135  -0.33825  -0.33646  -0.33539
 Alpha  occ. eigenvalues --   -0.33241  -0.32922  -0.32810  -0.32665  -0.32246
 Alpha  occ. eigenvalues --   -0.32121  -0.31896  -0.31559  -0.31184  -0.31086
 Alpha  occ. eigenvalues --   -0.30873  -0.30790  -0.30665  -0.30026  -0.29264
 Alpha  occ. eigenvalues --   -0.29229  -0.28760  -0.28616  -0.28572  -0.28252
 Alpha  occ. eigenvalues --   -0.27876  -0.27683  -0.26829  -0.26594  -0.26252
 Alpha  occ. eigenvalues --   -0.24886  -0.23985  -0.23560  -0.22364  -0.19904
 Alpha  occ. eigenvalues --   -0.18869
 Alpha virt. eigenvalues --   -0.09699  -0.07993  -0.03450  -0.02639  -0.01973
 Alpha virt. eigenvalues --   -0.01577   0.00272   0.01890   0.02480   0.03787
 Alpha virt. eigenvalues --    0.03814   0.03985   0.04352   0.04379   0.04552

 Mulliken charges:
               1
     1  C   -0.040444
     2  C   -0.094883
     3  C   -0.136505
     4  C   -0.083357
     5  N   -0.195319
     6  C   -0.052762
     7  C   -0.055434
     8  C   -0.026114
     9  C   -0.024878
    10  C    0.101924
    11  C   -0.034497
    12  C    0.270518
    13  C    0.223762
    14  O   -0.289596
    15  O   -0.369285
    16  N   -0.084181
    17  C    0.135588
    18  C   -0.162506
    19  C    0.033064
    20  C    0.137894
    21  C    0.052547
    22  C   -0.037560
    23  C   -0.006619
    24  N   -0.349184
    25  C    0.023163
    26  C   -0.065640
    27  C   -0.082610
    28  C    0.068731
    29  C   -0.031213
    30  C    0.157043
    31  C   -0.042854
    32  N   -0.069255
    33  C    0.038301
    34  C   -0.096352
    35  C   -0.065790
    36  C    0.135286
    37  C    0.048015
    38  C    0.118773
    39  O   -0.063580
    40  C   -0.107453
    41  C    0.187905
    42  O   -0.212597
    43  O   -0.279401
    44  C    0.207854
    45  C    0.228646
    46  C   -0.027367
    47  C   -0.161531
    48  C    0.060598
    49  C   -0.040187
    50  C   -0.040150
    51  C    0.136295
    52  C   -0.118703
    53  C    0.171063
    54  C   -0.025640
    55  C   -0.005455
    56  C    0.034370
    57  C   -0.101731
    58  C    0.033881
    59  C    0.030731
    60  C    0.134909
    61  C   -0.035706
    62  C    0.089817
    63  C   -0.008026
    64  C    0.012393
    65  H   -0.033483
    66  H    0.011199
    67  H   -0.003933
    68  H    0.026093
    69  H    0.016552
    70  H    0.027677
    71  H   -0.032527
    72  H    0.058587
    73  H    0.033263
    74  H    0.029374
    75  H   -0.027680
    76  H   -0.040401
    77  H    0.063764
    78  H    0.024438
    79  H    0.026619
    80  H   -0.009737
    81  H    0.033594
    82  H    0.029752
    83  H    0.035678
    84  H    0.029605
    85  H    0.037844
    86  H   -0.002528
    87  H    0.003677
    88  H    0.006223
    89  H   -0.019353
    90  H    0.009859
    91  H    0.037293
    92  H    0.008980
    93  H    0.044040
    94  H    0.044742
    95  H    0.047069
    96  H    0.047428
    97  H    0.012284
    98  H    0.061464
    99  H   -0.010369
   100  H    0.015229
   101  H    0.015828
   102  H    0.024564
   103  H   -0.014014
   104  H    0.034104
   105  H    0.023569
   106  H    0.023591
   107  H    0.026448
   108  H   -0.036494
   109  H   -0.059917
   110  H   -0.010223
   111  H   -0.036428
   112  H   -0.026718
   113  H    0.038431
   114  H    0.020097
   115  H    0.008869
   116  H    0.010906
   117  H   -0.016503
   118  H    0.014613
   119  H   -0.020912
   120  H   -0.007797
   121  H    0.005912
   122  H    0.017658
   123  H   -0.036776
   124  H   -0.011545
   125  H   -0.002794
   126  H   -0.001510
   127  H   -0.056321
   128  H   -0.035237
   129  H   -0.021303
   130  H   -0.095878
   131  H   -0.020719
   132  H    0.023913
   133  H    0.016649
   134  H    0.001041
   135  H    0.020794
   136  H    0.018421
   137  H    0.236431
   138  H    0.138231
 Sum of Mulliken charges =   0.00000

 Dipole moment (field-independent basis, Debye):
    X=              1.4181    Y=              2.4328    Z=              0.1888  Tot=              2.8223
 Quadrupole moment (field-independent basis, Debye-Ang):
   XX=           -375.0288   YY=           -372.8807   ZZ=           -393.9384
   XY=            -24.2275   XZ=             13.1438   YZ=             -1.9629

 Normal termination of Gaussian 09 at Thu Aug  1 15:06:45 2019.
