 Gaussian 09, Revision D.01,
 Gaussian 09:  ES64L-G09RevD.01 24-Apr-2013

 --------------------------
 # td=(NStates=1) B3LYP/SVP
 --------------------------

 --
 TD
 --
 Symbolic Z-matrix:
 Charge =  0 Multiplicity = 1

                         Standard orientation:
 ---------------------------------------------------------------------
 Center     Atomic      Atomic             Coordinates (Angstroms)
 Number     Number       Type             X           Y           Z
 ---------------------------------------------------------------------
      1          6           0       -5.045932   -1.969977    0.435764
      2          6           0       -4.927442    2.707666    1.330153
      3          6           0       -9.401822    3.304305   -0.221030
      4          6           0       -9.816371   -1.543607   -0.936071
      5          7           0       -5.241420    0.344448    0.845356
      6          6           0       -4.431975   -0.739477    0.765542
      7          6           0       -3.067258   -0.472734    1.075725
      8          6           0       -3.127110    0.948391    1.816528
      9          6           0       -4.487361    1.369513    1.302660
     10          6           0       -3.052716    0.925435    3.375046
     11          6           0       -1.950561   -0.674288    0.061715
     12          6           0       -0.560077   -0.587281    0.511307
     13          6           0        0.375414   -1.062798   -0.591316
     14          8           0        0.186774   -1.638446   -1.591744
     15          8           0        1.589338   -0.622741   -0.162642
     16          7           0       -7.171599    2.789503    0.481637
     17          6           0       -6.074226    3.412807    0.943794
     18          6           0       -6.347724    4.814852    1.079916
     19          6           0       -7.638863    4.873517    0.523091
     20          6           0       -8.181578    3.624594    0.211946
     21          6           0       -5.438756    5.868455    1.658293
     22          6           0       -8.358341    6.204746    0.434776
     23          6           0       -9.166603    6.463506   -0.656835
     24          7           0       -9.234456    0.861264   -0.570380
     25          6           0       -9.920961    1.987051   -0.528236
     26          6           0      -11.332387    1.736134   -1.002498
     27          6           0      -11.440098    0.434826   -1.231956
     28          6           0      -10.018165   -0.165786   -0.929067
     29          6           0      -12.279161    2.801076   -1.134244
     30          6           0      -12.655193   -0.352122   -1.774146
     31          6           0      -12.540980   -0.621380   -3.257069
     32          7           0       -7.429499   -1.234770   -0.206824
     33          6           0       -8.526922   -1.974440   -0.684242
     34          6           0       -8.213517   -3.318993   -0.658630
     35          6           0       -6.802431   -3.400005   -0.172099
     36          6           0       -6.393551   -2.042129    0.065179
     37          6           0       -9.021388   -4.623952   -0.958666
     38          6           0       -5.725733   -4.284135    0.176810
     39          8           0       -5.661303   -5.458705    0.163682
     40          6           0       -4.484482   -3.326791    0.539266
     41          6           0       -3.904435   -3.724942    1.826468
     42          8           0       -4.130711   -3.334524    2.907677
     43          8           0       -2.963324   -4.683117    1.632916
     44          6           0       -2.312754   -5.294615    2.731878
     45          6           0        2.730727   -1.031210   -1.124458
     46          6           0        4.053609   -0.647660   -0.461605
     47          6           0        5.002186    0.157563   -1.043527
     48          6           0        4.994780    0.687775   -2.497978
     49          6           0        6.250550    0.268156   -0.309432
     50          6           0        7.513821   -0.373814   -0.966466
     51          6           0        8.738011   -0.205005   -0.158690
     52          6           0        9.994560   -0.650186   -0.903994
     53          6           0       10.060429   -2.175008   -1.057571
     54          6           0       11.271940   -0.186291   -0.184848
     55          6           0       12.638515   -0.581917   -0.657919
     56          6           0       13.830883    0.095797    0.082132
     57          6           0       15.318819   -0.217263   -0.401516
     58          6           0       15.653531   -1.602314   -0.507004
     59          6           0       16.245313    0.579974    0.422919
     60          6           0       17.689290    0.721401   -0.123774
     61          6           0       18.590515    1.458502    0.784041
     62          6           0       20.084142    1.570185    0.088346
     63          6           0       20.160550    2.411566   -1.209759
     64          6           0       21.045027    2.215177    1.172905
     65          1           0       -3.959967    3.300429    1.886474
     66          1           0      -10.159292    4.012388   -0.318262
     67          1           0      -10.459568   -2.188946   -1.352522
     68          1           0       -2.706540   -1.127283    2.078288
     69          1           0       -2.345709    1.478899    1.466016
     70          1           0       -2.080940    0.619050    3.806278
     71          1           0       -3.025655    1.961660    3.973630
     72          1           0       -3.649417    0.216654    4.095666
     73          1           0       -1.951396   -1.729735   -0.379602
     74          1           0       -2.090450   -0.025409   -0.804070
     75          1           0       -0.201921    0.543454    0.810992
     76          1           0       -0.371270   -1.012432    1.474157
     77          1           0       -4.313981    5.978625    1.144190
     78          1           0       -5.863380    6.984589    1.554212
     79          1           0       -5.316056    5.828818    2.562040
     80          1           0       -8.238240    6.981106    1.134925
     81          1           0       -9.435990    5.875816   -1.456946
     82          1           0       -9.660908    7.430754   -0.775749
     83          1           0      -12.617020    3.408836   -0.304723
     84          1           0      -12.084566    3.689342   -1.976700
     85          1           0      -13.197229    2.440741   -1.615753
     86          1           0      -12.775327   -1.288291   -1.331131
     87          1           0      -13.583118    0.371966   -1.530603
     88          1           0      -12.492621    0.272138   -3.901533
     89          1           0      -11.552295   -1.070270   -3.329632
     90          1           0      -13.324699   -1.375431   -3.658815
     91          1           0       -9.964965   -4.648356   -0.178517
     92          1           0       -9.243369   -4.759166   -2.084014
     93          1           0       -8.344101   -5.427974   -0.825293
     94          1           0       -3.679612   -3.535123   -0.247617
     95          1           0       -1.442201   -5.883746    2.333702
     96          1           0       -1.803491   -4.594944    3.269386
     97          1           0       -2.981885   -5.777378    3.444853
     98          1           0        2.753719   -2.277947   -1.385119
     99          1           0        2.580541   -0.453625   -1.904643
    100          1           0        4.308012   -1.135257    0.603247
    101          1           0        5.450533    1.598282   -2.531002
    102          1           0        5.311051   -0.235680   -3.229569
    103          1           0        3.813495    0.907946   -2.922927
    104          1           0        6.466721    1.376394   -0.113201
    105          1           0        5.986412   -0.052380    0.582026
    106          1           0        7.239357   -1.416120   -1.003061
    107          1           0        7.529150   -0.249693   -2.059149
    108          1           0        9.192971    0.889936    0.142918
    109          1           0        8.817043   -0.741927    0.792531
    110          1           0       10.000773   -0.387732   -2.097078
    111          1           0        9.098155   -2.812786   -1.455147
    112          1           0       11.033032   -2.507879   -1.415117
    113          1           0       10.209410   -2.586504   -0.088910
    114          1           0       11.318004    0.931590   -0.056116
    115          1           0       10.881190   -0.689882    0.948148
    116          1           0       12.979218   -1.558241   -0.669959
    117          1           0       12.768571   -0.299062   -1.695478
    118          1           0       13.905279    1.211672    0.085281
    119          1           0       13.978559   -0.398319    1.028583
    120          1           0       15.282613    0.201331   -1.319881
    121          1           0       14.913286   -2.303059   -0.971440
    122          1           0       16.716484   -1.906970   -0.934338
    123          1           0       15.779888   -1.923681    0.421706
    124          1           0       15.641381    1.565135    0.434799
    125          1           0       16.282408    0.339272    1.522926
    126          1           0       17.930923   -0.230287   -0.432034
    127          1           0       17.506401    1.180072   -1.229894
    128          1           0       18.067274    2.649967    1.006637
    129          1           0       18.582096    0.905498    1.708281
    130          1           0       20.463016    0.456624   -0.094222
    131          1           0       20.076277    3.538829   -0.845789
    132          1           0       21.245606    2.397300   -1.588122
    133          1           0       19.723117    2.013532   -2.162569
    134          1           0       20.766458    2.008475    2.200606
    135          1           0       22.175421    2.029876    0.888255
    136          1           0       20.821221    3.393776    0.977971
    137          1           0       -7.247168    1.712640    0.323355
    138          1           0       -7.632502   -0.271836   -0.302775
 ---------------------------------------------------------------------

 SCF Done:  E(RB3LYP) =  -2732.98840680     A.U. after   17 cycles

 Excitation energies and oscillator strengths:

 Excited State   1:      Singlet-A      2.1058 eV  588.76 nm  f=0.1748  <S**2>=0.000
     235 -> 237       -0.22698
     235 -> 238        0.28944
     236 -> 237        0.58780
     236 -> 238        0.13575
 This state for optimization and/or second-order correction.
 Total Energy, E(TD-HF/TD-KS) =  -2732.91101858
 Copying the excited state density for this state as the 1-particle RhoCI density.

 The electronic state is 1-A.
 Alpha  occ. eigenvalues --  -19.16760 -19.15720 -19.13299 -19.11553 -19.11357
 Alpha  occ. eigenvalues --  -14.36969 -14.36504 -14.32093 -14.30781 -10.31126
 Alpha  occ. eigenvalues --  -10.30140 -10.26950 -10.25498 -10.24025 -10.23262
 Alpha  occ. eigenvalues --  -10.23017 -10.22869 -10.22806 -10.22445 -10.22329
 Alpha  occ. eigenvalues --  -10.22012 -10.21941 -10.21797 -10.21224 -10.21194
 Alpha  occ. eigenvalues --  -10.21012 -10.20915 -10.20832 -10.20803 -10.20719
 Alpha  occ. eigenvalues --  -10.20661 -10.20606 -10.20587 -10.20574 -10.20514
 Alpha  occ. eigenvalues --  -10.20506 -10.20486 -10.20379 -10.20270 -10.20162
 Alpha  occ. eigenvalues --  -10.20120 -10.19870 -10.19745 -10.19725 -10.19680
 Alpha  occ. eigenvalues --  -10.19609 -10.19580 -10.19566 -10.19423 -10.19188
 Alpha  occ. eigenvalues --  -10.19179 -10.19120 -10.18627 -10.18517 -10.18455
 Alpha  occ. eigenvalues --  -10.18211 -10.18209 -10.18104 -10.18031 -10.18017
 Alpha  occ. eigenvalues --  -10.18008 -10.17960 -10.17146 -10.16942  -1.09387
 Alpha  occ. eigenvalues --   -1.09308  -1.04177  -1.00703  -1.00447  -1.00023
 Alpha  occ. eigenvalues --   -0.98165  -0.95116  -0.94430  -0.85130  -0.83585
 Alpha  occ. eigenvalues --   -0.83233  -0.81880  -0.81602  -0.81411  -0.81243
 Alpha  occ. eigenvalues --   -0.80243  -0.79961  -0.79022  -0.78822  -0.77593
 Alpha  occ. eigenvalues --   -0.77008  -0.76143  -0.75878  -0.75003  -0.74811
 Alpha  occ. eigenvalues --   -0.73880  -0.73632  -0.72845  -0.71893  -0.71171
 Alpha  occ. eigenvalues --   -0.69630  -0.69254  -0.68909  -0.68672  -0.68243
 Alpha  occ. eigenvalues --   -0.67678  -0.66608  -0.66347  -0.66045  -0.65031
 Alpha  occ. eigenvalues --   -0.64442  -0.63320  -0.63091  -0.61872  -0.61232
 Alpha  occ. eigenvalues --   -0.61018  -0.59631  -0.59123  -0.58168  -0.57711
 Alpha  occ. eigenvalues --   -0.57186  -0.57070  -0.56540  -0.55554  -0.55059
 Alpha  occ. eigenvalues --   -0.54874  -0.54748  -0.54221  -0.53850  -0.53331
 Alpha  occ. eigenvalues --   -0.52745  -0.52359  -0.51898  -0.51348  -0.50434
 Alpha  occ. eigenvalues --   -0.49742  -0.49261  -0.48928  -0.48865  -0.48591
 Alpha  occ. eigenvalues --   -0.48177  -0.47694  -0.47474  -0.47118  -0.46879
 Alpha  occ. eigenvalues --   -0.46625  -0.46528  -0.46304  -0.46208  -0.46028
 Alpha  occ. eigenvalues --   -0.45746  -0.45447  -0.45213  -0.44706  -0.44684
 Alpha  occ. eigenvalues --   -0.44510  -0.44380  -0.44297  -0.44020  -0.43900
 Alpha  occ. eigenvalues --   -0.43681  -0.43465  -0.43086  -0.42919  -0.42738
 Alpha  occ. eigenvalues --   -0.42269  -0.42208  -0.42069  -0.41833  -0.41780
 Alpha  occ. eigenvalues --   -0.41394  -0.41318  -0.41116  -0.40881  -0.40732
 Alpha  occ. eigenvalues --   -0.40619  -0.40440  -0.39796  -0.39542  -0.39276
 Alpha  occ. eigenvalues --   -0.39199  -0.39072  -0.38714  -0.38612  -0.38383
 Alpha  occ. eigenvalues --   -0.38291  -0.38113  -0.37944  -0.37428  -0.37304
 Alpha  occ. eigenvalues --   -0.37165  -0.37043  -0.36857  -0.36733  -0.36417
 Alpha  occ. eigenvalues --   -0.36233  -0.36218  -0.35876  -0.35842  -0.35667
 Alpha  occ. eigenvalues --   -0.35527  -0.35195  -0.35192  -0.34762  -0.34641
 Alpha  occ. eigenvalues --   -0.34535  -0.34401  -0.34185  -0.34154  -0.33885
 Alpha  occ. eigenvalues --   -0.33809  -0.33502  -0.33455  -0.33013  -0.32544
 Alpha  occ. eigenvalues --   -0.32292  -0.31795  -0.31789  -0.31516  -0.31140
 Alpha  occ. eigenvalues --   -0.30479  -0.30306  -0.30216  -0.30067  -0.29917
 Alpha  occ. eigenvalues --   -0.29385  -0.29356  -0.29085  -0.28603  -0.28016
 Alpha  occ. eigenvalues --   -0.27886  -0.27297  -0.26404  -0.25907  -0.25275
 Alpha  occ. eigenvalues --   -0.24536  -0.24481  -0.24097  -0.23795  -0.19808
 Alpha  occ. eigenvalues --   -0.19030
 Alpha virt. eigenvalues --   -0.10288  -0.07262  -0.03921  -0.01591  -0.01254
 Alpha virt. eigenvalues --    0.00427   0.00639   0.01468   0.02012   0.03449
 Alpha virt. eigenvalues --    0.03625   0.03839   0.04137   0.04155   0.04675

 Mulliken charges:
               1
     1  C   -0.023083
     2  C   -0.072493
     3  C   -0.090715
     4  C   -0.028101
     5  N   -0.157809
     6  C    0.007079
     7  C   -0.148887
     8  C    0.090722
     9  C   -0.075832
    10  C   -0.015269
    11  C    0.105730
    12  C   -0.042177
    13  C    0.187907
    14  O   -0.182589
    15  O   -0.362162
    16  N   -0.060728
    17  C    0.099079
    18  C   -0.092244
    19  C    0.004778
    20  C    0.191744
    21  C    0.139357
    22  C   -0.015567
    23  C   -0.024255
    24  N   -0.198102
    25  C   -0.014127
    26  C   -0.062812
    27  C   -0.121599
    28  C    0.053030
    29  C    0.032381
    30  C    0.077997
    31  C    0.005287
    32  N    0.001308
    33  C    0.076776
    34  C   -0.151017
    35  C   -0.031142
    36  C    0.113497
    37  C    0.072127
    38  C    0.015428
    39  O   -0.127747
    40  C   -0.045740
    41  C    0.166778
    42  O   -0.184186
    43  O   -0.324527
    44  C    0.240828
    45  C    0.319313
    46  C   -0.142289
    47  C   -0.178167
    48  C    0.017020
    49  C    0.165844
    50  C    0.069923
    51  C    0.056155
    52  C   -0.131572
    53  C    0.028270
    54  C   -0.023254
    55  C    0.139702
    56  C   -0.046061
    57  C   -0.008926
    58  C    0.073353
    59  C   -0.027392
    60  C    0.061740
    61  C    0.030996
    62  C   -0.137332
    63  C    0.003686
    64  C   -0.004613
    65  H    0.009291
    66  H   -0.054115
    67  H   -0.056793
    68  H    0.045182
    69  H   -0.049297
    70  H   -0.002994
    71  H    0.019334
    72  H    0.048377
    73  H    0.031025
    74  H    0.000532
    75  H    0.043060
    76  H    0.017568
    77  H    0.046979
    78  H    0.019542
    79  H   -0.050644
    80  H   -0.006570
    81  H    0.006414
    82  H    0.014395
    83  H    0.024726
    84  H    0.017370
    85  H   -0.007359
    86  H   -0.012315
    87  H    0.017599
    88  H    0.012473
    89  H   -0.001597
    90  H    0.026012
    91  H    0.060594
    92  H    0.037937
    93  H    0.020567
    94  H    0.068205
    95  H    0.026888
    96  H   -0.024895
    97  H    0.028627
    98  H    0.068952
    99  H   -0.047626
   100  H    0.029006
   101  H    0.012599
   102  H    0.070166
   103  H    0.032325
   104  H   -0.002288
   105  H   -0.067412
   106  H   -0.021528
   107  H   -0.002693
   108  H    0.011918
   109  H   -0.002881
   110  H    0.005833
   111  H    0.034274
   112  H   -0.001707
   113  H   -0.040693
   114  H    0.014732
   115  H    0.006045
   116  H   -0.032445
   117  H   -0.019981
   118  H    0.007214
   119  H   -0.012188
   120  H   -0.056850
   121  H    0.012874
   122  H    0.013806
   123  H   -0.051897
   124  H   -0.015114
   125  H   -0.014049
   126  H   -0.046117
   127  H   -0.004973
   128  H    0.018829
   129  H   -0.000220
   130  H    0.015504
   131  H    0.030872
   132  H    0.003049
   133  H    0.029137
   134  H    0.017267
   135  H    0.032637
   136  H    0.008572
   137  H    0.185763
   138  H    0.107848
 Sum of Mulliken charges =   0.00000

 Dipole moment (field-independent basis, Debye):
    X=              3.7459    Y=              4.3822    Z=             -0.3368  Tot=              5.7748
 Quadrupole moment (field-independent basis, Debye-Ang):
   XX=           -340.8046   YY=           -389.4956   ZZ=           -392.5467
   XY=            -37.3604   XZ=              7.2528   YZ=              2.9857

 Normal termination of Gaussian 09 at Mon Jul 29 18:18:55 2019.
