 Gaussian 09, Revision D.01,
 Gaussian 09:  ES64L-G09RevD.01 24-Apr-2013

 --------------------------
 # td=(NStates=1) B3LYP/SVP
 --------------------------

 --
 TD
 --
 Symbolic Z-matrix:
 Charge =  0 Multiplicity = 1

                         Standard orientation:
 ---------------------------------------------------------------------
 Center     Atomic      Atomic             Coordinates (Angstroms)
 Number     Number       Type             X           Y           Z
 ---------------------------------------------------------------------
      1          6           0       -5.112905   -1.927835    0.288837
      2          6           0       -4.851814    2.730039    1.604335
      3          6           0       -9.359463    3.331885   -0.137923
      4          6           0       -9.816337   -1.525997   -0.940245
      5          7           0       -5.237601    0.396327    0.815554
      6          6           0       -4.584687   -0.778636    0.799865
      7          6           0       -3.159984   -0.657093    1.267641
      8          6           0       -3.266750    0.676396    1.885961
      9          6           0       -4.487871    1.357281    1.391209
     10          6           0       -3.191870    0.759282    3.481078
     11          6           0       -2.050141   -0.847958    0.105910
     12          6           0       -0.515053   -0.696386    0.612054
     13          6           0        0.417929   -0.789031   -0.534777
     14          8           0        0.060111   -0.752651   -1.809652
     15          8           0        1.774339   -0.902609    0.000679
     16          7           0       -7.245641    2.733672    0.600916
     17          6           0       -6.102927    3.204195    1.126516
     18          6           0       -6.363608    4.685731    1.191025
     19          6           0       -7.609162    4.938548    0.593852
     20          6           0       -8.115237    3.638949    0.284035
     21          6           0       -5.446533    5.704303    1.661415
     22          6           0       -8.249816    6.306510    0.540243
     23          6           0       -9.027279    6.670931   -0.590088
     24          7           0       -9.251720    0.929156   -0.463361
     25          6           0       -9.931914    2.084089   -0.571619
     26          6           0      -11.264951    1.850809   -1.121612
     27          6           0      -11.421491    0.535431   -1.292378
     28          6           0      -10.110792   -0.072960   -0.924948
     29          6           0      -12.236650    3.057911   -1.272701
     30          6           0      -12.577055   -0.239255   -1.819567
     31          6           0      -12.445149   -0.560479   -3.404354
     32          7           0       -7.424010   -1.307481   -0.450842
     33          6           0       -8.535326   -2.046338   -0.749771
     34          6           0       -8.192096   -3.465773   -0.762418
     35          6           0       -6.867670   -3.508402   -0.405301
     36          6           0       -6.404373   -2.039254   -0.152308
     37          6           0       -9.034842   -4.723357   -1.181370
     38          6           0       -5.728617   -4.294862    0.052709
     39          8           0       -5.757071   -5.583114    0.056893
     40          6           0       -4.495599   -3.365417    0.362260
     41          6           0       -3.764965   -3.917750    1.623043
     42          8           0       -4.251101   -3.814883    2.786116
     43          8           0       -2.823523   -4.775884    1.319200
     44          6           0       -2.200378   -5.267243    2.469068
     45          6           0        2.705760   -1.089237   -1.067217
     46          6           0        4.040156   -0.843240   -0.390897
     47          6           0        4.974446    0.109375   -0.883395
     48          6           0        4.851230    0.841765   -2.167118
     49          6           0        6.226299    0.377943   -0.118222
     50          6           0        7.485070   -0.183631   -0.812379
     51          6           0        8.823012    0.121894   -0.046415
     52          6           0       10.123114   -0.574357   -0.607077
     53          6           0       10.065715   -2.159832   -0.573099
     54          6           0       11.253613   -0.074346    0.229562
     55          6           0       12.619929   -0.377684   -0.295243
     56          6           0       13.838268    0.221847    0.397626
     57          6           0       15.229737   -0.187910   -0.162430
     58          6           0       15.517303   -1.783180   -0.143470
     59          6           0       16.403733    0.689983    0.397222
     60          6           0       17.825762    0.439248   -0.178966
     61          6           0       18.700997    1.714001    0.352388
     62          6           0       20.041995    1.551139   -0.198520
     63          6           0       20.253757    1.608225   -1.908892
     64          6           0       21.093303    2.526845    0.450758
     65          1           0       -4.127385    3.528596    1.772633
     66          1           0       -9.930434    4.270909   -0.273854
     67          1           0      -10.739138   -2.239049   -1.244774
     68          1           0       -3.073410   -1.495203    1.941100
     69          1           0       -2.385482    1.484311    1.598184
     70          1           0       -2.292123    0.165082    3.821244
     71          1           0       -3.096775    1.759919    4.052037
     72          1           0       -4.173262    0.184760    3.838801
     73          1           0       -1.907232   -1.822155   -0.436663
     74          1           0       -2.235488   -0.057310   -0.626617
     75          1           0       -0.446077    0.378448    1.173915
     76          1           0       -0.440334   -1.460007    1.525295
     77          1           0       -4.460547    5.795071    1.275916
     78          1           0       -5.883019    6.573327    1.658456
     79          1           0       -5.309760    5.770679    2.737219
     80          1           0       -8.333345    7.022264    1.377910
     81          1           0       -9.197852    6.160606   -1.699994
     82          1           0       -9.526388    7.651793   -0.681503
     83          1           0      -12.278595    3.855557   -0.475075
     84          1           0      -12.232173    3.568400   -2.375764
     85          1           0      -13.386710    2.532151   -1.352102
     86          1           0      -12.473983   -1.141176   -1.267624
     87          1           0      -13.602442    0.452949   -1.721396
     88          1           0      -12.465890    0.297126   -4.073747
     89          1           0      -11.542256   -1.003968   -3.449327
     90          1           0      -13.177549   -1.329966   -3.519354
     91          1           0       -9.685035   -5.169086   -0.399385
     92          1           0       -9.511200   -4.293638   -2.125475
     93          1           0       -8.071124   -5.520008   -1.645023
     94          1           0       -3.895504   -3.492986   -0.335238
     95          1           0       -1.462375   -6.069780    2.115212
     96          1           0       -1.789079   -4.522533    3.217098
     97          1           0       -2.858282   -6.045282    2.900526
     98          1           0        2.629203   -2.116820   -1.307101
     99          1           0        2.387757   -0.316148   -1.854934
    100          1           0        4.098063   -1.261162    0.685929
    101          1           0        5.200549    2.025450   -2.098256
    102          1           0        5.502210    0.437915   -3.004902
    103          1           0        3.702942    0.837994   -2.537991
    104          1           0        6.411750    1.428122    0.010896
    105          1           0        6.086957   -0.062696    0.998563
    106          1           0        7.562610   -1.252088   -0.719013
    107          1           0        7.506705    0.158122   -1.749997
    108          1           0        8.896773    1.283975   -0.206399
    109          1           0        8.417125   -0.235687    1.066140
    110          1           0       10.360529    0.047913   -1.717038
    111          1           0        9.219317   -2.715705   -1.081121
    112          1           0       10.923784   -2.462970   -1.078829
    113          1           0       10.205918   -2.411295    0.558922
    114          1           0       11.121474    1.055346    0.266578
    115          1           0       11.346494   -0.081890    1.358860
    116          1           0       12.971453   -1.493065   -0.222627
    117          1           0       12.494222   -0.228861   -1.545478
    118          1           0       13.920968    1.269832    0.720239
    119          1           0       13.780727   -0.147937    1.473930
    120          1           0       15.357943    0.160211   -1.265205
    121          1           0       14.822694   -2.226970   -0.856607
    122          1           0       16.654917   -1.870410   -0.545410
    123          1           0       15.518874   -2.349285    0.697911
    124          1           0       16.102446    1.743863    0.507157
    125          1           0       16.442069    0.443955    1.743463
    126          1           0       18.266095   -0.496993    0.131931
    127          1           0       17.701892    0.570599   -1.388862
    128          1           0       18.378679    2.728594   -0.293453
    129          1           0       18.438412    1.700121    1.604530
    130          1           0       20.500700    0.437796    0.192499
    131          1           0       19.891538    2.633252   -2.295660
    132          1           0       21.262535    1.643408   -2.450060
    133          1           0       19.728579    0.732153   -2.348767
    134          1           0       20.831869    2.421623    1.710477
    135          1           0       22.122084    2.072936    0.207307
    136          1           0       20.898704    3.624976    0.090639
    137          1           0       -7.711284    1.754005    0.628785
    138          1           0       -7.682198   -0.323239   -0.254778
 ---------------------------------------------------------------------

 SCF Done:  E(RB3LYP) =  -2732.89038073     A.U. after   16 cycles

 Excitation energies and oscillator strengths:

 Excited State   1:      Singlet-A      2.0861 eV  594.35 nm  f=0.1761  <S**2>=0.000
     235 -> 238       -0.29782
     236 -> 237        0.63605
 This state for optimization and/or second-order correction.
 Total Energy, E(TD-HF/TD-KS) =  -2732.81371959
 Copying the excited state density for this state as the 1-particle RhoCI density.

 The electronic state is 1-A.
 Alpha  occ. eigenvalues --  -19.20091 -19.18117 -19.14666 -19.12064 -19.11509
 Alpha  occ. eigenvalues --  -14.37987 -14.37307 -14.31708 -14.30975 -10.33937
 Alpha  occ. eigenvalues --  -10.32371 -10.28034 -10.25406 -10.24575 -10.24187
 Alpha  occ. eigenvalues --  -10.23931 -10.23865 -10.23367 -10.23322 -10.22803
 Alpha  occ. eigenvalues --  -10.22794 -10.22528 -10.22473 -10.22466 -10.22390
 Alpha  occ. eigenvalues --  -10.22217 -10.22070 -10.21910 -10.21697 -10.21614
 Alpha  occ. eigenvalues --  -10.21567 -10.21534 -10.21510 -10.21476 -10.21254
 Alpha  occ. eigenvalues --  -10.21174 -10.21041 -10.20842 -10.20764 -10.20679
 Alpha  occ. eigenvalues --  -10.20492 -10.20472 -10.20431 -10.20376 -10.20329
 Alpha  occ. eigenvalues --  -10.20323 -10.20310 -10.20290 -10.20260 -10.20161
 Alpha  occ. eigenvalues --  -10.20113 -10.19922 -10.19582 -10.19460 -10.19376
 Alpha  occ. eigenvalues --  -10.19238 -10.18839 -10.18565 -10.18549 -10.18425
 Alpha  occ. eigenvalues --  -10.18346 -10.17833 -10.17566 -10.17183  -1.12339
 Alpha  occ. eigenvalues --   -1.05906  -1.00728  -1.00543  -0.98740  -0.98061
 Alpha  occ. eigenvalues --   -0.97887  -0.95647  -0.93395  -0.84813  -0.82153
 Alpha  occ. eigenvalues --   -0.82033  -0.81228  -0.81170  -0.80651  -0.80221
 Alpha  occ. eigenvalues --   -0.79949  -0.79288  -0.78420  -0.78382  -0.77602
 Alpha  occ. eigenvalues --   -0.77030  -0.75647  -0.75376  -0.74405  -0.73891
 Alpha  occ. eigenvalues --   -0.73636  -0.72816  -0.71893  -0.71777  -0.70693
 Alpha  occ. eigenvalues --   -0.70341  -0.69328  -0.68656  -0.67617  -0.66951
 Alpha  occ. eigenvalues --   -0.66673  -0.66216  -0.65630  -0.65496  -0.64601
 Alpha  occ. eigenvalues --   -0.64185  -0.63369  -0.62548  -0.62451  -0.61052
 Alpha  occ. eigenvalues --   -0.60585  -0.59603  -0.58674  -0.58495  -0.57674
 Alpha  occ. eigenvalues --   -0.57374  -0.56652  -0.55972  -0.55406  -0.55346
 Alpha  occ. eigenvalues --   -0.54892  -0.54323  -0.54090  -0.52937  -0.52342
 Alpha  occ. eigenvalues --   -0.51979  -0.51755  -0.51523  -0.51017  -0.50325
 Alpha  occ. eigenvalues --   -0.50121  -0.49807  -0.49416  -0.48853  -0.48695
 Alpha  occ. eigenvalues --   -0.48353  -0.47936  -0.47431  -0.46908  -0.46566
 Alpha  occ. eigenvalues --   -0.46361  -0.46204  -0.46159  -0.45914  -0.45781
 Alpha  occ. eigenvalues --   -0.45294  -0.44970  -0.44801  -0.44435  -0.44417
 Alpha  occ. eigenvalues --   -0.44150  -0.43568  -0.43475  -0.43262  -0.42978
 Alpha  occ. eigenvalues --   -0.42887  -0.42827  -0.42698  -0.42462  -0.42374
 Alpha  occ. eigenvalues --   -0.42280  -0.41833  -0.41523  -0.41452  -0.41332
 Alpha  occ. eigenvalues --   -0.40904  -0.40770  -0.40356  -0.40242  -0.40213
 Alpha  occ. eigenvalues --   -0.40053  -0.39959  -0.39541  -0.39339  -0.39092
 Alpha  occ. eigenvalues --   -0.39053  -0.38772  -0.38456  -0.38386  -0.38192
 Alpha  occ. eigenvalues --   -0.38097  -0.37641  -0.37554  -0.37437  -0.37228
 Alpha  occ. eigenvalues --   -0.36875  -0.36837  -0.36776  -0.36590  -0.36201
 Alpha  occ. eigenvalues --   -0.36124  -0.35974  -0.35943  -0.35766  -0.35713
 Alpha  occ. eigenvalues --   -0.35664  -0.35325  -0.34855  -0.34791  -0.34712
 Alpha  occ. eigenvalues --   -0.34530  -0.34281  -0.34167  -0.34042  -0.33824
 Alpha  occ. eigenvalues --   -0.33675  -0.33323  -0.32586  -0.32492  -0.32482
 Alpha  occ. eigenvalues --   -0.31994  -0.31542  -0.31458  -0.31434  -0.30526
 Alpha  occ. eigenvalues --   -0.30420  -0.30320  -0.29938  -0.29720  -0.29463
 Alpha  occ. eigenvalues --   -0.28964  -0.28733  -0.28612  -0.28396  -0.28119
 Alpha  occ. eigenvalues --   -0.27526  -0.27499  -0.26755  -0.26726  -0.25867
 Alpha  occ. eigenvalues --   -0.24439  -0.24205  -0.23879  -0.23228  -0.20226
 Alpha  occ. eigenvalues --   -0.18733
 Alpha virt. eigenvalues --   -0.09920  -0.07980  -0.05052  -0.04783  -0.02923
 Alpha virt. eigenvalues --   -0.02126  -0.01313   0.00153   0.01902   0.03049
 Alpha virt. eigenvalues --    0.03074   0.03137   0.03244   0.04089   0.04234

 Mulliken charges:
               1
     1  C    0.042849
     2  C   -0.087898
     3  C   -0.067735
     4  C   -0.095410
     5  N   -0.156929
     6  C   -0.155110
     7  C    0.078654
     8  C   -0.091068
     9  C    0.032330
    10  C   -0.005009
    11  C    0.039525
    12  C   -0.084248
    13  C    0.291860
    14  O   -0.305205
    15  O   -0.369153
    16  N    0.022590
    17  C    0.107594
    18  C   -0.192425
    19  C    0.061450
    20  C   -0.010357
    21  C    0.221582
    22  C   -0.046945
    23  C   -0.110878
    24  N   -0.281974
    25  C    0.052711
    26  C   -0.070542
    27  C   -0.085534
    28  C    0.015852
    29  C   -0.027218
    30  C   -0.010310
    31  C    0.091272
    32  N    0.067946
    33  C    0.034984
    34  C   -0.154746
    35  C    0.046684
    36  C   -0.009306
    37  C    0.002322
    38  C    0.073137
    39  O   -0.256842
    40  C    0.190052
    41  C    0.165156
    42  O   -0.286833
    43  O   -0.230985
    44  C    0.157685
    45  C    0.283133
    46  C   -0.117513
    47  C   -0.110912
    48  C   -0.034133
    49  C    0.061334
    50  C    0.084668
    51  C   -0.070722
    52  C   -0.090813
    53  C    0.042135
    54  C    0.034489
    55  C   -0.012254
    56  C    0.050685
    57  C   -0.068811
    58  C    0.019199
    59  C   -0.059224
    60  C    0.003242
    61  C   -0.041072
    62  C   -0.138457
    63  C   -0.045507
    64  C   -0.031179
    65  H   -0.003994
    66  H   -0.025940
    67  H    0.036277
    68  H   -0.009421
    69  H    0.014266
    70  H    0.019117
    71  H    0.040594
    72  H    0.040924
    73  H    0.038859
    74  H    0.025529
    75  H    0.069666
    76  H    0.062359
    77  H    0.020573
    78  H   -0.071859
    79  H   -0.009262
    80  H    0.040991
    81  H    0.067612
    82  H    0.028207
    83  H    0.054655
    84  H    0.039666
    85  H    0.015775
    86  H    0.003131
    87  H    0.031328
    88  H    0.025084
    89  H   -0.029459
    90  H    0.006105
    91  H    0.068920
    92  H    0.045048
    93  H    0.079961
    94  H   -0.063357
    95  H    0.022099
    96  H    0.057470
    97  H    0.031941
    98  H    0.003712
    99  H    0.051272
   100  H    0.026921
   101  H    0.035877
   102  H    0.053597
   103  H    0.034650
   104  H   -0.012205
   105  H    0.006021
   106  H   -0.014214
   107  H   -0.041436
   108  H    0.008780
   109  H    0.019828
   110  H    0.023328
   111  H    0.036380
   112  H   -0.001628
   113  H    0.032069
   114  H   -0.014520
   115  H   -0.012641
   116  H    0.013146
   117  H   -0.000198
   118  H   -0.026291
   119  H   -0.011685
   120  H    0.004894
   121  H    0.021374
   122  H    0.014172
   123  H   -0.005437
   124  H    0.011602
   125  H   -0.029318
   126  H    0.026749
   127  H    0.032344
   128  H    0.023639
   129  H    0.056054
   130  H    0.003848
   131  H    0.018229
   132  H    0.024280
   133  H    0.033934
   134  H    0.022573
   135  H    0.037451
   136  H    0.029533
   137  H    0.182642
   138  H    0.145946
 Sum of Mulliken charges =   0.00000

 Dipole moment (field-independent basis, Debye):
    X=              2.3609    Y=              4.6400    Z=              0.3489  Tot=              5.2177
 Quadrupole moment (field-independent basis, Debye-Ang):
   XX=           -368.1606   YY=           -384.5121   ZZ=           -397.7908
   XY=            -35.5864   XZ=              2.2077   YZ=              4.9073

 Normal termination of Gaussian 09 at Mon Aug  5 04:42:29 2019.
