 Gaussian 09, Revision D.01,
 Gaussian 09:  ES64L-G09RevD.01 24-Apr-2013

 --------------------------
 # td=(NStates=1) B3LYP/SVP
 --------------------------

 --
 TD
 --
 Symbolic Z-matrix:
 Charge =  0 Multiplicity = 1

                         Standard orientation:
 ---------------------------------------------------------------------
 Center     Atomic      Atomic             Coordinates (Angstroms)
 Number     Number       Type             X           Y           Z
 ---------------------------------------------------------------------
      1          6           0       -5.156840   -1.874201    0.569306
      2          6           0       -4.837695    2.857850    1.554513
      3          6           0       -9.301804    3.206968   -0.241826
      4          6           0       -9.889050   -1.486886   -0.995570
      5          7           0       -5.170622    0.549571    0.799632
      6          6           0       -4.546720   -0.698565    0.847418
      7          6           0       -3.069530   -0.517286    1.298980
      8          6           0       -3.096308    0.970514    1.919705
      9          6           0       -4.372666    1.486431    1.410036
     10          6           0       -2.936593    1.015342    3.375462
     11          6           0       -2.018751   -0.678420    0.158402
     12          6           0       -0.537297   -0.580455    0.454674
     13          6           0        0.486064   -0.971008   -0.638036
     14          8           0        0.104392   -1.358586   -1.710730
     15          8           0        1.769753   -0.829499   -0.210408
     16          7           0       -7.016548    2.785640    0.547565
     17          6           0       -5.991873    3.407410    1.132215
     18          6           0       -6.300322    4.805345    1.051444
     19          6           0       -7.524113    4.981774    0.498916
     20          6           0       -8.089265    3.668336    0.205875
     21          6           0       -5.352253    5.791146    1.654080
     22          6           0       -8.068727    6.300960    0.306210
     23          6           0       -9.004659    6.674547   -0.619557
     24          7           0       -9.190946    0.878597   -0.497727
     25          6           0       -9.860446    2.017256   -0.641120
     26          6           0      -11.202533    1.794172   -1.134035
     27          6           0      -11.329942    0.461505   -1.333041
     28          6           0      -10.191622   -0.161546   -0.927475
     29          6           0      -12.237862    2.885862   -1.401723
     30          6           0      -12.627142   -0.229918   -1.845530
     31          6           0      -12.439232   -0.704654   -3.312663
     32          7           0       -7.567803   -1.277054   -0.267194
     33          6           0       -8.617605   -2.085813   -0.616215
     34          6           0       -8.137976   -3.455510   -0.614632
     35          6           0       -6.810379   -3.351939   -0.225975
     36          6           0       -6.476210   -2.022833   -0.009204
     37          6           0       -8.928564   -4.653817   -0.966143
     38          6           0       -5.759084   -4.236536    0.117402
     39          8           0       -5.717406   -5.449466   -0.044718
     40          6           0       -4.548994   -3.410810    0.600014
     41          6           0       -3.942412   -3.708055    1.936917
     42          8           0       -4.179413   -3.170010    3.006368
     43          8           0       -3.117992   -4.747363    1.897989
     44          6           0       -2.577455   -5.316546    3.073885
     45          6           0        2.766199   -1.320133   -1.145655
     46          6           0        3.968088   -0.749854   -0.561114
     47          6           0        5.022302   -0.052908   -1.147273
     48          6           0        4.955098    0.540508   -2.549650
     49          6           0        6.312156    0.259887   -0.430988
     50          6           0        7.528124   -0.455910   -1.047805
     51          6           0        8.770768   -0.186721   -0.157928
     52          6           0       10.037036   -0.902624   -0.812999
     53          6           0        9.987553   -2.342700   -1.020862
     54          6           0       11.199373   -0.508290    0.005854
     55          6           0       12.607043   -0.690293   -0.628789
     56          6           0       13.720709   -0.008359    0.139946
     57          6           0       15.180391   -0.086279   -0.455043
     58          6           0       15.548896   -1.608830   -0.857255
     59          6           0       16.220061    0.621468    0.449539
     60          6           0       17.637928    0.838864   -0.242691
     61          6           0       18.570489    1.687746    0.660804
     62          6           0       20.008830    1.694336    0.290510
     63          6           0       20.192796    2.168255   -1.215742
     64          6           0       20.890431    2.443443    1.266188
     65          1           0       -3.956020    3.381980    1.768375
     66          1           0       -9.965506    4.060855   -0.361999
     67          1           0      -10.621060   -2.290595   -1.362676
     68          1           0       -2.840118   -1.164805    2.176887
     69          1           0       -2.522112    1.486320    1.336372
     70          1           0       -1.822100    0.864247    3.619720
     71          1           0       -3.082519    1.976524    3.738539
     72          1           0       -3.653611    0.501397    3.784126
     73          1           0       -2.091870   -1.676598   -0.223239
     74          1           0       -2.303546    0.223281   -0.579723
     75          1           0       -0.265915    0.274807    1.045983
     76          1           0       -0.380602   -1.409032    1.291665
     77          1           0       -4.474089    5.893051    1.026183
     78          1           0       -5.869211    6.796083    1.556169
     79          1           0       -5.078597    5.429492    2.663070
     80          1           0       -7.628368    7.047989    1.074698
     81          1           0       -9.480439    6.201088   -1.474035
     82          1           0       -9.355268    7.706913   -0.607262
     83          1           0      -12.500888    3.466494   -0.340550
     84          1           0      -11.755241    3.559313   -2.191340
     85          1           0      -13.300791    2.509249   -1.958477
     86          1           0      -12.867661   -0.897038   -1.034440
     87          1           0      -13.341614    0.566274   -1.714352
     88          1           0      -12.171187    0.164575   -4.096336
     89          1           0      -11.810724   -1.729996   -3.661986
     90          1           0      -13.524598   -1.045610   -3.569173
     91          1           0       -9.878267   -4.888640   -0.350540
     92          1           0       -9.349871   -4.666212   -2.108974
     93          1           0       -8.076611   -5.441114   -0.679367
     94          1           0       -3.893501   -3.466301   -0.253331
     95          1           0       -2.099462   -6.284923    2.974900
     96          1           0       -1.923523   -4.640681    3.525680
     97          1           0       -3.447944   -5.538188    3.723448
     98          1           0        2.712436   -2.299553   -1.265598
     99          1           0        2.846238   -0.867048   -2.180680
    100          1           0        4.392221   -1.005389    0.531703
    101          1           0        5.435063    1.544640   -2.700130
    102          1           0        5.629864   -0.020833   -3.288209
    103          1           0        3.954551    0.571127   -2.929853
    104          1           0        6.369747    1.460266   -0.283284
    105          1           0        6.177270   -0.155534    0.568335
    106          1           0        7.254932   -1.614350   -1.037863
    107          1           0        7.675159   -0.186142   -2.107813
    108          1           0        8.914695    0.809527    0.177088
    109          1           0        8.442757   -0.465496    0.775301
    110          1           0       10.270116   -0.196825   -1.724336
    111          1           0        9.185066   -2.748168   -1.812122
    112          1           0       10.921600   -2.652662   -1.559483
    113          1           0        9.881783   -2.924644   -0.061743
    114          1           0       11.225502    0.373474    0.381874
    115          1           0       11.248102   -0.913163    1.126989
    116          1           0       12.866521   -1.748284   -0.674562
    117          1           0       12.593232   -0.457241   -1.785205
    118          1           0       13.454585    1.102095    0.276582
    119          1           0       13.753886   -0.500141    1.011006
    120          1           0       15.296847    0.431971   -1.396194
    121          1           0       14.980723   -1.928625   -1.713884
    122          1           0       16.657507   -1.653361   -1.271557
    123          1           0       15.724368   -2.317774    0.090811
    124          1           0       15.839235    1.689055    0.967636
    125          1           0       16.278878   -0.121014    1.337098
    126          1           0       18.207743   -0.109444   -0.491731
    127          1           0       17.518057    1.425554   -1.203016
    128          1           0       18.335131    2.765122    0.731401
    129          1           0       18.506669    1.198459    1.624290
    130          1           0       20.187233    0.638136    0.330971
    131          1           0       19.873692    3.301354   -1.110713
    132          1           0       21.189092    2.141226   -1.551892
    133          1           0       19.519417    1.671606   -2.008767
    134          1           0       20.882874    2.183217    2.297376
    135          1           0       21.924163    2.190650    0.975403
    136          1           0       20.741472    3.603111    1.169642
    137          1           0       -7.113493    1.818517    0.316310
    138          1           0       -7.645796   -0.254882    0.056326
 ---------------------------------------------------------------------

 SCF Done:  E(RB3LYP) =  -2733.12773857     A.U. after   17 cycles

 Excitation energies and oscillator strengths:

 Excited State   1:      Singlet-A      2.1643 eV  572.85 nm  f=0.1532  <S**2>=0.000
     235 -> 237       -0.13026
     235 -> 238        0.29335
     236 -> 237        0.62335
 This state for optimization and/or second-order correction.
 Total Energy, E(TD-HF/TD-KS) =  -2733.04820063
 Copying the excited state density for this state as the 1-particle RhoCI density.

 The electronic state is 1-A.
 Alpha  occ. eigenvalues --  -19.18363 -19.17280 -19.12723 -19.11628 -19.11380
 Alpha  occ. eigenvalues --  -14.36742 -14.35801 -14.31880 -14.29926 -10.31913
 Alpha  occ. eigenvalues --  -10.31744 -10.26973 -10.24608 -10.24095 -10.23981
 Alpha  occ. eigenvalues --  -10.23240 -10.23012 -10.22701 -10.22664 -10.22312
 Alpha  occ. eigenvalues --  -10.22178 -10.21825 -10.21658 -10.21619 -10.21262
 Alpha  occ. eigenvalues --  -10.20998 -10.20698 -10.20650 -10.20627 -10.20621
 Alpha  occ. eigenvalues --  -10.20584 -10.20460 -10.20433 -10.20280 -10.20230
 Alpha  occ. eigenvalues --  -10.20144 -10.20114 -10.20034 -10.19980 -10.19778
 Alpha  occ. eigenvalues --  -10.19776 -10.19734 -10.19663 -10.19662 -10.19405
 Alpha  occ. eigenvalues --  -10.19359 -10.19307 -10.19286 -10.19212 -10.19192
 Alpha  occ. eigenvalues --  -10.18637 -10.18476 -10.18387 -10.18288 -10.18251
 Alpha  occ. eigenvalues --  -10.18234 -10.18166 -10.17750 -10.17612 -10.17530
 Alpha  occ. eigenvalues --  -10.17476 -10.17457 -10.17069 -10.17051  -1.09907
 Alpha  occ. eigenvalues --   -1.09315  -1.01746  -1.01482  -0.99591  -0.98310
 Alpha  occ. eigenvalues --   -0.98057  -0.92846  -0.92611  -0.84102  -0.82809
 Alpha  occ. eigenvalues --   -0.82607  -0.81727  -0.81503  -0.81195  -0.80900
 Alpha  occ. eigenvalues --   -0.79850  -0.79484  -0.79356  -0.78561  -0.78072
 Alpha  occ. eigenvalues --   -0.77169  -0.75944  -0.75588  -0.74947  -0.74223
 Alpha  occ. eigenvalues --   -0.73455  -0.73253  -0.72645  -0.71471  -0.70901
 Alpha  occ. eigenvalues --   -0.70204  -0.69889  -0.68808  -0.68326  -0.67324
 Alpha  occ. eigenvalues --   -0.67054  -0.67000  -0.66011  -0.65960  -0.65227
 Alpha  occ. eigenvalues --   -0.64329  -0.63617  -0.62516  -0.62031  -0.61707
 Alpha  occ. eigenvalues --   -0.61332  -0.59118  -0.58651  -0.58372  -0.57671
 Alpha  occ. eigenvalues --   -0.57394  -0.56804  -0.56759  -0.56313  -0.55473
 Alpha  occ. eigenvalues --   -0.54793  -0.54602  -0.54308  -0.53474  -0.53013
 Alpha  occ. eigenvalues --   -0.52347  -0.51807  -0.51538  -0.50821  -0.50740
 Alpha  occ. eigenvalues --   -0.50261  -0.49602  -0.49213  -0.49024  -0.48334
 Alpha  occ. eigenvalues --   -0.47980  -0.47947  -0.47620  -0.47609  -0.47278
 Alpha  occ. eigenvalues --   -0.47149  -0.46444  -0.46145  -0.45751  -0.45548
 Alpha  occ. eigenvalues --   -0.45518  -0.45286  -0.45071  -0.44678  -0.44108
 Alpha  occ. eigenvalues --   -0.44036  -0.43927  -0.43693  -0.43654  -0.43451
 Alpha  occ. eigenvalues --   -0.43236  -0.43045  -0.42820  -0.42681  -0.42568
 Alpha  occ. eigenvalues --   -0.42078  -0.41873  -0.41697  -0.41589  -0.41466
 Alpha  occ. eigenvalues --   -0.41338  -0.40922  -0.40788  -0.40256  -0.40046
 Alpha  occ. eigenvalues --   -0.39947  -0.39603  -0.39421  -0.39383  -0.39177
 Alpha  occ. eigenvalues --   -0.39126  -0.38976  -0.38838  -0.38748  -0.38401
 Alpha  occ. eigenvalues --   -0.38126  -0.38002  -0.37880  -0.37743  -0.37519
 Alpha  occ. eigenvalues --   -0.37371  -0.36984  -0.36960  -0.36680  -0.36646
 Alpha  occ. eigenvalues --   -0.36599  -0.36256  -0.36135  -0.35875  -0.35448
 Alpha  occ. eigenvalues --   -0.35149  -0.35071  -0.34673  -0.34507  -0.34449
 Alpha  occ. eigenvalues --   -0.34311  -0.34036  -0.34025  -0.33980  -0.33778
 Alpha  occ. eigenvalues --   -0.33708  -0.33177  -0.32801  -0.32365  -0.32262
 Alpha  occ. eigenvalues --   -0.31874  -0.31771  -0.31732  -0.31339  -0.31321
 Alpha  occ. eigenvalues --   -0.31193  -0.31097  -0.30982  -0.30641  -0.30311
 Alpha  occ. eigenvalues --   -0.29988  -0.29608  -0.28760  -0.28084  -0.27806
 Alpha  occ. eigenvalues --   -0.27530  -0.27299  -0.26699  -0.26236  -0.25625
 Alpha  occ. eigenvalues --   -0.24575  -0.24244  -0.24002  -0.22618  -0.19815
 Alpha  occ. eigenvalues --   -0.19046
 Alpha virt. eigenvalues --   -0.09890  -0.07527  -0.04156  -0.02074  -0.00921
 Alpha virt. eigenvalues --   -0.00432   0.00404   0.00509   0.02557   0.03505
 Alpha virt. eigenvalues --    0.04307   0.04396   0.04526   0.04790   0.05028

 Mulliken charges:
               1
     1  C   -0.048405
     2  C   -0.081881
     3  C   -0.040589
     4  C   -0.103657
     5  N   -0.214449
     6  C   -0.045148
     7  C   -0.100033
     8  C    0.111508
     9  C   -0.146447
    10  C    0.231123
    11  C    0.086776
    12  C   -0.011858
    13  C    0.193879
    14  O   -0.216874
    15  O   -0.315717
    16  N   -0.065448
    17  C    0.195483
    18  C   -0.185066
    19  C    0.093170
    20  C    0.049809
    21  C    0.147844
    22  C   -0.084655
    23  C   -0.039615
    24  N   -0.297088
    25  C    0.061651
    26  C   -0.089598
    27  C   -0.125276
    28  C    0.136502
    29  C   -0.026112
    30  C    0.162480
    31  C   -0.083120
    32  N   -0.040267
    33  C    0.009880
    34  C   -0.083672
    35  C   -0.003160
    36  C    0.086837
    37  C   -0.045823
    38  C    0.025241
    39  O   -0.190065
    40  C    0.036682
    41  C    0.213086
    42  O   -0.240460
    43  O   -0.286024
    44  C    0.220383
    45  C    0.364280
    46  C   -0.104681
    47  C   -0.188888
    48  C    0.045378
    49  C    0.053226
    50  C   -0.018269
    51  C    0.089647
    52  C   -0.019460
    53  C    0.037966
    54  C    0.086591
    55  C   -0.007757
    56  C    0.088577
    57  C   -0.043573
    58  C   -0.043238
    59  C   -0.035233
    60  C   -0.003268
    61  C    0.043350
    62  C   -0.085009
    63  C   -0.012036
    64  C    0.048487
    65  H   -0.043828
    66  H   -0.047812
    67  H    0.005222
    68  H    0.013044
    69  H   -0.083954
    70  H    0.018276
    71  H   -0.034788
    72  H   -0.018109
    73  H    0.005258
    74  H    0.026084
    75  H    0.009772
    76  H    0.026605
    77  H    0.020337
    78  H    0.005933
    79  H    0.043868
    80  H    0.034188
    81  H    0.031405
    82  H    0.017160
    83  H    0.058663
    84  H    0.041607
    85  H    0.044456
    86  H    0.004509
    87  H   -0.022928
    88  H    0.046693
    89  H    0.051557
    90  H    0.020706
    91  H    0.040948
    92  H    0.050654
    93  H    0.072338
    94  H    0.059062
    95  H    0.029835
    96  H    0.010449
    97  H    0.024123
    98  H   -0.011378
    99  H    0.018205
   100  H    0.000965
   101  H    0.012514
   102  H    0.026262
   103  H    0.014896
   104  H    0.029712
   105  H   -0.018220
   106  H    0.024186
   107  H    0.003066
   108  H   -0.034420
   109  H   -0.056633
   110  H    0.008676
   111  H    0.020159
   112  H    0.011300
   113  H    0.023378
   114  H   -0.095789
   115  H   -0.035226
   116  H   -0.003476
   117  H   -0.007928
   118  H    0.004805
   119  H   -0.037940
   120  H   -0.021683
   121  H    0.027142
   122  H    0.005274
   123  H    0.027187
   124  H    0.025700
   125  H    0.001352
   126  H    0.013010
   127  H    0.012878
   128  H   -0.014407
   129  H   -0.017692
   130  H   -0.028173
   131  H    0.007311
   132  H    0.000922
   133  H    0.030984
   134  H   -0.000478
   135  H    0.001989
   136  H    0.016409
   137  H    0.117715
   138  H    0.188191
 Sum of Mulliken charges =   0.00000

 Dipole moment (field-independent basis, Debye):
    X=              3.0737    Y=              4.4077    Z=              0.7202  Tot=              5.4216
 Quadrupole moment (field-independent basis, Debye-Ang):
   XX=           -337.7675   YY=           -384.7709   ZZ=           -392.2350
   XY=            -33.2293   XZ=             10.0560   YZ=             -2.8631

 Normal termination of Gaussian 09 at Tue Jul 30 15:53:43 2019.
