 Gaussian 09, Revision D.01,
 Gaussian 09:  ES64L-G09RevD.01 24-Apr-2013

 --------------------------
 # td=(NStates=1) B3LYP/SVP
 --------------------------

 --
 TD
 --
 Symbolic Z-matrix:
 Charge =  0 Multiplicity = 1

                         Standard orientation:
 ---------------------------------------------------------------------
 Center     Atomic      Atomic             Coordinates (Angstroms)
 Number     Number       Type             X           Y           Z
 ---------------------------------------------------------------------
      1          6           0       -5.102339   -1.977642    0.579824
      2          6           0       -4.789655    2.668743    1.398025
      3          6           0       -9.353939    3.411003   -0.121361
      4          6           0       -9.729317   -1.286426   -1.093932
      5          7           0       -5.132621    0.433294    0.856931
      6          6           0       -4.473099   -0.792219    0.887919
      7          6           0       -3.030579   -0.598977    1.361706
      8          6           0       -3.044976    0.899485    1.836514
      9          6           0       -4.420973    1.410462    1.352658
     10          6           0       -2.841010    1.000156    3.306751
     11          6           0       -2.007027   -0.779632    0.228936
     12          6           0       -0.507523   -0.794069    0.630952
     13          6           0        0.446468   -1.117974   -0.479426
     14          8           0        0.087996   -1.699011   -1.395523
     15          8           0        1.625930   -0.698311   -0.247781
     16          7           0       -7.102755    2.762821    0.518693
     17          6           0       -5.936033    3.317240    0.994341
     18          6           0       -6.264361    4.736647    1.001370
     19          6           0       -7.524685    4.967025    0.553899
     20          6           0       -8.030989    3.643292    0.184529
     21          6           0       -5.232944    5.742819    1.360871
     22          6           0       -8.119457    6.286460    0.453314
     23          6           0       -9.126686    6.630700   -0.389075
     24          7           0       -9.214295    0.992257   -0.555428
     25          6           0       -9.917143    2.159180   -0.569424
     26          6           0      -11.347791    1.947078   -0.986256
     27          6           0      -11.347919    0.521391   -1.245339
     28          6           0      -10.052892    0.049924   -0.976543
     29          6           0      -12.460902    2.961284   -1.043521
     30          6           0      -12.541128   -0.194201   -1.713980
     31          6           0      -12.606085   -0.366452   -3.296212
     32          7           0       -7.416681   -1.281466   -0.224959
     33          6           0       -8.516413   -2.000203   -0.685708
     34          6           0       -8.172417   -3.386381   -0.717108
     35          6           0       -6.770467   -3.351730   -0.211536
     36          6           0       -6.416722   -2.036667    0.125177
     37          6           0       -8.975729   -4.546053   -1.139607
     38          6           0       -5.664802   -4.253406    0.033186
     39          8           0       -5.571181   -5.480547   -0.036626
     40          6           0       -4.509172   -3.354820    0.487048
     41          6           0       -3.903246   -3.825775    1.735932
     42          8           0       -4.281897   -3.501709    2.837144
     43          8           0       -2.976403   -4.850506    1.631815
     44          6           0       -2.522462   -5.379621    2.914944
     45          6           0        2.629586   -1.102042   -1.101593
     46          6           0        3.992127   -0.637518   -0.638771
     47          6           0        5.030033   -0.063985   -1.294578
     48          6           0        4.946741    0.504466   -2.721787
     49          6           0        6.306240    0.189282   -0.467769
     50          6           0        7.549420   -0.552147   -1.135385
     51          6           0        8.800030   -0.227138   -0.323737
     52          6           0       10.081413   -0.954475   -0.937726
     53          6           0        9.946394   -2.397344   -0.984260
     54          6           0       11.244546   -0.470530   -0.006924
     55          6           0       12.586568   -0.616935   -0.595880
     56          6           0       13.764992   -0.154785    0.299666
     57          6           0       15.192273   -0.236619   -0.267458
     58          6           0       15.599721   -1.668475   -0.461622
     59          6           0       16.222241    0.572734    0.500540
     60          6           0       17.652439    0.633444   -0.044804
     61          6           0       18.494664    1.845328    0.596403
     62          6           0       19.906631    1.885702    0.084074
     63          6           0       19.914322    2.413546   -1.312426
     64          6           0       20.833217    2.901256    1.033579
     65          1           0       -4.241855    3.382163    2.135825
     66          1           0       -9.955967    4.218224   -0.327374
     67          1           0      -10.557062   -1.763336   -1.356397
     68          1           0       -2.821736   -1.592958    2.146605
     69          1           0       -2.403390    1.309519    1.247205
     70          1           0       -1.838864    0.848133    3.546647
     71          1           0       -2.824973    2.107295    3.568818
     72          1           0       -3.341757    0.170336    3.897322
     73          1           0       -2.113238   -1.895640   -0.226136
     74          1           0       -2.137913   -0.080431   -0.719554
     75          1           0       -0.220566    0.133626    1.141960
     76          1           0       -0.338665   -1.507091    1.516211
     77          1           0       -4.636051    5.736530    0.471106
     78          1           0       -5.613309    6.779450    1.500708
     79          1           0       -4.368548    5.693291    2.276862
     80          1           0       -7.724733    7.111807    1.090419
     81          1           0       -9.369868    5.910630   -1.138816
     82          1           0       -9.573902    7.535056   -0.083164
     83          1           0      -12.681876    3.485578    0.004566
     84          1           0      -12.196146    3.799994   -1.734398
     85          1           0      -13.551016    2.536196   -1.227955
     86          1           0      -12.830024   -1.235558   -1.097557
     87          1           0      -13.512487    0.389566   -1.301026
     88          1           0      -12.933446    0.637105   -3.868981
     89          1           0      -11.657116   -0.900300   -3.560272
     90          1           0      -13.442936   -0.897683   -3.598008
     91          1           0      -10.217244   -4.529566   -0.903910
     92          1           0       -8.918958   -4.755018   -2.486768
     93          1           0       -8.504103   -5.501776   -0.651509
     94          1           0       -3.805514   -3.381751   -0.297911
     95          1           0       -1.638869   -6.032828    2.902206
     96          1           0       -2.202320   -4.744441    3.667689
     97          1           0       -3.296014   -6.089447    3.420502
     98          1           0        2.662647   -2.085287   -1.323120
     99          1           0        2.325854   -0.512717   -2.113559
    100          1           0        4.276826   -1.018042    0.461136
    101          1           0        5.013278    1.707877   -2.772551
    102          1           0        5.814582    0.350732   -3.287680
    103          1           0        4.082470    0.092563   -3.048704
    104          1           0        6.612029    1.161728   -0.275295
    105          1           0        6.337671   -0.192914    0.463299
    106          1           0        7.364088   -1.676781   -1.121070
    107          1           0        7.696811   -0.265695   -2.236193
    108          1           0        8.870912    0.929007   -0.168365
    109          1           0        8.773488   -0.350188    0.690018
    110          1           0       10.419685   -0.607490   -1.999720
    111          1           0        8.963801   -2.611148   -1.530455
    112          1           0       10.923095   -2.846873   -1.538203
    113          1           0        9.569517   -2.830579   -0.070984
    114          1           0       11.326769    0.601105    0.342646
    115          1           0       11.160783   -1.169966    0.923231
    116          1           0       12.803508   -1.886164   -0.638726
    117          1           0       12.834669   -0.281437   -1.559842
    118          1           0       13.446581    1.152794    0.366515
    119          1           0       13.631652   -0.575720    1.463872
    120          1           0       15.167708    0.261091   -1.114256
    121          1           0       14.851544   -2.184864   -1.101416
    122          1           0       16.501882   -1.699176   -0.987964
    123          1           0       15.678785   -2.109229    0.594165
    124          1           0       15.785971    1.656857    0.737473
    125          1           0       16.438663    0.255101    1.729167
    126          1           0       18.458983   -0.200443    0.235611
    127          1           0       17.679234    0.782638   -1.021097
    128          1           0       17.870617    2.811643    0.468471
    129          1           0       18.396262    1.835707    1.672342
    130          1           0       20.448871    0.972075    0.386086
    131          1           0       19.476555    3.451597   -1.353160
    132          1           0       21.058768    2.323351   -1.622399
    133          1           0       19.375789    1.633043   -2.016333
    134          1           0       20.771487    2.756056    2.056223
    135          1           0       21.965720    2.538089    0.824892
    136          1           0       20.830044    4.014217    1.018652
    137          1           0       -7.257607    1.779890    0.403875
    138          1           0       -7.225720   -0.393236   -0.240847
 ---------------------------------------------------------------------

 SCF Done:  E(RB3LYP) =  -2732.97687219     A.U. after   17 cycles

 Excitation energies and oscillator strengths:

 Excited State   1:      Singlet-A      2.1601 eV  573.97 nm  f=0.1452  <S**2>=0.000
     235 -> 237        0.43251
     235 -> 238        0.24783
     236 -> 237       -0.42766
     236 -> 238        0.24901
 This state for optimization and/or second-order correction.
 Total Energy, E(TD-HF/TD-KS) =  -2732.89748946
 Copying the excited state density for this state as the 1-particle RhoCI density.

 The electronic state is 1-A.
 Alpha  occ. eigenvalues --  -19.18573 -19.17403 -19.11865 -19.11737 -19.11255
 Alpha  occ. eigenvalues --  -14.37254 -14.36836 -14.31809 -14.29244 -10.31240
 Alpha  occ. eigenvalues --  -10.30500 -10.27099 -10.25591 -10.24501 -10.24401
 Alpha  occ. eigenvalues --  -10.23823 -10.23818 -10.23415 -10.22893 -10.22793
 Alpha  occ. eigenvalues --  -10.22386 -10.22088 -10.21924 -10.21585 -10.21371
 Alpha  occ. eigenvalues --  -10.21315 -10.21204 -10.21121 -10.21078 -10.21044
 Alpha  occ. eigenvalues --  -10.20845 -10.20768 -10.20670 -10.20396 -10.20370
 Alpha  occ. eigenvalues --  -10.20307 -10.20218 -10.20030 -10.19969 -10.19963
 Alpha  occ. eigenvalues --  -10.19914 -10.19823 -10.19801 -10.19717 -10.19580
 Alpha  occ. eigenvalues --  -10.19398 -10.19344 -10.19302 -10.19218 -10.19200
 Alpha  occ. eigenvalues --  -10.19163 -10.18908 -10.18896 -10.18849 -10.18837
 Alpha  occ. eigenvalues --  -10.18762 -10.18621 -10.18582 -10.18342 -10.18313
 Alpha  occ. eigenvalues --  -10.18050 -10.18032 -10.17954 -10.17531  -1.14429
 Alpha  occ. eigenvalues --   -1.08154  -1.04604  -1.01227  -1.00385  -1.00029
 Alpha  occ. eigenvalues --   -0.99235  -0.94643  -0.93860  -0.86214  -0.82910
 Alpha  occ. eigenvalues --   -0.82710  -0.82136  -0.82056  -0.81329  -0.80915
 Alpha  occ. eigenvalues --   -0.80471  -0.79935  -0.79699  -0.78585  -0.78418
 Alpha  occ. eigenvalues --   -0.77417  -0.76519  -0.76001  -0.75288  -0.74371
 Alpha  occ. eigenvalues --   -0.73736  -0.73324  -0.72695  -0.72548  -0.71075
 Alpha  occ. eigenvalues --   -0.70151  -0.69862  -0.69185  -0.68701  -0.67752
 Alpha  occ. eigenvalues --   -0.67236  -0.66858  -0.66774  -0.66298  -0.65562
 Alpha  occ. eigenvalues --   -0.64412  -0.63630  -0.63170  -0.62173  -0.61570
 Alpha  occ. eigenvalues --   -0.61273  -0.59629  -0.59343  -0.58657  -0.58172
 Alpha  occ. eigenvalues --   -0.57365  -0.56668  -0.56498  -0.56043  -0.55718
 Alpha  occ. eigenvalues --   -0.55583  -0.55510  -0.54633  -0.54571  -0.53673
 Alpha  occ. eigenvalues --   -0.53128  -0.52801  -0.52256  -0.51897  -0.51765
 Alpha  occ. eigenvalues --   -0.51165  -0.49657  -0.49295  -0.48358  -0.48266
 Alpha  occ. eigenvalues --   -0.48026  -0.47948  -0.47496  -0.47482  -0.47070
 Alpha  occ. eigenvalues --   -0.46921  -0.46469  -0.46228  -0.45929  -0.45858
 Alpha  occ. eigenvalues --   -0.45722  -0.45599  -0.45109  -0.44919  -0.44810
 Alpha  occ. eigenvalues --   -0.44766  -0.44599  -0.44363  -0.43673  -0.43600
 Alpha  occ. eigenvalues --   -0.43439  -0.43196  -0.42920  -0.42744  -0.42496
 Alpha  occ. eigenvalues --   -0.42288  -0.42080  -0.41909  -0.41694  -0.41143
 Alpha  occ. eigenvalues --   -0.41047  -0.40941  -0.40736  -0.40551  -0.40254
 Alpha  occ. eigenvalues --   -0.40118  -0.39825  -0.39776  -0.39566  -0.39474
 Alpha  occ. eigenvalues --   -0.39324  -0.39145  -0.39050  -0.38854  -0.38402
 Alpha  occ. eigenvalues --   -0.38269  -0.38027  -0.37713  -0.37649  -0.37471
 Alpha  occ. eigenvalues --   -0.37374  -0.37256  -0.37117  -0.36758  -0.36640
 Alpha  occ. eigenvalues --   -0.36537  -0.36353  -0.36206  -0.35976  -0.35841
 Alpha  occ. eigenvalues --   -0.35789  -0.35407  -0.35232  -0.35016  -0.35004
 Alpha  occ. eigenvalues --   -0.34581  -0.34567  -0.34258  -0.34203  -0.34087
 Alpha  occ. eigenvalues --   -0.33710  -0.33201  -0.32754  -0.32460  -0.32126
 Alpha  occ. eigenvalues --   -0.32074  -0.31704  -0.31627  -0.31582  -0.31445
 Alpha  occ. eigenvalues --   -0.31205  -0.30911  -0.30707  -0.30010  -0.29807
 Alpha  occ. eigenvalues --   -0.29206  -0.28348  -0.28263  -0.28174  -0.27725
 Alpha  occ. eigenvalues --   -0.27585  -0.27414  -0.26520  -0.26125  -0.25308
 Alpha  occ. eigenvalues --   -0.25026  -0.24530  -0.24101  -0.22062  -0.19972
 Alpha  occ. eigenvalues --   -0.19824
 Alpha virt. eigenvalues --   -0.10651  -0.08140  -0.04427  -0.02142  -0.00457
 Alpha virt. eigenvalues --   -0.00386   0.00511   0.01634   0.02395   0.03525
 Alpha virt. eigenvalues --    0.03596   0.03637   0.04117   0.04161   0.04270

 Mulliken charges:
               1
     1  C   -0.032894
     2  C   -0.064608
     3  C   -0.009709
     4  C    0.018615
     5  N   -0.178865
     6  C   -0.041964
     7  C   -0.159711
     8  C    0.150689
     9  C   -0.037372
    10  C    0.123756
    11  C   -0.054770
    12  C    0.023952
    13  C    0.107451
    14  O   -0.172089
    15  O   -0.221103
    16  N    0.002565
    17  C    0.058660
    18  C   -0.083399
    19  C    0.054432
    20  C    0.064968
    21  C    0.018717
    22  C   -0.115974
    23  C    0.033489
    24  N   -0.200486
    25  C    0.002348
    26  C   -0.085694
    27  C   -0.047541
    28  C    0.025663
    29  C    0.013989
    30  C   -0.087981
    31  C    0.035353
    32  N    0.123141
    33  C    0.096096
    34  C   -0.030367
    35  C   -0.058159
    36  C    0.039507
    37  C   -0.094013
    38  C    0.032909
    39  O   -0.188673
    40  C    0.101706
    41  C    0.181248
    42  O   -0.226792
    43  O   -0.318826
    44  C    0.203953
    45  C    0.261402
    46  C   -0.131270
    47  C   -0.132991
    48  C    0.140329
    49  C    0.172119
    50  C   -0.043295
    51  C    0.028404
    52  C   -0.069114
    53  C    0.037995
    54  C    0.047983
    55  C   -0.007998
    56  C   -0.120850
    57  C    0.075260
    58  C    0.072978
    59  C   -0.061558
    60  C    0.074252
    61  C   -0.011328
    62  C   -0.074481
    63  C    0.019528
    64  C   -0.027501
    65  H    0.010653
    66  H   -0.070160
    67  H   -0.100751
    68  H    0.059756
    69  H   -0.077557
    70  H   -0.029878
    71  H    0.001992
    72  H    0.049064
    73  H    0.041976
    74  H    0.029477
    75  H    0.001700
    76  H    0.026413
    77  H    0.029804
    78  H    0.015365
    79  H    0.049572
    80  H    0.008158
    81  H    0.027686
    82  H    0.014651
    83  H    0.034405
    84  H    0.036720
    85  H    0.032589
    86  H    0.029122
    87  H    0.013472
    88  H    0.028572
    89  H    0.031041
    90  H   -0.009080
    91  H    0.061679
    92  H    0.060048
    93  H    0.075360
    94  H    0.035853
    95  H    0.013037
    96  H    0.003827
    97  H    0.034646
    98  H    0.005278
    99  H    0.027880
   100  H    0.016542
   101  H    0.029094
   102  H   -0.006205
   103  H   -0.013610
   104  H   -0.024773
   105  H   -0.054478
   106  H    0.015121
   107  H    0.017964
   108  H   -0.014561
   109  H   -0.041511
   110  H    0.000625
   111  H    0.005063
   112  H    0.047831
   113  H   -0.010155
   114  H   -0.003241
   115  H    0.004248
   116  H    0.001790
   117  H   -0.014017
   118  H   -0.012053
   119  H    0.023717
   120  H   -0.060979
   121  H    0.007072
   122  H   -0.007635
   123  H    0.017652
   124  H    0.012145
   125  H   -0.001359
   126  H    0.015766
   127  H   -0.047270
   128  H   -0.015850
   129  H   -0.023905
   130  H    0.010924
   131  H    0.036297
   132  H    0.019788
   133  H    0.026948
   134  H   -0.017183
   135  H    0.006797
   136  H    0.013539
   137  H    0.127021
   138  H    0.058389
 Sum of Mulliken charges =   0.00000

 Dipole moment (field-independent basis, Debye):
    X=              2.4396    Y=              5.7740    Z=              0.0724  Tot=              6.2686
 Quadrupole moment (field-independent basis, Debye-Ang):
   XX=           -356.1124   YY=           -392.4659   ZZ=           -393.6080
   XY=            -34.3630   XZ=              6.8633   YZ=              0.1277

 Normal termination of Gaussian 09 at Sun Jul 28 05:26:29 2019.
