 Gaussian 09, Revision D.01,
 Gaussian 09:  ES64L-G09RevD.01 24-Apr-2013

 --------------------------
 # td=(NStates=1) B3LYP/SVP
 --------------------------

 --
 TD
 --
 Symbolic Z-matrix:
 Charge =  0 Multiplicity = 1

                         Standard orientation:
 ---------------------------------------------------------------------
 Center     Atomic      Atomic             Coordinates (Angstroms)
 Number     Number       Type             X           Y           Z
 ---------------------------------------------------------------------
      1          6           0       -5.048827   -1.900765    0.280493
      2          6           0       -4.721006    2.782559    1.244107
      3          6           0       -9.378909    3.315113   -0.113581
      4          6           0       -9.859911   -1.452885   -0.779779
      5          7           0       -5.202891    0.478770    0.739048
      6          6           0       -4.490717   -0.651931    0.692877
      7          6           0       -3.096808   -0.530975    1.246587
      8          6           0       -3.060063    0.922142    1.797523
      9          6           0       -4.437057    1.408957    1.273939
     10          6           0       -3.078403    1.045111    3.315522
     11          6           0       -2.104251   -0.790760    0.092723
     12          6           0       -0.716806   -0.787324    0.591573
     13          6           0        0.369357   -1.106351   -0.648495
     14          8           0       -0.059236   -1.319432   -1.740332
     15          8           0        1.640554   -1.019920   -0.207148
     16          7           0       -7.047715    2.769144    0.536133
     17          6           0       -5.901482    3.387732    0.904696
     18          6           0       -6.101134    4.835160    0.877179
     19          6           0       -7.439626    4.964897    0.381049
     20          6           0       -8.016802    3.680762    0.226247
     21          6           0       -5.142253    5.929026    1.233944
     22          6           0       -8.086503    6.266566    0.148141
     23          6           0       -9.120911    6.592098   -0.682957
     24          7           0       -9.194518    0.838213   -0.402450
     25          6           0       -9.878243    2.097926   -0.370702
     26          6           0      -11.334782    1.825257   -0.764906
     27          6           0      -11.541491    0.473952   -0.935546
     28          6           0      -10.192410   -0.113053   -0.666422
     29          6           0      -12.326939    2.901430   -0.950581
     30          6           0      -12.649923   -0.233844   -1.608330
     31          6           0      -12.712402   -0.525297   -3.059248
     32          7           0       -7.501664   -1.306296   -0.178662
     33          6           0       -8.637744   -2.030668   -0.459126
     34          6           0       -8.220743   -3.408301   -0.463159
     35          6           0       -6.806810   -3.403328   -0.208165
     36          6           0       -6.463129   -2.016620    0.015857
     37          6           0       -9.090290   -4.626816   -0.776743
     38          6           0       -5.652884   -4.255772    0.011484
     39          8           0       -5.742534   -5.533168    0.208684
     40          6           0       -4.433954   -3.313600    0.378634
     41          6           0       -3.942282   -3.709009    1.712813
     42          8           0       -4.153306   -3.315810    2.825531
     43          8           0       -2.863269   -4.625246    1.493739
     44          6           0       -2.178973   -5.205959    2.640709
     45          6           0        2.579996   -1.169711   -1.246503
     46          6           0        3.896459   -0.770992   -0.723844
     47          6           0        5.001819   -0.229006   -1.356954
     48          6           0        4.820825    0.413488   -2.717153
     49          6           0        6.242795    0.100059   -0.573407
     50          6           0        7.549767   -0.539830   -1.175751
     51          6           0        8.743207   -0.227772   -0.305009
     52          6           0       10.165976   -0.752650   -0.939376
     53          6           0       10.252554   -2.302260   -1.118643
     54          6           0       11.356374   -0.087759   -0.032052
     55          6           0       12.579446   -0.490619   -0.518632
     56          6           0       13.761590    0.085035    0.295496
     57          6           0       15.172312   -0.087414   -0.249526
     58          6           0       15.639598   -1.665393   -0.413449
     59          6           0       16.259039    0.684786    0.573590
     60          6           0       17.577542    0.693945   -0.079624
     61          6           0       18.513145    1.610702    0.746888
     62          6           0       20.139855    1.660896    0.277857
     63          6           0       20.396856    2.023156   -1.212012
     64          6           0       20.764641    2.630711    1.311712
     65          1           0       -4.027145    3.419262    1.572626
     66          1           0       -9.991008    4.195609   -0.191997
     67          1           0      -10.774828   -2.098142   -0.949494
     68          1           0       -2.887926   -1.221651    2.081243
     69          1           0       -2.140920    1.270542    1.311513
     70          1           0       -1.992644    0.826283    3.738923
     71          1           0       -3.039618    1.940691    3.724988
     72          1           0       -3.782497    0.242303    3.760614
     73          1           0       -2.435758   -1.823159   -0.235425
     74          1           0       -2.247644    0.101600   -0.677594
     75          1           0       -0.395868    0.016284    1.349712
     76          1           0       -0.371165   -1.708672    1.287362
     77          1           0       -4.235645    5.715883    0.711016
     78          1           0       -5.501802    7.061030    1.226605
     79          1           0       -4.990516    5.562419    2.512789
     80          1           0       -7.678524    7.240009    0.821554
     81          1           0       -9.512250    5.777761   -1.388508
     82          1           0       -9.408778    7.628540   -0.709907
     83          1           0      -12.469008    3.291597    0.016956
     84          1           0      -11.910020    3.638295   -1.741636
     85          1           0      -13.188390    2.534542   -1.359435
     86          1           0      -12.695378   -1.230060   -0.983241
     87          1           0      -13.603167   -0.015489   -1.321222
     88          1           0      -12.915234    0.525593   -3.581538
     89          1           0      -11.815599   -1.101999   -3.434512
     90          1           0      -13.539154   -1.153883   -3.312198
     91          1           0      -10.026879   -4.439323   -0.244245
     92          1           0       -9.392990   -4.825517   -1.914754
     93          1           0       -8.649294   -5.475085   -0.395067
     94          1           0       -3.801339   -3.554295   -0.368786
     95          1           0       -1.510425   -5.873172    2.328351
     96          1           0       -1.733229   -4.481530    3.286360
     97          1           0       -3.165262   -5.656640    3.139573
     98          1           0        2.429690   -2.167612   -1.712105
     99          1           0        2.318201   -0.577743   -2.209087
    100          1           0        4.303714   -1.069985    0.325798
    101          1           0        5.352060    1.494590   -2.741215
    102          1           0        5.264973   -0.226943   -3.301804
    103          1           0        3.784732    0.534045   -2.950408
    104          1           0        6.569006    1.205013   -0.535981
    105          1           0        6.247654   -0.215634    0.369533
    106          1           0        7.417747   -1.723545   -1.376746
    107          1           0        7.945909   -0.030284   -2.182300
    108          1           0        8.846446    0.903779   -0.046473
    109          1           0        8.608639   -0.752527    0.595889
    110          1           0       10.320690   -0.188742   -2.019135
    111          1           0        9.327265   -2.482770   -1.755231
    112          1           0       11.230411   -2.494691   -1.345148
    113          1           0       10.118094   -2.680737   -0.050593
    114          1           0       11.246546    1.076477   -0.037799
    115          1           0       11.257796   -0.498866    0.959955
    116          1           0       12.578803   -1.575206   -0.537785
    117          1           0       12.736854   -0.164378   -1.635450
    118          1           0       13.580338    1.111873    0.672835
    119          1           0       13.620100   -0.427691    1.326777
    120          1           0       15.169673    0.090508   -1.393130
    121          1           0       14.899368   -2.379780   -0.737290
    122          1           0       16.469282   -1.759911   -1.072133
    123          1           0       15.796619   -1.866893    0.772867
    124          1           0       15.770327    1.712469    0.943573
    125          1           0       16.601051    0.112192    1.619565
    126          1           0       18.035674   -0.378152   -0.226991
    127          1           0       17.542271    0.972333   -0.928729
    128          1           0       18.250666    2.675969    0.624802
    129          1           0       18.388270    1.305992    1.810109
    130          1           0       20.454072    0.623701    0.338635
    131          1           0       20.175256    3.125058   -1.399481
    132          1           0       21.588188    2.108608   -1.405913
    133          1           0       19.857056    1.471711   -1.936968
    134          1           0       20.684554    2.337548    2.434011
    135          1           0       21.757258    2.482621    1.026534
    136          1           0       20.487575    3.704320    1.190254
    137          1           0       -7.080435    1.876695    0.318100
    138          1           0       -7.584774   -0.212057   -0.086018
 ---------------------------------------------------------------------

 SCF Done:  E(RB3LYP) =  -2733.02946788     A.U. after   17 cycles

 Excitation energies and oscillator strengths:

 Excited State   1:      Singlet-A      1.9995 eV  620.08 nm  f=0.2281  <S**2>=0.000
     235 -> 237       -0.11976
     235 -> 238       -0.23895
     236 -> 237        0.64652
 This state for optimization and/or second-order correction.
 Total Energy, E(TD-HF/TD-KS) =  -2732.95598840
 Copying the excited state density for this state as the 1-particle RhoCI density.

 The electronic state is 1-A.
 Alpha  occ. eigenvalues --  -19.19204 -19.15329 -19.13723 -19.13298 -19.11750
 Alpha  occ. eigenvalues --  -14.37152 -14.36463 -14.32657 -14.30956 -10.32428
 Alpha  occ. eigenvalues --  -10.31853 -10.28117 -10.25909 -10.23962 -10.23530
 Alpha  occ. eigenvalues --  -10.23366 -10.23256 -10.23227 -10.23186 -10.23078
 Alpha  occ. eigenvalues --  -10.22875 -10.21959 -10.21951 -10.21820 -10.21781
 Alpha  occ. eigenvalues --  -10.21729 -10.21701 -10.21312 -10.21171 -10.20745
 Alpha  occ. eigenvalues --  -10.20609 -10.20578 -10.20507 -10.20472 -10.20220
 Alpha  occ. eigenvalues --  -10.20103 -10.20027 -10.19993 -10.19989 -10.19962
 Alpha  occ. eigenvalues --  -10.19646 -10.19625 -10.19390 -10.19374 -10.19352
 Alpha  occ. eigenvalues --  -10.19284 -10.19230 -10.19200 -10.19161 -10.19116
 Alpha  occ. eigenvalues --  -10.18966 -10.18944 -10.18821 -10.18727 -10.18571
 Alpha  occ. eigenvalues --  -10.18536 -10.18400 -10.18369 -10.18267 -10.18161
 Alpha  occ. eigenvalues --  -10.18040 -10.17968 -10.17730 -10.16281  -1.10975
 Alpha  occ. eigenvalues --   -1.07345  -1.03092  -1.00223  -0.99601  -0.99073
 Alpha  occ. eigenvalues --   -0.97928  -0.96075  -0.91094  -0.84714  -0.82569
 Alpha  occ. eigenvalues --   -0.82054  -0.81987  -0.81613  -0.81420  -0.80462
 Alpha  occ. eigenvalues --   -0.80169  -0.79866  -0.79247  -0.78453  -0.77439
 Alpha  occ. eigenvalues --   -0.77140  -0.76301  -0.75878  -0.75273  -0.75000
 Alpha  occ. eigenvalues --   -0.73941  -0.73290  -0.72735  -0.72205  -0.71249
 Alpha  occ. eigenvalues --   -0.69862  -0.69634  -0.68876  -0.68661  -0.68040
 Alpha  occ. eigenvalues --   -0.67305  -0.66735  -0.66191  -0.65542  -0.64878
 Alpha  occ. eigenvalues --   -0.64002  -0.63085  -0.62744  -0.62096  -0.61461
 Alpha  occ. eigenvalues --   -0.60649  -0.58881  -0.58390  -0.58263  -0.57949
 Alpha  occ. eigenvalues --   -0.56797  -0.56356  -0.56136  -0.55783  -0.55601
 Alpha  occ. eigenvalues --   -0.54948  -0.54708  -0.53970  -0.53609  -0.53061
 Alpha  occ. eigenvalues --   -0.52699  -0.51938  -0.51767  -0.51143  -0.50538
 Alpha  occ. eigenvalues --   -0.49888  -0.49715  -0.48959  -0.48710  -0.48326
 Alpha  occ. eigenvalues --   -0.48132  -0.47860  -0.47398  -0.47264  -0.47051
 Alpha  occ. eigenvalues --   -0.46995  -0.46522  -0.46291  -0.45890  -0.45816
 Alpha  occ. eigenvalues --   -0.45729  -0.45534  -0.45206  -0.44948  -0.44717
 Alpha  occ. eigenvalues --   -0.44669  -0.44406  -0.44352  -0.44207  -0.44076
 Alpha  occ. eigenvalues --   -0.43750  -0.43669  -0.43365  -0.43313  -0.43213
 Alpha  occ. eigenvalues --   -0.42803  -0.42496  -0.42265  -0.41958  -0.41443
 Alpha  occ. eigenvalues --   -0.41340  -0.41166  -0.40914  -0.40748  -0.40678
 Alpha  occ. eigenvalues --   -0.40315  -0.40219  -0.40062  -0.39938  -0.39720
 Alpha  occ. eigenvalues --   -0.39544  -0.39197  -0.39045  -0.38945  -0.38636
 Alpha  occ. eigenvalues --   -0.38219  -0.38114  -0.37833  -0.37761  -0.37600
 Alpha  occ. eigenvalues --   -0.37286  -0.37114  -0.37062  -0.36818  -0.36465
 Alpha  occ. eigenvalues --   -0.36417  -0.36348  -0.36275  -0.35929  -0.35647
 Alpha  occ. eigenvalues --   -0.35565  -0.35432  -0.35085  -0.34964  -0.34760
 Alpha  occ. eigenvalues --   -0.34677  -0.34401  -0.34136  -0.33891  -0.33841
 Alpha  occ. eigenvalues --   -0.33651  -0.33408  -0.33296  -0.32887  -0.32442
 Alpha  occ. eigenvalues --   -0.32227  -0.31860  -0.31734  -0.31683  -0.31375
 Alpha  occ. eigenvalues --   -0.31241  -0.31001  -0.30802  -0.30613  -0.29104
 Alpha  occ. eigenvalues --   -0.28608  -0.28371  -0.28201  -0.27958  -0.27909
 Alpha  occ. eigenvalues --   -0.27428  -0.27104  -0.26992  -0.26815  -0.25682
 Alpha  occ. eigenvalues --   -0.24506  -0.24362  -0.23717  -0.22982  -0.20068
 Alpha  occ. eigenvalues --   -0.18837
 Alpha virt. eigenvalues --   -0.10845  -0.07236  -0.05031  -0.02197  -0.01495
 Alpha virt. eigenvalues --   -0.00853  -0.00277   0.00864   0.02175   0.02947
 Alpha virt. eigenvalues --    0.04029   0.04192   0.04226   0.04335   0.04635

 Mulliken charges:
               1
     1  C   -0.063508
     2  C   -0.003637
     3  C   -0.094957
     4  C   -0.089298
     5  N   -0.121690
     6  C   -0.035991
     7  C   -0.089186
     8  C   -0.017601
     9  C   -0.025994
    10  C    0.099033
    11  C    0.078902
    12  C   -0.083232
    13  C    0.188013
    14  O   -0.203372
    15  O   -0.276798
    16  N    0.058974
    17  C    0.088714
    18  C   -0.124064
    19  C    0.049483
    20  C    0.031423
    21  C    0.015842
    22  C   -0.120870
    23  C   -0.038328
    24  N   -0.323682
    25  C    0.165627
    26  C   -0.194869
    27  C   -0.036176
    28  C    0.039731
    29  C    0.181323
    30  C    0.050278
    31  C    0.043765
    32  N    0.012295
    33  C    0.102211
    34  C   -0.146878
    35  C   -0.000065
    36  C    0.042341
    37  C    0.116356
    38  C    0.030478
    39  O   -0.254117
    40  C    0.091751
    41  C    0.243695
    42  O   -0.194467
    43  O   -0.394792
    44  C    0.221118
    45  C    0.243976
    46  C   -0.080082
    47  C   -0.172503
    48  C    0.136115
    49  C    0.151071
    50  C   -0.100785
    51  C    0.040094
    52  C   -0.190564
    53  C    0.071891
    54  C    0.037348
    55  C    0.028946
    56  C    0.049115
    57  C   -0.069525
    58  C   -0.030267
    59  C   -0.054474
    60  C    0.186772
    61  C   -0.018877
    62  C   -0.097428
    63  C   -0.011307
    64  C    0.042832
    65  H   -0.099505
    66  H   -0.036901
    67  H   -0.004782
    68  H    0.016164
    69  H   -0.002676
    70  H   -0.007818
    71  H   -0.032589
    72  H    0.057098
    73  H    0.031046
    74  H    0.039412
    75  H    0.039545
    76  H    0.033777
    77  H    0.043932
    78  H    0.062426
    79  H    0.051452
    80  H    0.030801
    81  H    0.045408
    82  H    0.022416
    83  H    0.022141
    84  H    0.028718
    85  H   -0.023960
    86  H   -0.014965
    87  H   -0.037263
    88  H    0.023378
    89  H    0.021212
    90  H    0.002903
    91  H    0.011811
    92  H    0.048483
    93  H    0.013498
    94  H    0.017766
    95  H    0.003629
    96  H    0.019216
    97  H    0.049080
    98  H    0.025943
    99  H    0.017974
   100  H    0.005300
   101  H    0.031082
   102  H   -0.015725
   103  H    0.004065
   104  H    0.013620
   105  H   -0.052539
   106  H    0.029009
   107  H    0.015058
   108  H    0.008803
   109  H   -0.023872
   110  H    0.004983
   111  H    0.041476
   112  H    0.004226
   113  H    0.007170
   114  H    0.007398
   115  H   -0.020685
   116  H   -0.007494
   117  H   -0.009777
   118  H   -0.016203
   119  H   -0.022285
   120  H    0.007256
   121  H    0.007248
   122  H    0.017899
   123  H    0.021157
   124  H    0.022348
   125  H    0.014098
   126  H    0.004327
   127  H   -0.120728
   128  H   -0.004893
   129  H   -0.002709
   130  H   -0.002533
   131  H    0.001166
   132  H    0.020663
   133  H    0.021625
   134  H    0.024696
   135  H   -0.013193
   136  H    0.019870
   137  H    0.063375
   138  H    0.195812
 Sum of Mulliken charges =   0.00000

 Dipole moment (field-independent basis, Debye):
    X=              2.2094    Y=              5.3502    Z=             -0.2593  Tot=              5.7942
 Quadrupole moment (field-independent basis, Debye-Ang):
   XX=           -339.6362   YY=           -391.6412   ZZ=           -397.3283
   XY=            -27.7502   XZ=              9.0407   YZ=              4.2917

 Normal termination of Gaussian 09 at Wed Jul 31 22:37:53 2019.
