 Gaussian 09, Revision D.01,
 Gaussian 09:  ES64L-G09RevD.01 24-Apr-2013

 --------------------------
 # td=(NStates=1) B3LYP/SVP
 --------------------------

 --
 TD
 --
 Symbolic Z-matrix:
 Charge =  0 Multiplicity = 1

                         Standard orientation:
 ---------------------------------------------------------------------
 Center     Atomic      Atomic             Coordinates (Angstroms)
 Number     Number       Type             X           Y           Z
 ---------------------------------------------------------------------
      1          6           0       -5.191211   -2.001703    0.400437
      2          6           0       -4.738498    2.712703    1.465404
      3          6           0       -9.202601    3.372338   -0.336907
      4          6           0       -9.785617   -1.304244   -1.185226
      5          7           0       -5.120982    0.402696    0.795659
      6          6           0       -4.543605   -0.840719    0.836277
      7          6           0       -3.093350   -0.625364    1.312202
      8          6           0       -3.111142    0.807540    1.991514
      9          6           0       -4.335911    1.353208    1.329730
     10          6           0       -3.115167    0.780273    3.521261
     11          6           0       -2.045475   -0.806809    0.229845
     12          6           0       -0.637154   -0.865429    0.566935
     13          6           0        0.323818   -1.090158   -0.496620
     14          8           0        0.056762   -1.579548   -1.621988
     15          8           0        1.651713   -0.845475   -0.108449
     16          7           0       -6.925666    2.757205    0.403980
     17          6           0       -5.882193    3.310580    1.095717
     18          6           0       -6.064559    4.709890    1.106630
     19          6           0       -7.348569    4.961394    0.597484
     20          6           0       -7.996017    3.649506    0.158425
     21          6           0       -5.201511    5.787351    1.750910
     22          6           0       -7.968518    6.379788    0.622802
     23          6           0       -8.842503    6.810492   -0.380617
     24          7           0       -9.153676    1.004871   -0.589301
     25          6           0       -9.773363    2.151794   -0.699272
     26          6           0      -11.150644    2.007010   -1.146501
     27          6           0      -11.370943    0.653805   -1.402264
     28          6           0      -10.128444    0.043408   -0.953599
     29          6           0      -12.177793    3.145966   -1.177061
     30          6           0      -12.520411   -0.060340   -1.808906
     31          6           0      -12.739307   -0.289315   -3.280187
     32          7           0       -7.507974   -1.255290   -0.287568
     33          6           0       -8.591058   -1.893791   -0.705607
     34          6           0       -8.225466   -3.370050   -0.739441
     35          6           0       -6.925612   -3.407069   -0.319057
     36          6           0       -6.497845   -2.113021   -0.052188
     37          6           0       -9.149014   -4.465048   -1.080173
     38          6           0       -5.848600   -4.314523   -0.064413
     39          8           0       -5.745200   -5.532678   -0.131089
     40          6           0       -4.657287   -3.411328    0.435623
     41          6           0       -4.104699   -3.995754    1.861023
     42          8           0       -4.318676   -3.464818    2.906911
     43          8           0       -3.342091   -5.078063    1.667060
     44          6           0       -2.892507   -5.627892    2.892472
     45          6           0        2.693811   -0.974927   -1.029071
     46          6           0        3.967258   -0.598099   -0.427329
     47          6           0        5.010987    0.064367   -0.910689
     48          6           0        4.875801    0.759736   -2.184426
     49          6           0        6.316378    0.154286   -0.202072
     50          6           0        7.539939   -0.380418   -0.931237
     51          6           0        8.813953   -0.228720   -0.193709
     52          6           0       10.108722   -0.796174   -0.881143
     53          6           0       10.058945   -2.175948   -1.279272
     54          6           0       11.302416   -0.400648    0.040859
     55          6           0       12.649853   -0.485819   -0.723294
     56          6           0       13.785336   -0.225403    0.100623
     57          6           0       15.257164   -0.092951   -0.426368
     58          6           0       15.557688   -1.583220   -1.009992
     59          6           0       16.288829    0.545775    0.542480
     60          6           0       17.634276    0.779323   -0.229774
     61          6           0       18.623673    1.469477    0.647990
     62          6           0       20.129435    1.667830    0.066084
     63          6           0       20.107988    2.580720   -1.146715
     64          6           0       20.967578    2.172277    1.302389
     65          1           0       -3.933083    3.490066    1.923142
     66          1           0       -9.710045    4.326490   -0.509193
     67          1           0      -10.590365   -2.108665   -1.401843
     68          1           0       -2.733697   -1.554190    2.077473
     69          1           0       -2.249654    1.309172    1.672111
     70          1           0       -2.232229    0.221355    3.896941
     71          1           0       -2.790388    1.803545    4.048612
     72          1           0       -3.865804    0.064399    4.013632
     73          1           0       -2.119860   -1.860551   -0.357036
     74          1           0       -2.319139   -0.162894   -0.712324
     75          1           0       -0.356344    0.108220    1.091517
     76          1           0       -0.445914   -1.514472    1.220811
     77          1           0       -4.175504    5.921792    1.185702
     78          1           0       -5.573921    6.678809    1.676905
     79          1           0       -4.947543    5.368569    2.732546
     80          1           0       -7.404971    7.152092    1.228137
     81          1           0       -9.275479    6.141791   -1.099413
     82          1           0       -9.021389    7.915434   -0.330688
     83          1           0      -12.453301    3.420573   -0.099876
     84          1           0      -11.797551    4.096402   -1.686686
     85          1           0      -13.116792    2.733953   -1.660261
     86          1           0      -12.708987   -0.853709   -1.089500
     87          1           0      -13.396308    0.572913   -1.447208
     88          1           0      -12.563417    0.793916   -3.624147
     89          1           0      -11.887822   -0.937549   -3.699469
     90          1           0      -13.711074   -0.782321   -3.487180
     91          1           0      -10.150229   -4.250269   -0.727603
     92          1           0       -9.152064   -4.522739   -2.245514
     93          1           0       -8.534750   -5.549974   -0.914130
     94          1           0       -3.821033   -3.602003   -0.300280
     95          1           0       -2.191018   -6.348088    2.555927
     96          1           0       -2.311071   -4.881361    3.485875
     97          1           0       -3.596660   -5.974876    3.510309
     98          1           0        2.641573   -2.060510   -1.313524
     99          1           0        2.524261   -0.488586   -2.008792
    100          1           0        3.930497   -1.104232    0.577102
    101          1           0        5.405675    1.710145   -2.038802
    102          1           0        5.488479    0.436581   -3.249996
    103          1           0        3.865726    1.148935   -2.540132
    104          1           0        6.447586    1.190202   -0.000834
    105          1           0        6.206794   -0.217124    0.749404
    106          1           0        7.513320   -1.333505   -1.361590
    107          1           0        7.682380    0.254974   -1.784637
    108          1           0        8.925801    0.753164    0.090679
    109          1           0        8.731556   -0.734960    0.716224
    110          1           0       10.151195   -0.154993   -1.798698
    111          1           0        9.265800   -2.678851   -2.057440
    112          1           0       10.915489   -2.393195   -1.854193
    113          1           0        9.908765   -2.815390   -0.305742
    114          1           0       11.358637    0.632467    0.340254
    115          1           0       11.256956   -0.996960    0.992557
    116          1           0       12.768702   -1.390829   -1.542652
    117          1           0       12.717320    0.489459   -1.623798
    118          1           0       13.638767    0.771523    0.717578
    119          1           0       13.894018   -0.936532    1.047835
    120          1           0       15.152169    0.404036   -1.360186
    121          1           0       15.078075   -1.987155   -1.845191
    122          1           0       16.592942   -1.570697   -1.306814
    123          1           0       15.464271   -2.267811   -0.027407
    124          1           0       15.877499    1.530053    0.770373
    125          1           0       16.249719   -0.008555    1.519357
    126          1           0       18.194062   -0.249518   -0.626729
    127          1           0       17.352158    1.317968   -1.160148
    128          1           0       18.295392    2.430050    1.100638
    129          1           0       18.562166    0.760554    1.670739
    130          1           0       20.590483    0.689740   -0.135750
    131          1           0       19.638651    3.500983   -0.945232
    132          1           0       21.216524    2.927076   -1.599283
    133          1           0       19.878650    1.961852   -2.096054
    134          1           0       21.103230    1.287529    1.959627
    135          1           0       22.144113    2.322041    0.997155
    136          1           0       20.679803    3.266747    1.601067
    137          1           0       -7.017014    1.773576    0.234912
    138          1           0       -7.560246   -0.183519   -0.220032
 ---------------------------------------------------------------------

 SCF Done:  E(RB3LYP) =  -2733.11100286     A.U. after   16 cycles

 Excitation energies and oscillator strengths:

 Excited State   1:      Singlet-A      2.1286 eV  582.47 nm  f=0.1162  <S**2>=0.000
     235 -> 238       -0.35176
     236 -> 237        0.60940
 This state for optimization and/or second-order correction.
 Total Energy, E(TD-HF/TD-KS) =  -2733.03277847
 Copying the excited state density for this state as the 1-particle RhoCI density.

 The electronic state is 1-A.
 Alpha  occ. eigenvalues --  -19.18432 -19.17316 -19.12948 -19.12819 -19.11733
 Alpha  occ. eigenvalues --  -14.37438 -14.36073 -14.32213 -14.30025 -10.32306
 Alpha  occ. eigenvalues --  -10.31952 -10.27270 -10.23941 -10.23878 -10.23272
 Alpha  occ. eigenvalues --  -10.23239 -10.23239 -10.23167 -10.23091 -10.22897
 Alpha  occ. eigenvalues --  -10.22053 -10.21760 -10.21451 -10.21418 -10.21286
 Alpha  occ. eigenvalues --  -10.21198 -10.21165 -10.20955 -10.20942 -10.20928
 Alpha  occ. eigenvalues --  -10.20656 -10.20461 -10.20400 -10.20332 -10.20314
 Alpha  occ. eigenvalues --  -10.20281 -10.20182 -10.20059 -10.19985 -10.19969
 Alpha  occ. eigenvalues --  -10.19921 -10.19904 -10.19704 -10.19685 -10.19680
 Alpha  occ. eigenvalues --  -10.19562 -10.19470 -10.19466 -10.19349 -10.19076
 Alpha  occ. eigenvalues --  -10.19015 -10.19000 -10.18949 -10.18917 -10.18904
 Alpha  occ. eigenvalues --  -10.18687 -10.18585 -10.18209 -10.18190 -10.18021
 Alpha  occ. eigenvalues --  -10.17798 -10.17622 -10.16998 -10.16252  -1.10721
 Alpha  occ. eigenvalues --   -1.07816  -1.01968  -1.01770  -0.99808  -0.99279
 Alpha  occ. eigenvalues --   -0.97158  -0.94208  -0.93722  -0.85623  -0.83609
 Alpha  occ. eigenvalues --   -0.82815  -0.81988  -0.81886  -0.80904  -0.80726
 Alpha  occ. eigenvalues --   -0.80509  -0.80104  -0.79145  -0.78682  -0.78146
 Alpha  occ. eigenvalues --   -0.77223  -0.76008  -0.75411  -0.75300  -0.74559
 Alpha  occ. eigenvalues --   -0.73902  -0.73728  -0.72889  -0.71961  -0.71024
 Alpha  occ. eigenvalues --   -0.70653  -0.69815  -0.68842  -0.68569  -0.67220
 Alpha  occ. eigenvalues --   -0.66889  -0.66673  -0.66381  -0.65722  -0.65281
 Alpha  occ. eigenvalues --   -0.64426  -0.62798  -0.62560  -0.62239  -0.61280
 Alpha  occ. eigenvalues --   -0.60730  -0.58982  -0.58519  -0.58033  -0.57506
 Alpha  occ. eigenvalues --   -0.56713  -0.56633  -0.56168  -0.55684  -0.55545
 Alpha  occ. eigenvalues --   -0.55221  -0.55162  -0.54228  -0.54016  -0.53896
 Alpha  occ. eigenvalues --   -0.52862  -0.52295  -0.51475  -0.51036  -0.50214
 Alpha  occ. eigenvalues --   -0.49994  -0.49732  -0.49252  -0.49199  -0.49012
 Alpha  occ. eigenvalues --   -0.48007  -0.47896  -0.47846  -0.47669  -0.47313
 Alpha  occ. eigenvalues --   -0.47081  -0.46596  -0.46407  -0.46261  -0.46015
 Alpha  occ. eigenvalues --   -0.45533  -0.45234  -0.45035  -0.44641  -0.44499
 Alpha  occ. eigenvalues --   -0.44149  -0.44006  -0.43940  -0.43473  -0.43425
 Alpha  occ. eigenvalues --   -0.43319  -0.43119  -0.42901  -0.42785  -0.42556
 Alpha  occ. eigenvalues --   -0.42344  -0.42094  -0.41912  -0.41838  -0.41671
 Alpha  occ. eigenvalues --   -0.41524  -0.40956  -0.40781  -0.40747  -0.40553
 Alpha  occ. eigenvalues --   -0.40241  -0.40115  -0.39779  -0.39701  -0.39419
 Alpha  occ. eigenvalues --   -0.39035  -0.38833  -0.38732  -0.38504  -0.38355
 Alpha  occ. eigenvalues --   -0.38053  -0.37965  -0.37906  -0.37844  -0.37561
 Alpha  occ. eigenvalues --   -0.37355  -0.37186  -0.37112  -0.36843  -0.36786
 Alpha  occ. eigenvalues --   -0.36662  -0.36525  -0.36406  -0.36358  -0.35905
 Alpha  occ. eigenvalues --   -0.35706  -0.35660  -0.35377  -0.35198  -0.35116
 Alpha  occ. eigenvalues --   -0.34831  -0.34735  -0.34506  -0.34070  -0.33883
 Alpha  occ. eigenvalues --   -0.33440  -0.33240  -0.33111  -0.32673  -0.32366
 Alpha  occ. eigenvalues --   -0.31743  -0.31657  -0.31256  -0.31064  -0.30806
 Alpha  occ. eigenvalues --   -0.30660  -0.30462  -0.30281  -0.30169  -0.29672
 Alpha  occ. eigenvalues --   -0.29344  -0.28947  -0.28526  -0.28004  -0.27977
 Alpha  occ. eigenvalues --   -0.27665  -0.27180  -0.26867  -0.26256  -0.25915
 Alpha  occ. eigenvalues --   -0.24593  -0.24425  -0.23624  -0.22625  -0.20123
 Alpha  occ. eigenvalues --   -0.18710
 Alpha virt. eigenvalues --   -0.09508  -0.08367  -0.04465  -0.02350  -0.01361
 Alpha virt. eigenvalues --    0.00000   0.00168   0.00954   0.02119   0.03565
 Alpha virt. eigenvalues --    0.03627   0.03819   0.03968   0.04353   0.04624

 Mulliken charges:
               1
     1  C    0.052837
     2  C   -0.100313
     3  C   -0.076007
     4  C   -0.059946
     5  N   -0.177122
     6  C   -0.043632
     7  C   -0.102904
     8  C    0.069488
     9  C   -0.018193
    10  C    0.043145
    11  C   -0.061250
    12  C    0.212296
    13  C    0.185564
    14  O   -0.263813
    15  O   -0.339781
    16  N   -0.086900
    17  C    0.129655
    18  C   -0.158487
    19  C   -0.010467
    20  C    0.083038
    21  C    0.182233
    22  C   -0.052660
    23  C   -0.028171
    24  N   -0.246861
    25  C    0.098118
    26  C   -0.150533
    27  C   -0.082722
    28  C    0.050128
    29  C    0.064527
    30  C    0.031002
    31  C    0.026406
    32  N    0.007257
    33  C   -0.004915
    34  C   -0.163439
    35  C    0.060356
    36  C    0.056144
    37  C    0.031278
    38  C    0.034439
    39  O   -0.177274
    40  C   -0.072860
    41  C    0.190523
    42  O   -0.207184
    43  O   -0.275185
    44  C    0.246288
    45  C    0.277997
    46  C   -0.120161
    47  C   -0.070352
    48  C   -0.014687
    49  C    0.182316
    50  C    0.102188
    51  C    0.073740
    52  C   -0.046977
    53  C    0.017287
    54  C    0.057482
    55  C   -0.054546
    56  C   -0.005769
    57  C   -0.069941
    58  C    0.013091
    59  C    0.065404
    60  C    0.007007
    61  C   -0.034795
    62  C   -0.060407
    63  C    0.005910
    64  C   -0.026693
    65  H    0.005364
    66  H   -0.051315
    67  H    0.011050
    68  H    0.024276
    69  H   -0.033306
    70  H   -0.007468
    71  H    0.027455
    72  H    0.044861
    73  H    0.029235
    74  H    0.019277
    75  H    0.019169
    76  H   -0.051666
    77  H    0.024742
    78  H   -0.051303
    79  H    0.038204
    80  H    0.023166
    81  H    0.039172
    82  H    0.038640
    83  H    0.034591
    84  H    0.032603
    85  H    0.021026
    86  H   -0.009213
    87  H   -0.014579
    88  H    0.027853
    89  H    0.021190
    90  H    0.028120
    91  H    0.041425
    92  H    0.041136
    93  H    0.071872
    94  H    0.062673
    95  H    0.018001
    96  H    0.013876
    97  H    0.002194
    98  H    0.013044
    99  H   -0.000725
   100  H   -0.012178
   101  H   -0.004435
   102  H    0.041432
   103  H    0.030140
   104  H   -0.022276
   105  H   -0.048732
   106  H   -0.028845
   107  H   -0.035568
   108  H   -0.048672
   109  H   -0.047826
   110  H   -0.021027
   111  H    0.028059
   112  H   -0.006239
   113  H    0.015562
   114  H   -0.004612
   115  H    0.006563
   116  H    0.029549
   117  H   -0.002836
   118  H   -0.016390
   119  H   -0.009092
   120  H   -0.028420
   121  H    0.008689
   122  H   -0.019029
   123  H    0.009872
   124  H   -0.003215
   125  H    0.009403
   126  H    0.027237
   127  H    0.005263
   128  H   -0.004963
   129  H    0.004553
   130  H   -0.006401
   131  H    0.010788
   132  H    0.007835
   133  H    0.030736
   134  H    0.025283
   135  H    0.001994
   136  H    0.032999
   137  H    0.122149
   138  H    0.175811
 Sum of Mulliken charges =   0.00000

 Dipole moment (field-independent basis, Debye):
    X=              2.3312    Y=              4.7160    Z=              1.4343  Tot=              5.4527
 Quadrupole moment (field-independent basis, Debye-Ang):
   XX=           -350.6371   YY=           -381.2338   ZZ=           -394.3566
   XY=            -14.9717   XZ=              2.1945   YZ=             -2.4927

 Normal termination of Gaussian 09 at Mon Aug  5 00:25:00 2019.
