 Gaussian 09, Revision D.01,
 Gaussian 09:  ES64L-G09RevD.01 24-Apr-2013

 --------------------------
 # td=(NStates=1) B3LYP/SVP
 --------------------------

 --
 TD
 --
 Symbolic Z-matrix:
 Charge =  0 Multiplicity = 1

                         Standard orientation:
 ---------------------------------------------------------------------
 Center     Atomic      Atomic             Coordinates (Angstroms)
 Number     Number       Type             X           Y           Z
 ---------------------------------------------------------------------
      1          6           0       -5.224621   -1.982097    0.493234
      2          6           0       -4.761959    2.701069    1.279906
      3          6           0       -9.306146    3.394347   -0.199841
      4          6           0       -9.800420   -1.274710   -0.911297
      5          7           0       -5.210683    0.422686    0.758589
      6          6           0       -4.480184   -0.713751    0.716324
      7          6           0       -3.039496   -0.603107    1.220130
      8          6           0       -3.003649    0.890137    1.746154
      9          6           0       -4.413289    1.368599    1.321470
     10          6           0       -2.985740    0.865013    3.291466
     11          6           0       -2.085237   -0.778773    0.002101
     12          6           0       -0.633264   -0.893068    0.488743
     13          6           0        0.446637   -1.242964   -0.491406
     14          8           0        0.179601   -1.849301   -1.541400
     15          8           0        1.728745   -0.888923   -0.216843
     16          7           0       -7.039665    2.789492    0.447309
     17          6           0       -5.972722    3.415632    0.943176
     18          6           0       -6.178931    4.851708    0.945374
     19          6           0       -7.461068    4.990659    0.412950
     20          6           0       -8.074857    3.783405    0.126437
     21          6           0       -5.196809    5.784035    1.469889
     22          6           0       -8.063472    6.350117    0.419223
     23          6           0       -9.049069    6.683529   -0.357818
     24          7           0       -9.207011    1.054887   -0.428653
     25          6           0       -9.919592    2.132542   -0.480988
     26          6           0      -11.308487    1.933091   -0.958448
     27          6           0      -11.443759    0.658332   -1.088734
     28          6           0      -10.078756    0.024997   -0.802694
     29          6           0      -12.291986    3.002889   -1.021917
     30          6           0      -12.640962   -0.197422   -1.512770
     31          6           0      -12.671847   -0.333942   -3.064001
     32          7           0       -7.482941   -1.164462   -0.298939
     33          6           0       -8.608626   -1.922058   -0.574841
     34          6           0       -8.251576   -3.351713   -0.705688
     35          6           0       -6.892204   -3.421853   -0.271867
     36          6           0       -6.506636   -2.045258    0.034694
     37          6           0       -9.166423   -4.547480   -1.018619
     38          6           0       -5.777344   -4.258139    0.036160
     39          8           0       -5.657758   -5.512663   -0.160656
     40          6           0       -4.563714   -3.311335    0.391192
     41          6           0       -4.016283   -3.797139    1.751369
     42          8           0       -4.278666   -3.252647    2.844436
     43          8           0       -3.213159   -4.886429    1.636376
     44          6           0       -2.686701   -5.477386    2.808931
     45          6           0        2.719851   -1.290164   -1.092778
     46          6           0        4.070662   -0.713474   -0.545011
     47          6           0        4.978834   -0.000654   -1.318558
     48          6           0        4.847877    0.377805   -2.649650
     49          6           0        6.259460    0.158687   -0.567175
     50          6           0        7.605364   -0.721024   -1.030382
     51          6           0        8.796155   -0.210713   -0.176221
     52          6           0       10.118628   -0.877751   -0.797859
     53          6           0       10.055774   -2.448420   -0.848776
     54          6           0       11.353821   -0.326670    0.080848
     55          6           0       12.629383   -0.641753   -0.606864
     56          6           0       13.868917    0.024239    0.241804
     57          6           0       15.172322   -0.147280   -0.401274
     58          6           0       15.581823   -1.640409   -0.141716
     59          6           0       16.258838    0.763308    0.471525
     60          6           0       17.817409    0.801352   -0.043662
     61          6           0       18.654855    1.813837    0.591554
     62          6           0       20.110716    1.796302    0.139011
     63          6           0       20.287937    2.243003   -1.318957
     64          6           0       20.972221    2.690303    1.107849
     65          1           0       -3.932598    3.343602    1.548678
     66          1           0      -10.176578    4.187405   -0.368716
     67          1           0      -10.616883   -1.946227   -1.410026
     68          1           0       -2.889097   -1.332738    1.903983
     69          1           0       -2.204279    1.525475    1.396354
     70          1           0       -2.087628    0.243666    3.590234
     71          1           0       -2.836750    1.909963    3.552206
     72          1           0       -3.855130    0.303390    3.688528
     73          1           0       -2.254814   -1.673082   -0.824189
     74          1           0       -2.193526    0.120811   -0.771546
     75          1           0       -0.202190    0.175087    0.940967
     76          1           0       -0.613008   -1.631359    1.279439
     77          1           0       -4.411875    5.968512    0.810422
     78          1           0       -5.577590    6.946321    1.328237
     79          1           0       -4.885772    5.471178    2.520116
     80          1           0       -7.843778    7.035486    1.212345
     81          1           0       -9.380252    5.922326   -1.190042
     82          1           0       -9.603382    7.773973   -0.401012
     83          1           0      -12.161161    3.702327   -0.227213
     84          1           0      -12.263635    3.450458   -2.132455
     85          1           0      -13.502988    2.696595   -0.712925
     86          1           0      -12.542847   -1.387000   -0.962275
     87          1           0      -13.599842    0.255071   -0.908119
     88          1           0      -12.791293    0.776968   -3.679400
     89          1           0      -11.417804   -0.660738   -3.379056
     90          1           0      -13.577408   -1.108479   -3.313042
     91          1           0       -9.796689   -4.906694   -0.152868
     92          1           0       -9.703627   -4.297283   -1.847520
     93          1           0       -8.382185   -5.220607   -1.277315
     94          1           0       -3.943019   -3.572001   -0.441671
     95          1           0       -2.030101   -6.386311    2.543492
     96          1           0       -2.009862   -4.909554    3.670046
     97          1           0       -3.540909   -5.999884    3.298846
     98          1           0        2.575511   -2.440050   -1.181298
     99          1           0        2.587458   -0.959271   -2.125530
    100          1           0        4.448089   -0.957709    0.516918
    101          1           0        5.407664    1.474783   -2.644917
    102          1           0        5.221979   -0.155189   -3.768460
    103          1           0        3.805339    0.588138   -2.753233
    104          1           0        6.644320    1.231880   -0.494853
    105          1           0        6.023248   -0.100491    0.445555
    106          1           0        7.120215   -1.863433   -0.678078
    107          1           0        7.627875   -0.520220   -2.289121
    108          1           0        8.901582    1.029723   -0.548238
    109          1           0        8.922578   -0.372251    0.974516
    110          1           0       10.502573   -0.357045   -1.819946
    111          1           0        9.145678   -2.967045   -1.439610
    112          1           0       10.795078   -2.852592   -1.530623
    113          1           0        9.871406   -2.850998    0.222411
    114          1           0       11.017301    0.818775    0.441600
    115          1           0       11.291630   -0.795143    1.046915
    116          1           0       12.643076   -1.761715   -0.850513
    117          1           0       12.889120   -0.257431   -1.571382
    118          1           0       13.534745    1.092001    0.353937
    119          1           0       13.885486   -0.243636    1.214548
    120          1           0       15.338585    0.115675   -1.443957
    121          1           0       15.091078   -2.583129   -0.751835
    122          1           0       16.614796   -1.814612   -0.486242
    123          1           0       15.529251   -2.123778    1.097601
    124          1           0       15.908966    1.708888    0.484744
    125          1           0       16.448551    0.513612    1.617211
    126          1           0       18.333309   -0.092703    0.059475
    127          1           0       17.955557    0.847659   -1.163672
    128          1           0       18.287741    2.979071    0.504901
    129          1           0       18.479483    1.846108    1.716391
    130          1           0       20.249788    0.603229    0.229260
    131          1           0       19.771609    3.195240   -1.451890
    132          1           0       21.111581    2.260089   -1.888384
    133          1           0       19.624679    1.808490   -2.026315
    134          1           0       20.875744    2.255552    2.051505
    135          1           0       22.174306    2.905150    0.759676
    136          1           0       20.770310    3.926979    1.143531
    137          1           0       -7.030817    1.711531    0.175257
    138          1           0       -7.365896   -0.189901   -0.466005
 ---------------------------------------------------------------------

 SCF Done:  E(RB3LYP) =  -2732.88243225     A.U. after   17 cycles

 Excitation energies and oscillator strengths:

 Excited State   1:      Singlet-A      2.0160 eV  615.00 nm  f=0.2654  <S**2>=0.000
     235 -> 237       -0.11204
     235 -> 238       -0.24713
     236 -> 237        0.64675
     236 -> 238       -0.11017
 This state for optimization and/or second-order correction.
 Total Energy, E(TD-HF/TD-KS) =  -2732.80834564
 Copying the excited state density for this state as the 1-particle RhoCI density.

 The electronic state is 1-A.
 Alpha  occ. eigenvalues --  -19.18690 -19.18109 -19.12433 -19.12018 -19.11295
 Alpha  occ. eigenvalues --  -14.37271 -14.36746 -14.32632 -14.30388 -10.32376
 Alpha  occ. eigenvalues --  -10.31843 -10.27478 -10.26004 -10.25297 -10.23959
 Alpha  occ. eigenvalues --  -10.23691 -10.23675 -10.23594 -10.23515 -10.23215
 Alpha  occ. eigenvalues --  -10.22865 -10.22802 -10.22669 -10.22460 -10.22069
 Alpha  occ. eigenvalues --  -10.21985 -10.21978 -10.21492 -10.21444 -10.21185
 Alpha  occ. eigenvalues --  -10.21066 -10.21063 -10.21034 -10.20961 -10.20913
 Alpha  occ. eigenvalues --  -10.20671 -10.20610 -10.20604 -10.20469 -10.20468
 Alpha  occ. eigenvalues --  -10.20464 -10.20460 -10.20454 -10.20290 -10.20048
 Alpha  occ. eigenvalues --  -10.20015 -10.19953 -10.19873 -10.19695 -10.19632
 Alpha  occ. eigenvalues --  -10.19362 -10.19310 -10.19239 -10.19116 -10.19002
 Alpha  occ. eigenvalues --  -10.18965 -10.18957 -10.18521 -10.18474 -10.18443
 Alpha  occ. eigenvalues --  -10.18093 -10.17901 -10.17508 -10.16313  -1.09993
 Alpha  occ. eigenvalues --   -1.08983  -0.99593  -0.99396  -0.99056  -0.98193
 Alpha  occ. eigenvalues --   -0.97189  -0.94801  -0.94432  -0.85440  -0.82626
 Alpha  occ. eigenvalues --   -0.82459  -0.81498  -0.81305  -0.81151  -0.80612
 Alpha  occ. eigenvalues --   -0.80235  -0.79926  -0.79152  -0.78805  -0.77892
 Alpha  occ. eigenvalues --   -0.76702  -0.75935  -0.75005  -0.74687  -0.73766
 Alpha  occ. eigenvalues --   -0.73449  -0.73213  -0.72189  -0.71198  -0.70903
 Alpha  occ. eigenvalues --   -0.70373  -0.69247  -0.68662  -0.68403  -0.67905
 Alpha  occ. eigenvalues --   -0.67519  -0.65978  -0.65786  -0.65459  -0.64438
 Alpha  occ. eigenvalues --   -0.63786  -0.62419  -0.61892  -0.60929  -0.60329
 Alpha  occ. eigenvalues --   -0.59523  -0.59099  -0.58794  -0.57772  -0.57005
 Alpha  occ. eigenvalues --   -0.56964  -0.56527  -0.56462  -0.55897  -0.55831
 Alpha  occ. eigenvalues --   -0.55476  -0.55232  -0.53494  -0.53175  -0.52607
 Alpha  occ. eigenvalues --   -0.52032  -0.51642  -0.51326  -0.51090  -0.50714
 Alpha  occ. eigenvalues --   -0.49895  -0.49485  -0.48692  -0.48432  -0.47803
 Alpha  occ. eigenvalues --   -0.47367  -0.47233  -0.47183  -0.46943  -0.46625
 Alpha  occ. eigenvalues --   -0.46453  -0.46295  -0.45990  -0.45826  -0.45626
 Alpha  occ. eigenvalues --   -0.45579  -0.44842  -0.44694  -0.44592  -0.44396
 Alpha  occ. eigenvalues --   -0.44284  -0.44225  -0.44056  -0.43365  -0.43334
 Alpha  occ. eigenvalues --   -0.42853  -0.42798  -0.42768  -0.42461  -0.42208
 Alpha  occ. eigenvalues --   -0.41847  -0.41710  -0.41506  -0.41157  -0.41025
 Alpha  occ. eigenvalues --   -0.40958  -0.40844  -0.40716  -0.40484  -0.40169
 Alpha  occ. eigenvalues --   -0.40073  -0.39730  -0.39490  -0.39251  -0.39008
 Alpha  occ. eigenvalues --   -0.38642  -0.38477  -0.38400  -0.38217  -0.38056
 Alpha  occ. eigenvalues --   -0.37878  -0.37806  -0.37453  -0.37321  -0.37001
 Alpha  occ. eigenvalues --   -0.36787  -0.36705  -0.36511  -0.36419  -0.36211
 Alpha  occ. eigenvalues --   -0.36058  -0.35863  -0.35687  -0.35463  -0.35331
 Alpha  occ. eigenvalues --   -0.35120  -0.34950  -0.34640  -0.34519  -0.34190
 Alpha  occ. eigenvalues --   -0.34156  -0.34003  -0.33632  -0.33356  -0.33254
 Alpha  occ. eigenvalues --   -0.33198  -0.33049  -0.32705  -0.32421  -0.32310
 Alpha  occ. eigenvalues --   -0.31798  -0.31567  -0.31530  -0.31488  -0.31042
 Alpha  occ. eigenvalues --   -0.30816  -0.30417  -0.30286  -0.30220  -0.29950
 Alpha  occ. eigenvalues --   -0.29778  -0.28580  -0.28406  -0.28305  -0.27699
 Alpha  occ. eigenvalues --   -0.27415  -0.27150  -0.26891  -0.26484  -0.26013
 Alpha  occ. eigenvalues --   -0.24642  -0.24295  -0.24185  -0.23712  -0.20560
 Alpha  occ. eigenvalues --   -0.18206
 Alpha virt. eigenvalues --   -0.10269  -0.07423  -0.04961  -0.02442  -0.01445
 Alpha virt. eigenvalues --   -0.00684  -0.00532   0.00671   0.01653   0.02681
 Alpha virt. eigenvalues --    0.02773   0.03699   0.03763   0.04160   0.04588

 Mulliken charges:
               1
     1  C   -0.002290
     2  C   -0.042831
     3  C   -0.106314
     4  C   -0.162587
     5  N   -0.189265
     6  C   -0.050154
     7  C    0.084965
     8  C   -0.053169
     9  C   -0.001667
    10  C    0.072746
    11  C   -0.066287
    12  C    0.035941
    13  C    0.175780
    14  O   -0.271213
    15  O   -0.280941
    16  N   -0.150297
    17  C    0.070654
    18  C   -0.130666
    19  C    0.059166
    20  C    0.186597
    21  C    0.097333
    22  C   -0.024837
    23  C   -0.105291
    24  N   -0.186910
    25  C   -0.054178
    26  C   -0.074399
    27  C   -0.055545
    28  C    0.086314
    29  C   -0.003015
    30  C   -0.042897
    31  C   -0.105659
    32  N   -0.018172
    33  C    0.091366
    34  C   -0.184944
    35  C    0.049198
    36  C    0.073896
    37  C    0.161238
    38  C    0.016553
    39  O   -0.241135
    40  C   -0.013343
    41  C    0.227492
    42  O   -0.261496
    43  O   -0.273899
    44  C    0.121850
    45  C    0.239467
    46  C   -0.078392
    47  C   -0.117272
    48  C   -0.008636
    49  C    0.050662
    50  C   -0.076654
    51  C   -0.021885
    52  C   -0.141629
    53  C    0.003938
    54  C    0.013793
    55  C    0.040257
    56  C    0.088135
    57  C   -0.012774
    58  C   -0.078440
    59  C    0.037462
    60  C    0.088009
    61  C   -0.061947
    62  C   -0.085286
    63  C    0.126440
    64  C   -0.023100
    65  H   -0.049531
    66  H    0.001159
    67  H    0.015971
    68  H   -0.029453
    69  H    0.002394
    70  H    0.014423
    71  H    0.010317
    72  H    0.042269
    73  H    0.064570
    74  H    0.023811
    75  H    0.046007
    76  H    0.033794
    77  H    0.009179
    78  H    0.016128
    79  H    0.059068
    80  H    0.003357
    81  H    0.043948
    82  H    0.047605
    83  H    0.031423
    84  H    0.051794
    85  H    0.030717
    86  H    0.033589
    87  H    0.037450
    88  H    0.051240
    89  H    0.052738
    90  H    0.057648
    91  H    0.057904
    92  H   -0.005141
    93  H    0.028477
    94  H    0.053621
    95  H    0.036570
    96  H    0.055892
    97  H    0.034165
    98  H    0.027617
    99  H    0.004078
   100  H    0.016642
   101  H    0.023411
   102  H    0.074430
   103  H    0.018461
   104  H   -0.008724
   105  H   -0.023245
   106  H    0.038167
   107  H    0.053596
   108  H    0.036082
   109  H    0.041743
   110  H    0.014960
   111  H    0.017853
   112  H    0.018919
   113  H    0.027558
   114  H    0.008200
   115  H   -0.020062
   116  H    0.009623
   117  H   -0.017734
   118  H   -0.015626
   119  H   -0.042811
   120  H    0.006061
   121  H    0.022471
   122  H    0.006201
   123  H    0.030170
   124  H   -0.030426
   125  H    0.014304
   126  H   -0.034314
   127  H   -0.018944
   128  H   -0.013538
   129  H   -0.006971
   130  H    0.014162
   131  H   -0.022864
   132  H   -0.021256
   133  H   -0.040363
   134  H    0.010398
   135  H    0.022821
   136  H    0.029948
   137  H    0.194179
   138  H    0.131882
 Sum of Mulliken charges =   0.00000

 Dipole moment (field-independent basis, Debye):
    X=              1.6967    Y=              4.9790    Z=             -0.0181  Tot=              5.2602
 Quadrupole moment (field-independent basis, Debye-Ang):
   XX=           -366.2375   YY=           -391.4694   ZZ=           -393.9771
   XY=            -29.3493   XZ=              4.2112   YZ=             -3.7823

 Normal termination of Gaussian 09 at Mon Aug  5 03:01:06 2019.
