 Gaussian 09, Revision D.01,
 Gaussian 09:  ES64L-G09RevD.01 24-Apr-2013

 --------------------------
 # td=(NStates=1) B3LYP/SVP
 --------------------------

 --
 TD
 --
 Symbolic Z-matrix:
 Charge =  0 Multiplicity = 1

                         Standard orientation:
 ---------------------------------------------------------------------
 Center     Atomic      Atomic             Coordinates (Angstroms)
 Number     Number       Type             X           Y           Z
 ---------------------------------------------------------------------
      1          6           0       -5.219206   -1.862970    0.298963
      2          6           0       -4.734494    2.755982    1.374400
      3          6           0       -9.353407    3.429026   -0.254118
      4          6           0       -9.848171   -1.401022   -1.105169
      5          7           0       -5.233770    0.396124    0.877073
      6          6           0       -4.546151   -0.680340    0.753717
      7          6           0       -3.097547   -0.562370    1.262175
      8          6           0       -3.089583    0.863233    1.835950
      9          6           0       -4.414631    1.350470    1.434217
     10          6           0       -2.978880    0.778766    3.416377
     11          6           0       -1.954308   -0.894562    0.253983
     12          6           0       -0.526888   -0.823897    0.690708
     13          6           0        0.398555   -1.152687   -0.477152
     14          8           0        0.144115   -1.460635   -1.641869
     15          8           0        1.635711   -0.994755   -0.089596
     16          7           0       -7.050844    2.812989    0.495046
     17          6           0       -5.886754    3.414421    0.866754
     18          6           0       -6.084678    4.882107    0.917922
     19          6           0       -7.438788    5.024973    0.634417
     20          6           0       -8.026129    3.710401    0.181815
     21          6           0       -5.161443    5.856448    1.564239
     22          6           0       -8.134856    6.362078    0.462493
     23          6           0       -9.099637    6.569412   -0.438362
     24          7           0       -9.178095    0.997569   -0.475903
     25          6           0       -9.841925    2.168112   -0.496063
     26          6           0      -11.298592    1.928809   -0.956536
     27          6           0      -11.455757    0.609415   -1.119083
     28          6           0      -10.010931    0.048253   -0.883017
     29          6           0      -12.314274    3.010951   -1.125672
     30          6           0      -12.568708   -0.058962   -1.678324
     31          6           0      -12.546944   -0.036406   -3.199009
     32          7           0       -7.509608   -1.225333   -0.417165
     33          6           0       -8.644658   -1.993358   -0.752819
     34          6           0       -8.223108   -3.404225   -0.728528
     35          6           0       -6.860778   -3.357354   -0.313867
     36          6           0       -6.490651   -1.993840   -0.088748
     37          6           0       -9.046979   -4.641937   -1.076090
     38          6           0       -5.729942   -4.233512   -0.115937
     39          8           0       -5.562059   -5.461893   -0.283684
     40          6           0       -4.570699   -3.331846    0.414534
     41          6           0       -4.088681   -3.932624    1.746861
     42          8           0       -4.426011   -3.509952    2.811579
     43          8           0       -3.168476   -4.920968    1.491731
     44          6           0       -2.852619   -5.561887    2.692397
     45          6           0        2.636745   -1.272547   -1.025473
     46          6           0        4.009889   -0.841551   -0.417663
     47          6           0        4.950519   -0.208910   -1.079212
     48          6           0        4.877606    0.261420   -2.438404
     49          6           0        6.302512    0.064263   -0.304385
     50          6           0        7.580319   -0.541108   -0.854757
     51          6           0        8.782386   -0.177179   -0.095523
     52          6           0       10.090826   -0.845258   -0.663475
     53          6           0       10.126081   -2.337215   -0.613239
     54          6           0       11.302097   -0.339414    0.027232
     55          6           0       12.810571   -0.627945   -0.463826
     56          6           0       13.906351   -0.037494    0.380190
     57          6           0       15.293068   -0.304584   -0.225937
     58          6           0       15.723641   -1.742039   -0.248369
     59          6           0       16.304176    0.693543    0.449018
     60          6           0       17.670668    0.785866   -0.244212
     61          6           0       18.564878    1.813779    0.454722
     62          6           0       20.062495    1.914180   -0.050879
     63          6           0       20.114936    2.181434   -1.571718
     64          6           0       20.806749    2.971771    0.723577
     65          1           0       -3.705857    3.416883    1.756332
     66          1           0      -10.009141    4.218395   -0.234912
     67          1           0      -10.837367   -1.817009   -1.419543
     68          1           0       -2.877824   -1.415897    1.881713
     69          1           0       -2.160838    1.504365    1.673802
     70          1           0       -2.051523    0.432120    3.790092
     71          1           0       -3.005687    1.818284    3.836772
     72          1           0       -3.702991    0.030970    3.977685
     73          1           0       -1.896405   -2.039877   -0.113985
     74          1           0       -2.155273   -0.306466   -0.664224
     75          1           0       -0.396018    0.143263    1.201897
     76          1           0       -0.494539   -1.584022    1.343401
     77          1           0       -4.062473    6.014549    1.039893
     78          1           0       -5.608188    6.848998    1.461928
     79          1           0       -4.840097    5.630566    2.592359
     80          1           0       -7.795465    7.090527    1.126611
     81          1           0       -9.686401    5.893180   -1.082481
     82          1           0       -9.514722    7.622388   -0.563803
     83          1           0      -12.458543    3.570431   -0.216032
     84          1           0      -11.993215    3.873879   -1.806945
     85          1           0      -13.215123    2.718102   -1.431999
     86          1           0      -12.600060   -1.148512   -1.393971
     87          1           0      -13.449332    0.410555   -1.284464
     88          1           0      -12.261256    1.076607   -3.711824
     89          1           0      -11.545277   -0.347237   -3.502758
     90          1           0      -13.240747   -0.578649   -3.934306
     91          1           0      -10.000268   -4.747281   -0.471689
     92          1           0       -9.366155   -4.599301   -2.108461
     93          1           0       -8.445356   -5.619433   -1.030503
     94          1           0       -3.737049   -3.393069   -0.373327
     95          1           0       -2.255821   -6.480090    2.470622
     96          1           0       -2.278054   -4.822130    3.389356
     97          1           0       -3.691786   -5.953020    3.404160
     98          1           0        2.515855   -2.308850   -1.341490
     99          1           0        2.364266   -0.739973   -1.910341
    100          1           0        4.105859   -1.182278    0.565616
    101          1           0        5.314338    1.351984   -2.376142
    102          1           0        5.610241   -0.285100   -3.263350
    103          1           0        3.850575    0.056234   -2.821581
    104          1           0        6.352842    1.207920   -0.367325
    105          1           0        6.035017   -0.140719    0.708565
    106          1           0        7.596081   -1.764703   -0.889405
    107          1           0        7.518007   -0.186808   -1.978871
    108          1           0        8.584166    0.947532    0.024230
    109          1           0        8.688685   -0.692832    0.844225
    110          1           0       10.348803   -0.616429   -1.816289
    111          1           0        9.317804   -2.788390   -1.129439
    112          1           0       10.964409   -2.856657   -1.149064
    113          1           0        9.934139   -2.852909    0.315982
    114          1           0       11.203679    0.899578    0.177735
    115          1           0       11.224741   -0.589174    1.125753
    116          1           0       12.852418   -1.753512   -0.358027
    117          1           0       12.817754   -0.543106   -1.558832
    118          1           0       13.783599    1.132002    0.428406
    119          1           0       13.808431   -0.522331    1.282848
    120          1           0       15.310519    0.029772   -1.151465
    121          1           0       14.818456   -2.276973   -0.586001
    122          1           0       16.619293   -1.606213   -0.899994
    123          1           0       15.840563   -1.887955    0.786280
    124          1           0       15.893288    1.720854    0.595071
    125          1           0       16.602289    0.346787    1.535642
    126          1           0       18.138295   -0.108569   -0.004553
    127          1           0       17.496812    0.835932   -1.462350
    128          1           0       18.349347    2.866900    0.326698
    129          1           0       18.546120    1.504235    1.500655
    130          1           0       20.633387    0.869341   -0.063718
    131          1           0       19.536459    3.267465   -1.677509
    132          1           0       21.173199    2.437902   -1.845870
    133          1           0       19.651375    1.368033   -2.084284
    134          1           0       21.130847    3.009222    1.869070
    135          1           0       21.867591    3.138203    0.258792
    136          1           0       20.424859    4.101339    0.679218
    137          1           0       -7.216954    1.774370    0.515857
    138          1           0       -7.494271   -0.208418   -0.451346
 ---------------------------------------------------------------------

 SCF Done:  E(RB3LYP) =  -2733.14010939     A.U. after   16 cycles

 Excitation energies and oscillator strengths:

 Excited State   1:      Singlet-A      1.9895 eV  623.20 nm  f=0.1993  <S**2>=0.000
     235 -> 238        0.28817
     236 -> 237        0.64613
 This state for optimization and/or second-order correction.
 Total Energy, E(TD-HF/TD-KS) =  -2733.06699719
 Copying the excited state density for this state as the 1-particle RhoCI density.

 The electronic state is 1-A.
 Alpha  occ. eigenvalues --  -19.18769 -19.18153 -19.13512 -19.12442 -19.11589
 Alpha  occ. eigenvalues --  -14.37936 -14.37060 -14.32739 -14.30945 -10.32205
 Alpha  occ. eigenvalues --  -10.31896 -10.27402 -10.25109 -10.24522 -10.24249
 Alpha  occ. eigenvalues --  -10.24219 -10.23982 -10.23289 -10.23228 -10.22883
 Alpha  occ. eigenvalues --  -10.22606 -10.22543 -10.21744 -10.21714 -10.21668
 Alpha  occ. eigenvalues --  -10.21467 -10.21113 -10.20858 -10.20832 -10.20764
 Alpha  occ. eigenvalues --  -10.20758 -10.20607 -10.20477 -10.20389 -10.20361
 Alpha  occ. eigenvalues --  -10.20241 -10.20232 -10.20052 -10.19991 -10.19977
 Alpha  occ. eigenvalues --  -10.19916 -10.19832 -10.19751 -10.19746 -10.19675
 Alpha  occ. eigenvalues --  -10.19552 -10.19442 -10.19401 -10.19384 -10.19182
 Alpha  occ. eigenvalues --  -10.19156 -10.18931 -10.18701 -10.18688 -10.18674
 Alpha  occ. eigenvalues --  -10.18523 -10.18427 -10.18322 -10.18224 -10.17924
 Alpha  occ. eigenvalues --  -10.17910 -10.17670 -10.17407 -10.17061  -1.11866
 Alpha  occ. eigenvalues --   -1.10418  -1.02474  -1.00276  -1.00121  -0.98922
 Alpha  occ. eigenvalues --   -0.98339  -0.96508  -0.94110  -0.84579  -0.83301
 Alpha  occ. eigenvalues --   -0.82563  -0.82284  -0.81663  -0.81490  -0.81230
 Alpha  occ. eigenvalues --   -0.80589  -0.80086  -0.79780  -0.79204  -0.78040
 Alpha  occ. eigenvalues --   -0.77109  -0.76049  -0.75620  -0.75311  -0.74815
 Alpha  occ. eigenvalues --   -0.74007  -0.73134  -0.72694  -0.72171  -0.70473
 Alpha  occ. eigenvalues --   -0.70050  -0.68950  -0.68684  -0.68493  -0.67767
 Alpha  occ. eigenvalues --   -0.67609  -0.66791  -0.66426  -0.66072  -0.65791
 Alpha  occ. eigenvalues --   -0.64334  -0.62572  -0.62401  -0.62161  -0.61855
 Alpha  occ. eigenvalues --   -0.61006  -0.58797  -0.58353  -0.58211  -0.57570
 Alpha  occ. eigenvalues --   -0.56896  -0.56508  -0.56271  -0.56069  -0.56023
 Alpha  occ. eigenvalues --   -0.55490  -0.54868  -0.54453  -0.53912  -0.53738
 Alpha  occ. eigenvalues --   -0.52867  -0.52271  -0.51881  -0.51614  -0.51244
 Alpha  occ. eigenvalues --   -0.50548  -0.49471  -0.49342  -0.49058  -0.48636
 Alpha  occ. eigenvalues --   -0.48406  -0.48121  -0.47676  -0.47562  -0.47329
 Alpha  occ. eigenvalues --   -0.47124  -0.46647  -0.46588  -0.46095  -0.46020
 Alpha  occ. eigenvalues --   -0.45924  -0.45581  -0.45435  -0.45138  -0.45008
 Alpha  occ. eigenvalues --   -0.44807  -0.44653  -0.44231  -0.44109  -0.43476
 Alpha  occ. eigenvalues --   -0.43337  -0.43272  -0.43240  -0.43114  -0.42903
 Alpha  occ. eigenvalues --   -0.42595  -0.42397  -0.41951  -0.41867  -0.41625
 Alpha  occ. eigenvalues --   -0.41178  -0.40776  -0.40593  -0.40536  -0.40370
 Alpha  occ. eigenvalues --   -0.40298  -0.40238  -0.40058  -0.39599  -0.39472
 Alpha  occ. eigenvalues --   -0.39171  -0.38908  -0.38695  -0.38451  -0.38408
 Alpha  occ. eigenvalues --   -0.38217  -0.38126  -0.37999  -0.37904  -0.37609
 Alpha  occ. eigenvalues --   -0.37361  -0.37242  -0.36917  -0.36897  -0.36797
 Alpha  occ. eigenvalues --   -0.36677  -0.36600  -0.36341  -0.36210  -0.36087
 Alpha  occ. eigenvalues --   -0.36043  -0.35865  -0.35255  -0.35219  -0.34998
 Alpha  occ. eigenvalues --   -0.34824  -0.34451  -0.34187  -0.33951  -0.33837
 Alpha  occ. eigenvalues --   -0.33781  -0.32985  -0.32866  -0.32365  -0.32224
 Alpha  occ. eigenvalues --   -0.32120  -0.31716  -0.31558  -0.31352  -0.31234
 Alpha  occ. eigenvalues --   -0.30824  -0.30619  -0.30579  -0.30480  -0.30317
 Alpha  occ. eigenvalues --   -0.29791  -0.28970  -0.28832  -0.28786  -0.28649
 Alpha  occ. eigenvalues --   -0.28226  -0.28103  -0.26861  -0.26161  -0.26119
 Alpha  occ. eigenvalues --   -0.25513  -0.24410  -0.24066  -0.23641  -0.20100
 Alpha  occ. eigenvalues --   -0.18394
 Alpha virt. eigenvalues --   -0.10166  -0.07654  -0.04563  -0.01877  -0.00467
 Alpha virt. eigenvalues --   -0.00236   0.00288   0.00529   0.01824   0.03321
 Alpha virt. eigenvalues --    0.03760   0.04020   0.04470   0.04696   0.04890

 Mulliken charges:
               1
     1  C   -0.042996
     2  C   -0.113822
     3  C   -0.047696
     4  C   -0.092127
     5  N   -0.125053
     6  C   -0.107792
     7  C    0.094465
     8  C   -0.060551
     9  C    0.028679
    10  C    0.012897
    11  C   -0.119107
    12  C    0.142894
    13  C    0.154818
    14  O   -0.258364
    15  O   -0.262428
    16  N   -0.052258
    17  C    0.101189
    18  C   -0.097192
    19  C   -0.040316
    20  C    0.070285
    21  C    0.048792
    22  C    0.026894
    23  C   -0.057954
    24  N   -0.186765
    25  C    0.073362
    26  C   -0.130912
    27  C   -0.139481
    28  C   -0.027244
    29  C    0.170922
    30  C    0.107015
    31  C   -0.042721
    32  N   -0.019719
    33  C    0.160460
    34  C   -0.116163
    35  C   -0.013133
    36  C    0.128796
    37  C    0.078210
    38  C    0.039696
    39  O   -0.207623
    40  C   -0.060072
    41  C    0.222554
    42  O   -0.197252
    43  O   -0.277578
    44  C    0.130916
    45  C    0.261921
    46  C   -0.061231
    47  C   -0.116084
    48  C    0.024215
    49  C    0.066944
    50  C   -0.037095
    51  C    0.078647
    52  C   -0.041542
    53  C    0.042347
    54  C   -0.026005
    55  C    0.007864
    56  C    0.085245
    57  C   -0.023645
    58  C    0.088202
    59  C   -0.041888
    60  C    0.022171
    61  C    0.057686
    62  C   -0.100752
    63  C   -0.000944
    64  C   -0.056212
    65  H    0.028437
    66  H   -0.058375
    67  H   -0.003958
    68  H   -0.012338
    69  H    0.023680
    70  H   -0.006198
    71  H    0.007537
    72  H    0.046383
    73  H    0.032330
    74  H    0.013201
    75  H    0.025964
    76  H   -0.017160
    77  H    0.028693
    78  H    0.015380
    79  H    0.038089
    80  H   -0.012799
    81  H    0.034436
    82  H    0.023802
    83  H    0.004894
    84  H    0.010560
    85  H   -0.031007
    86  H    0.006206
    87  H    0.003005
    88  H    0.009588
    89  H   -0.006706
    90  H    0.036735
    91  H    0.036947
    92  H    0.019262
    93  H    0.051921
    94  H    0.074197
    95  H    0.036327
    96  H    0.025249
    97  H    0.041803
    98  H    0.015434
    99  H   -0.004831
   100  H   -0.031297
   101  H    0.034008
   102  H    0.052783
   103  H    0.017294
   104  H    0.003964
   105  H   -0.023827
   106  H    0.011040
   107  H    0.007173
   108  H    0.011753
   109  H   -0.009302
   110  H    0.000563
   111  H   -0.022981
   112  H    0.017249
   113  H   -0.010190
   114  H   -0.010888
   115  H   -0.020872
   116  H   -0.002325
   117  H   -0.011453
   118  H    0.010796
   119  H   -0.029981
   120  H   -0.067988
   121  H    0.007915
   122  H    0.027818
   123  H   -0.010615
   124  H   -0.001401
   125  H   -0.010675
   126  H   -0.018804
   127  H    0.020924
   128  H   -0.007972
   129  H   -0.001206
   130  H    0.005417
   131  H    0.005987
   132  H    0.020162
   133  H    0.025181
   134  H    0.026247
   135  H    0.005365
   136  H    0.013334
   137  H    0.166861
   138  H    0.136886
 Sum of Mulliken charges =   0.00000

 Dipole moment (field-independent basis, Debye):
    X=              1.8749    Y=              3.5416    Z=              1.2683  Tot=              4.2032
 Quadrupole moment (field-independent basis, Debye-Ang):
   XX=           -355.1930   YY=           -388.1868   ZZ=           -396.5856
   XY=            -24.9456   XZ=              8.9065   YZ=              0.4203

 Normal termination of Gaussian 09 at Sat Aug  3 07:02:45 2019.
