 Gaussian 09, Revision D.01,
 Gaussian 09:  ES64L-G09RevD.01 24-Apr-2013

 --------------------------
 # td=(NStates=1) B3LYP/SVP
 --------------------------

 --
 TD
 --
 Symbolic Z-matrix:
 Charge =  0 Multiplicity = 1

                         Standard orientation:
 ---------------------------------------------------------------------
 Center     Atomic      Atomic             Coordinates (Angstroms)
 Number     Number       Type             X           Y           Z
 ---------------------------------------------------------------------
      1          6           0       -5.113476   -1.892901    0.435819
      2          6           0       -4.645513    2.761619    1.459721
      3          6           0       -9.196404    3.400147   -0.284986
      4          6           0       -9.852070   -1.412578   -0.930567
      5          7           0       -5.129515    0.442131    0.796044
      6          6           0       -4.502226   -0.743777    0.857778
      7          6           0       -3.025065   -0.586113    1.212621
      8          6           0       -3.019456    0.797008    1.881568
      9          6           0       -4.315285    1.399233    1.362650
     10          6           0       -2.986970    0.836453    3.403084
     11          6           0       -2.023366   -0.906200    0.098431
     12          6           0       -0.552718   -0.879317    0.538130
     13          6           0        0.419454   -1.200657   -0.584933
     14          8           0        0.208726   -1.510056   -1.665466
     15          8           0        1.726653   -0.915867   -0.109594
     16          7           0       -6.961849    2.757244    0.582468
     17          6           0       -5.915116    3.333854    1.103655
     18          6           0       -6.125506    4.699971    1.061708
     19          6           0       -7.426020    5.001424    0.641883
     20          6           0       -7.882414    3.716068    0.219525
     21          6           0       -5.152157    5.737177    1.684457
     22          6           0       -8.039694    6.177274    0.422448
     23          6           0       -8.823214    6.733099   -0.576660
     24          7           0       -9.177803    0.877812   -0.405185
     25          6           0       -9.778396    2.115748   -0.503536
     26          6           0      -11.200310    1.968341   -0.971265
     27          6           0      -11.368537    0.626451   -1.203388
     28          6           0      -10.150673   -0.076046   -0.917122
     29          6           0      -12.171241    3.022599   -1.315430
     30          6           0      -12.613528   -0.077933   -1.702823
     31          6           0      -12.676193   -0.185168   -3.286955
     32          7           0       -7.531435   -1.267448   -0.280062
     33          6           0       -8.640954   -1.986506   -0.654359
     34          6           0       -8.121169   -3.377343   -0.732170
     35          6           0       -6.888432   -3.377407   -0.254806
     36          6           0       -6.457340   -2.035197    0.065567
     37          6           0       -8.907565   -4.558415   -1.096525
     38          6           0       -5.706353   -4.274833   -0.149099
     39          8           0       -5.595047   -5.474315   -0.209740
     40          6           0       -4.552246   -3.312713    0.440531
     41          6           0       -4.129208   -3.773693    1.698956
     42          8           0       -4.361699   -3.307529    2.847589
     43          8           0       -3.148518   -4.812007    1.567516
     44          6           0       -2.500607   -5.449072    2.646611
     45          6           0        2.710706   -1.237254   -1.048265
     46          6           0        4.071982   -0.801839   -0.464563
     47          6           0        4.987829    0.032759   -0.981028
     48          6           0        4.836198    0.893135   -2.296488
     49          6           0        6.231863    0.212294   -0.168874
     50          6           0        7.454748   -0.357500   -0.887459
     51          6           0        8.693532   -0.319773   -0.019475
     52          6           0        9.949261   -0.934781   -0.652212
     53          6           0        9.853674   -2.305505   -0.904341
     54          6           0       11.159660   -0.478795    0.196767
     55          6           0       12.525649   -0.794834   -0.446048
     56          6           0       13.726240    0.029553    0.229396
     57          6           0       15.119650   -0.248342   -0.355995
     58          6           0       15.569546   -1.618566   -0.615292
     59          6           0       16.082775    0.661201    0.439805
     60          6           0       17.567186    0.749995   -0.186065
     61          6           0       18.553912    1.763168    0.535912
     62          6           0       19.920905    1.745804   -0.089460
     63          6           0       20.139963    2.573617   -1.435454
     64          6           0       20.910217    2.373393    0.844392
     65          1           0       -3.889532    3.455724    1.856626
     66          1           0       -9.753828    4.340843   -0.650655
     67          1           0      -10.574789   -2.059162   -1.182976
     68          1           0       -2.902465   -1.361321    2.023432
     69          1           0       -2.221085    1.187695    1.374714
     70          1           0       -2.057927    0.328572    3.671200
     71          1           0       -2.932400    1.964185    3.650809
     72          1           0       -3.903058    0.350893    3.809394
     73          1           0       -2.362120   -1.936417   -0.395786
     74          1           0       -1.919211   -0.058463   -0.847141
     75          1           0       -0.240786    0.029180    0.978004
     76          1           0       -0.358618   -1.663362    1.295823
     77          1           0       -4.257984    5.884970    1.256761
     78          1           0       -5.452870    6.616280    1.872191
     79          1           0       -4.889015    5.097346    2.749729
     80          1           0       -7.900134    6.974780    1.108978
     81          1           0       -9.292047    5.809620   -1.349688
     82          1           0       -9.035969    7.789017   -0.687426
     83          1           0      -12.142657    3.816142   -0.479178
     84          1           0      -11.947580    3.414690   -2.404914
     85          1           0      -13.131063    2.497377   -1.286563
     86          1           0      -12.295135   -1.186122   -1.300765
     87          1           0      -13.496133    0.315293   -1.298779
     88          1           0      -12.995883    0.944518   -3.708499
     89          1           0      -11.719064   -0.520599   -3.836798
     90          1           0      -13.566753   -0.926972   -3.846520
     91          1           0       -9.932558   -4.643496   -0.811955
     92          1           0       -9.266037   -4.467452   -2.217480
     93          1           0       -8.449452   -5.437414   -0.845698
     94          1           0       -3.747875   -3.339951   -0.366833
     95          1           0       -1.823630   -6.223346    2.335187
     96          1           0       -2.095138   -4.730687    3.496914
     97          1           0       -3.219080   -5.880023    3.337494
     98          1           0        2.783068   -2.287263   -1.289846
     99          1           0        2.685022   -0.601227   -2.208175
    100          1           0        4.258900   -1.348467    0.460803
    101          1           0        5.126608    2.053303   -2.189363
    102          1           0        5.465552    0.645097   -3.221341
    103          1           0        3.757115    0.768181   -2.815233
    104          1           0        6.561019    1.336875    0.210624
    105          1           0        6.134468   -0.233220    0.727923
    106          1           0        6.994381   -1.370831   -1.479095
    107          1           0        7.597131    0.045413   -1.978374
    108          1           0        8.910287    0.831368    0.249691
    109          1           0        8.436920   -0.884780    0.858959
    110          1           0       10.013958   -0.461627   -1.579976
    111          1           0        8.934656   -2.617489   -1.471698
    112          1           0       10.678758   -2.783527   -1.516878
    113          1           0        9.862801   -3.070962    0.027924
    114          1           0       11.213312    0.717384    0.257643
    115          1           0       11.004759   -0.933009    1.292193
    116          1           0       12.633292   -1.897476   -0.421335
    117          1           0       12.537603   -0.547843   -1.456701
    118          1           0       13.569574    1.098675    0.576031
    119          1           0       13.678461   -0.464980    1.248634
    120          1           0       15.016471    0.213013   -1.320569
    121          1           0       15.134612   -2.297350   -1.504047
    122          1           0       16.395139   -1.669916   -0.972589
    123          1           0       15.520503   -2.055077    0.488381
    124          1           0       15.790745    1.575368    0.657479
    125          1           0       16.132540    0.298028    1.432605
    126          1           0       17.975748   -0.319417   -0.065512
    127          1           0       17.600290    0.999886   -1.290559
    128          1           0       18.175051    2.668901    0.549122
    129          1           0       18.540254    1.357045    1.627641
    130          1           0       20.028272    0.570809   -0.369336
    131          1           0       19.881991    3.541076   -1.382467
    132          1           0       21.290557    2.422167   -1.675817
    133          1           0       19.424791    2.227352   -2.377699
    134          1           0       20.999371    1.951788    1.882782
    135          1           0       22.066537    2.478230    0.504452
    136          1           0       20.608756    3.627283    1.102861
    137          1           0       -7.009734    1.784998    0.430699
    138          1           0       -7.827557   -0.210061   -0.189372
 ---------------------------------------------------------------------

 SCF Done:  E(RB3LYP) =  -2732.95966431     A.U. after   17 cycles

 Excitation energies and oscillator strengths:

 Excited State   1:      Singlet-A      2.0302 eV  610.69 nm  f=0.1748  <S**2>=0.000
     235 -> 238        0.30260
     236 -> 237        0.62730
 This state for optimization and/or second-order correction.
 Total Energy, E(TD-HF/TD-KS) =  -2732.88505474
 Copying the excited state density for this state as the 1-particle RhoCI density.

 The electronic state is 1-A.
 Alpha  occ. eigenvalues --  -19.17139 -19.16558 -19.14290 -19.13879 -19.12938
 Alpha  occ. eigenvalues --  -14.37275 -14.36342 -14.32285 -14.31044 -10.32420
 Alpha  occ. eigenvalues --  -10.31703 -10.29441 -10.25298 -10.24228 -10.23920
 Alpha  occ. eigenvalues --  -10.23912 -10.23364 -10.23288 -10.22935 -10.22836
 Alpha  occ. eigenvalues --  -10.22649 -10.22454 -10.22212 -10.22188 -10.21843
 Alpha  occ. eigenvalues --  -10.21765 -10.21441 -10.21432 -10.21404 -10.21031
 Alpha  occ. eigenvalues --  -10.20799 -10.20599 -10.20594 -10.20508 -10.20461
 Alpha  occ. eigenvalues --  -10.20387 -10.20371 -10.20335 -10.20142 -10.20045
 Alpha  occ. eigenvalues --  -10.20027 -10.19768 -10.19720 -10.19585 -10.19475
 Alpha  occ. eigenvalues --  -10.19294 -10.19277 -10.19171 -10.19167 -10.19103
 Alpha  occ. eigenvalues --  -10.19020 -10.18932 -10.18848 -10.18693 -10.18679
 Alpha  occ. eigenvalues --  -10.18644 -10.18495 -10.18282 -10.18141 -10.17699
 Alpha  occ. eigenvalues --  -10.17676 -10.17521 -10.17444 -10.16894  -1.11246
 Alpha  occ. eigenvalues --   -1.06196  -1.04313  -1.02946  -1.00862  -0.98455
 Alpha  occ. eigenvalues --   -0.98151  -0.94549  -0.91815  -0.85663  -0.83615
 Alpha  occ. eigenvalues --   -0.82794  -0.81720  -0.81572  -0.81322  -0.80864
 Alpha  occ. eigenvalues --   -0.80774  -0.80042  -0.80016  -0.79424  -0.78423
 Alpha  occ. eigenvalues --   -0.76842  -0.76110  -0.75648  -0.74702  -0.73950
 Alpha  occ. eigenvalues --   -0.73874  -0.72870  -0.72628  -0.71786  -0.71683
 Alpha  occ. eigenvalues --   -0.70063  -0.69222  -0.68875  -0.68785  -0.67544
 Alpha  occ. eigenvalues --   -0.67247  -0.66652  -0.66432  -0.65543  -0.64888
 Alpha  occ. eigenvalues --   -0.64673  -0.63956  -0.63185  -0.62253  -0.60842
 Alpha  occ. eigenvalues --   -0.60645  -0.59053  -0.58823  -0.58364  -0.57932
 Alpha  occ. eigenvalues --   -0.57468  -0.56850  -0.56111  -0.55904  -0.55449
 Alpha  occ. eigenvalues --   -0.55169  -0.55012  -0.54914  -0.54566  -0.53279
 Alpha  occ. eigenvalues --   -0.53163  -0.52419  -0.52177  -0.51670  -0.51228
 Alpha  occ. eigenvalues --   -0.50128  -0.49777  -0.49603  -0.48789  -0.48303
 Alpha  occ. eigenvalues --   -0.47963  -0.47716  -0.47539  -0.47279  -0.47075
 Alpha  occ. eigenvalues --   -0.47007  -0.46403  -0.46094  -0.45869  -0.45806
 Alpha  occ. eigenvalues --   -0.45694  -0.45445  -0.45288  -0.44978  -0.44868
 Alpha  occ. eigenvalues --   -0.44753  -0.44489  -0.44234  -0.44138  -0.43950
 Alpha  occ. eigenvalues --   -0.43581  -0.43525  -0.43440  -0.43141  -0.43104
 Alpha  occ. eigenvalues --   -0.42861  -0.42342  -0.42100  -0.41861  -0.41426
 Alpha  occ. eigenvalues --   -0.41205  -0.40926  -0.40666  -0.40516  -0.40398
 Alpha  occ. eigenvalues --   -0.40133  -0.40105  -0.39876  -0.39679  -0.39649
 Alpha  occ. eigenvalues --   -0.39435  -0.39204  -0.39161  -0.38457  -0.38405
 Alpha  occ. eigenvalues --   -0.38216  -0.38091  -0.37731  -0.37657  -0.37460
 Alpha  occ. eigenvalues --   -0.37258  -0.36907  -0.36850  -0.36500  -0.36484
 Alpha  occ. eigenvalues --   -0.36356  -0.36123  -0.36111  -0.36079  -0.36004
 Alpha  occ. eigenvalues --   -0.35898  -0.35836  -0.35549  -0.35347  -0.34989
 Alpha  occ. eigenvalues --   -0.34785  -0.34680  -0.34472  -0.34250  -0.33897
 Alpha  occ. eigenvalues --   -0.33500  -0.33031  -0.32741  -0.32485  -0.32225
 Alpha  occ. eigenvalues --   -0.32222  -0.31725  -0.31388  -0.31372  -0.30817
 Alpha  occ. eigenvalues --   -0.30655  -0.30283  -0.30233  -0.29381  -0.29159
 Alpha  occ. eigenvalues --   -0.29108  -0.28363  -0.28307  -0.28108  -0.27933
 Alpha  occ. eigenvalues --   -0.27790  -0.27629  -0.27367  -0.26802  -0.26532
 Alpha  occ. eigenvalues --   -0.25934  -0.24911  -0.23807  -0.22853  -0.20141
 Alpha  occ. eigenvalues --   -0.19321
 Alpha virt. eigenvalues --   -0.10754  -0.08236  -0.05181  -0.03021  -0.02204
 Alpha virt. eigenvalues --   -0.00026   0.00119   0.00704   0.01838   0.03436
 Alpha virt. eigenvalues --    0.03776   0.04037   0.04117   0.04513   0.04608

 Mulliken charges:
               1
     1  C   -0.020775
     2  C   -0.065471
     3  C   -0.093471
     4  C   -0.004005
     5  N   -0.175971
     6  C   -0.079788
     7  C   -0.040742
     8  C    0.049902
     9  C   -0.029470
    10  C    0.100606
    11  C   -0.022835
    12  C    0.063285
    13  C    0.153184
    14  O   -0.134342
    15  O   -0.339875
    16  N    0.053705
    17  C    0.047342
    18  C   -0.143096
    19  C    0.172956
    20  C    0.009092
    21  C    0.181600
    22  C   -0.129090
    23  C   -0.081260
    24  N   -0.328702
    25  C    0.114878
    26  C   -0.177165
    27  C   -0.044573
    28  C    0.098764
    29  C    0.077308
    30  C    0.059610
    31  C   -0.106440
    32  N   -0.091041
    33  C    0.033491
    34  C   -0.121863
    35  C   -0.028505
    36  C    0.132854
    37  C    0.139883
    38  C    0.090554
    39  O   -0.140536
    40  C   -0.073816
    41  C    0.293137
    42  O   -0.258466
    43  O   -0.354609
    44  C    0.193194
    45  C    0.208029
    46  C   -0.104106
    47  C   -0.067204
    48  C   -0.034249
    49  C    0.137313
    50  C   -0.121687
    51  C    0.064749
    52  C    0.033644
    53  C   -0.015013
    54  C   -0.048332
    55  C    0.085394
    56  C   -0.020485
    57  C   -0.022582
    58  C    0.139634
    59  C    0.113530
    60  C   -0.056167
    61  C    0.092999
    62  C   -0.090148
    63  C    0.006504
    64  C   -0.058745
    65  H   -0.019013
    66  H   -0.000817
    67  H   -0.097866
    68  H    0.009476
    69  H   -0.050840
    70  H    0.016085
    71  H    0.022630
    72  H    0.042269
    73  H    0.039307
    74  H    0.035091
    75  H    0.025171
    76  H    0.028146
    77  H   -0.009891
    78  H   -0.055839
    79  H    0.036539
    80  H   -0.010214
    81  H    0.044374
    82  H    0.036325
    83  H    0.039181
    84  H    0.057056
    85  H    0.008732
    86  H    0.024278
    87  H    0.009295
    88  H    0.028363
    89  H    0.042556
    90  H    0.034093
    91  H   -0.000837
    92  H    0.018005
    93  H    0.014982
    94  H    0.086000
    95  H    0.038558
    96  H    0.018254
    97  H    0.003984
    98  H    0.017072
    99  H    0.025688
   100  H   -0.003594
   101  H    0.041344
   102  H    0.033566
   103  H    0.029057
   104  H    0.004097
   105  H   -0.047820
   106  H    0.010202
   107  H   -0.002083
   108  H    0.017882
   109  H   -0.012462
   110  H   -0.040664
   111  H    0.009017
   112  H    0.009438
   113  H    0.001981
   114  H    0.005299
   115  H    0.013808
   116  H    0.006223
   117  H   -0.031220
   118  H    0.003976
   119  H   -0.022913
   120  H   -0.031060
   121  H    0.012804
   122  H   -0.091537
   123  H    0.012513
   124  H   -0.062636
   125  H   -0.039971
   126  H    0.016117
   127  H    0.005542
   128  H   -0.050261
   129  H    0.004611
   130  H    0.018964
   131  H   -0.014504
   132  H    0.036407
   133  H    0.015475
   134  H    0.016897
   135  H    0.026555
   136  H    0.015687
   137  H    0.117590
   138  H    0.186966
 Sum of Mulliken charges =   0.00000

 Dipole moment (field-independent basis, Debye):
    X=              0.7422    Y=              3.9272    Z=             -0.0403  Tot=              3.9969
 Quadrupole moment (field-independent basis, Debye-Ang):
   XX=           -358.1282   YY=           -380.2976   ZZ=           -397.3822
   XY=            -18.7607   XZ=             10.0816   YZ=              2.4060

 Normal termination of Gaussian 09 at Fri Jul 26 05:37:14 2019.
