 Gaussian 09, Revision D.01,
 Gaussian 09:  ES64L-G09RevD.01 24-Apr-2013

 --------------------------
 # td=(NStates=1) B3LYP/SVP
 --------------------------

 --
 TD
 --
 Symbolic Z-matrix:
 Charge =  0 Multiplicity = 1

                         Standard orientation:
 ---------------------------------------------------------------------
 Center     Atomic      Atomic             Coordinates (Angstroms)
 Number     Number       Type             X           Y           Z
 ---------------------------------------------------------------------
      1          6           0       -5.207915   -1.951638    0.516054
      2          6           0       -4.712991    2.788045    1.511957
      3          6           0       -9.231810    3.466095   -0.197223
      4          6           0       -9.775663   -1.235409   -1.301982
      5          7           0       -5.154213    0.440798    0.942129
      6          6           0       -4.573367   -0.787069    0.928226
      7          6           0       -3.108235   -0.680517    1.379896
      8          6           0       -3.067577    0.847301    2.035427
      9          6           0       -4.387215    1.373288    1.496529
     10          6           0       -3.037421    0.873557    3.556858
     11          6           0       -2.150082   -0.850072    0.203903
     12          6           0       -0.671651   -0.911841    0.658939
     13          6           0        0.335232   -1.204474   -0.413909
     14          8           0        0.098795   -1.626740   -1.515433
     15          8           0        1.645306   -0.913053   -0.089473
     16          7           0       -7.002100    2.811746    0.503662
     17          6           0       -5.883880    3.355320    1.155711
     18          6           0       -6.073982    4.778390    1.164506
     19          6           0       -7.343880    4.958329    0.616352
     20          6           0       -7.949064    3.737580    0.252130
     21          6           0       -5.096289    5.769480    1.586450
     22          6           0       -8.036564    6.346267    0.498887
     23          6           0       -8.734393    6.786555   -0.611940
     24          7           0       -9.167481    1.113456   -0.701618
     25          6           0       -9.789875    2.339946   -0.712149
     26          6           0      -11.214522    2.007408   -1.182316
     27          6           0      -11.322800    0.650990   -1.251108
     28          6           0      -10.018543    0.127376   -1.087924
     29          6           0      -12.160617    3.159885   -1.231613
     30          6           0      -12.576460   -0.029426   -1.848769
     31          6           0      -12.462765   -0.273952   -3.423230
     32          7           0       -7.461927   -1.252562   -0.357318
     33          6           0       -8.551549   -1.953811   -0.913913
     34          6           0       -8.287797   -3.288925   -0.827835
     35          6           0       -6.891673   -3.338323   -0.259998
     36          6           0       -6.484736   -1.934784   -0.050004
     37          6           0       -9.132462   -4.496344   -1.277232
     38          6           0       -5.830377   -4.249628    0.055855
     39          8           0       -5.890542   -5.376281   -0.094294
     40          6           0       -4.608691   -3.412661    0.549569
     41          6           0       -4.108181   -3.837285    1.798209
     42          8           0       -4.289077   -3.403702    2.935864
     43          8           0       -3.311238   -4.850790    1.638479
     44          6           0       -2.795666   -5.466118    2.879743
     45          6           0        2.705054   -1.280167   -0.982889
     46          6           0        3.990690   -0.861879   -0.385976
     47          6           0        5.021306   -0.366546   -1.060839
     48          6           0        4.959176    0.140613   -2.512306
     49          6           0        6.394941   -0.014755   -0.335537
     50          6           0        7.496150   -0.684041   -0.842566
     51          6           0        8.804813   -0.406357   -0.163137
     52          6           0       10.075730   -1.091619   -0.653130
     53          6           0       10.025117   -2.493800   -0.695022
     54          6           0       11.378123   -0.517119    0.045726
     55          6           0       12.717489   -0.819539   -0.594859
     56          6           0       13.824881   -0.110675    0.149684
     57          6           0       15.249259   -0.306489   -0.549698
     58          6           0       15.811207   -1.784499   -0.307760
     59          6           0       16.242379    0.761039    0.273646
     60          6           0       17.575175    0.868311   -0.340317
     61          6           0       18.411169    1.886662    0.510538
     62          6           0       19.942670    2.056185    0.035445
     63          6           0       20.139296    2.548651   -1.515571
     64          6           0       20.738749    3.021987    0.956969
     65          1           0       -4.041468    3.449262    2.000159
     66          1           0       -9.811361    4.406091    0.101884
     67          1           0      -10.467918   -1.857165   -1.583294
     68          1           0       -3.020705   -1.371243    2.295074
     69          1           0       -2.258074    1.486393    1.434594
     70          1           0       -2.053164    0.566814    3.981307
     71          1           0       -3.102986    1.881243    3.933446
     72          1           0       -3.946509    0.087218    3.756120
     73          1           0       -2.284940   -1.884869   -0.182768
     74          1           0       -2.434894   -0.102804   -0.497643
     75          1           0       -0.376867    0.053001    0.954689
     76          1           0       -0.644019   -1.402809    1.633069
     77          1           0       -4.148466    5.811839    0.919988
     78          1           0       -5.363993    6.859971    1.495022
     79          1           0       -4.735985    5.571764    2.571255
     80          1           0       -7.810161    6.911049    1.419446
     81          1           0       -8.909857    6.029922   -1.516987
     82          1           0       -9.083134    7.787746   -0.820680
     83          1           0      -12.391063    3.508491   -0.234056
     84          1           0      -11.682771    3.933825   -1.844355
     85          1           0      -13.094699    2.884108   -1.679950
     86          1           0      -12.569712   -1.144672   -1.420482
     87          1           0      -13.622831    0.292385   -1.520457
     88          1           0      -12.381113    0.583620   -4.177464
     89          1           0      -11.673199   -0.962287   -3.611003
     90          1           0      -13.398933   -0.838369   -3.825712
     91          1           0      -10.158089   -4.629412   -0.743800
     92          1           0       -9.277309   -4.394253   -2.279705
     93          1           0       -8.524793   -5.456595   -1.066396
     94          1           0       -3.821322   -3.302487   -0.341226
     95          1           0       -2.081178   -6.261151    2.504547
     96          1           0       -2.254658   -4.621618    3.382225
     97          1           0       -3.753356   -5.844049    3.555740
     98          1           0        2.785028   -2.426924   -1.032025
     99          1           0        2.594650   -0.886484   -2.019288
    100          1           0        4.111068   -1.112726    0.765015
    101          1           0        5.438007    1.033699   -2.311687
    102          1           0        5.499597   -0.508113   -3.046103
    103          1           0        3.875898    0.280693   -2.750142
    104          1           0        6.436529    1.187537   -0.299790
    105          1           0        6.266843   -0.244145    0.825120
    106          1           0        7.183065   -1.683912   -0.700255
    107          1           0        7.684294   -0.510208   -2.031839
    108          1           0        8.869578    0.844424   -0.049853
    109          1           0        8.596703   -0.791183    0.869145
    110          1           0       10.171932   -0.664203   -1.544754
    111          1           0        9.196794   -3.154968   -1.170775
    112          1           0       10.890372   -2.762796   -1.015352
    113          1           0       10.036709   -2.950478    0.256080
    114          1           0       11.342242    0.591745    0.015559
    115          1           0       11.272244   -0.693318    1.146494
    116          1           0       12.884782   -1.913714   -0.787225
    117          1           0       12.579772   -0.560053   -1.698173
    118          1           0       13.672132    0.964054    0.208035
    119          1           0       13.793398   -0.564759    1.184145
    120          1           0       15.031613   -0.082995   -1.666866
    121          1           0       15.210130   -2.393663   -0.787282
    122          1           0       16.656853   -1.952520   -1.077667
    123          1           0       15.983705   -2.020593    0.643207
    124          1           0       15.826391    1.713925    0.329726
    125          1           0       16.416177    0.348497    1.226827
    126          1           0       17.937122   -0.124309   -0.573701
    127          1           0       17.412427    1.328593   -1.314358
    128          1           0       17.895635    2.954068    0.420812
    129          1           0       18.497052    1.659881    1.600329
    130          1           0       20.394029    1.153773   -0.141265
    131          1           0       19.397449    3.500783   -1.797880
    132          1           0       21.361047    2.773044   -1.553354
    133          1           0       19.959248    1.620222   -2.276891
    134          1           0       20.847855    2.704213    2.056515
    135          1           0       21.747185    3.081343    0.817849
    136          1           0       20.063498    4.136311    0.933144
    137          1           0       -7.179221    1.826194    0.636177
    138          1           0       -7.345697   -0.218418   -0.308103
 ---------------------------------------------------------------------

 SCF Done:  E(RB3LYP) =  -2733.06119679     A.U. after   17 cycles

 Excitation energies and oscillator strengths:

 Excited State   1:      Singlet-A      2.0819 eV  595.53 nm  f=0.1710  <S**2>=0.000
     235 -> 237       -0.22055
     235 -> 238       -0.27141
     236 -> 237        0.59732
     236 -> 238       -0.12823
 This state for optimization and/or second-order correction.
 Total Energy, E(TD-HF/TD-KS) =  -2732.98468753
 Copying the excited state density for this state as the 1-particle RhoCI density.

 The electronic state is 1-A.
 Alpha  occ. eigenvalues --  -19.17399 -19.16726 -19.12189 -19.11312 -19.11028
 Alpha  occ. eigenvalues --  -14.37236 -14.36250 -14.32348 -14.29278 -10.31654
 Alpha  occ. eigenvalues --  -10.30556 -10.26446 -10.26194 -10.24892 -10.23390
 Alpha  occ. eigenvalues --  -10.23357 -10.23305 -10.23259 -10.22640 -10.22425
 Alpha  occ. eigenvalues --  -10.21927 -10.21688 -10.21456 -10.21448 -10.21331
 Alpha  occ. eigenvalues --  -10.21327 -10.21257 -10.21148 -10.21118 -10.20722
 Alpha  occ. eigenvalues --  -10.20637 -10.20624 -10.20564 -10.20423 -10.20410
 Alpha  occ. eigenvalues --  -10.20377 -10.20335 -10.19972 -10.19968 -10.19966
 Alpha  occ. eigenvalues --  -10.19859 -10.19732 -10.19644 -10.19530 -10.19430
 Alpha  occ. eigenvalues --  -10.19319 -10.19220 -10.19047 -10.19015 -10.18645
 Alpha  occ. eigenvalues --  -10.18557 -10.18525 -10.18409 -10.18278 -10.18249
 Alpha  occ. eigenvalues --  -10.18084 -10.17981 -10.17957 -10.17710 -10.17295
 Alpha  occ. eigenvalues --  -10.17233 -10.16947 -10.16878 -10.15974  -1.10357
 Alpha  occ. eigenvalues --   -1.08555  -1.06577  -1.00832  -0.99959  -0.98495
 Alpha  occ. eigenvalues --   -0.98478  -0.94497  -0.92787  -0.84498  -0.83679
 Alpha  occ. eigenvalues --   -0.82203  -0.81986  -0.81210  -0.81115  -0.80523
 Alpha  occ. eigenvalues --   -0.80445  -0.78919  -0.78733  -0.77925  -0.77781
 Alpha  occ. eigenvalues --   -0.77258  -0.76208  -0.75765  -0.75420  -0.74224
 Alpha  occ. eigenvalues --   -0.73890  -0.73302  -0.72852  -0.72472  -0.71332
 Alpha  occ. eigenvalues --   -0.70511  -0.69555  -0.68828  -0.68668  -0.67799
 Alpha  occ. eigenvalues --   -0.67553  -0.66322  -0.66106  -0.65416  -0.64641
 Alpha  occ. eigenvalues --   -0.64268  -0.62719  -0.62528  -0.61468  -0.60952
 Alpha  occ. eigenvalues --   -0.60842  -0.58992  -0.58335  -0.57880  -0.57248
 Alpha  occ. eigenvalues --   -0.57031  -0.56396  -0.56238  -0.55815  -0.55583
 Alpha  occ. eigenvalues --   -0.55268  -0.54836  -0.54335  -0.53913  -0.53083
 Alpha  occ. eigenvalues --   -0.52706  -0.52045  -0.51576  -0.51393  -0.50122
 Alpha  occ. eigenvalues --   -0.49758  -0.49298  -0.48815  -0.48645  -0.48391
 Alpha  occ. eigenvalues --   -0.48229  -0.48187  -0.47368  -0.47122  -0.46750
 Alpha  occ. eigenvalues --   -0.46601  -0.46452  -0.46182  -0.46092  -0.45976
 Alpha  occ. eigenvalues --   -0.45877  -0.45455  -0.45370  -0.44957  -0.44768
 Alpha  occ. eigenvalues --   -0.44445  -0.44264  -0.43911  -0.43781  -0.43534
 Alpha  occ. eigenvalues --   -0.43374  -0.43143  -0.43124  -0.42887  -0.42718
 Alpha  occ. eigenvalues --   -0.42616  -0.42210  -0.42017  -0.41812  -0.41701
 Alpha  occ. eigenvalues --   -0.41535  -0.41314  -0.40955  -0.40930  -0.40600
 Alpha  occ. eigenvalues --   -0.40444  -0.40373  -0.40156  -0.40059  -0.39815
 Alpha  occ. eigenvalues --   -0.39675  -0.39334  -0.39054  -0.38695  -0.38582
 Alpha  occ. eigenvalues --   -0.38254  -0.38094  -0.37722  -0.37630  -0.37466
 Alpha  occ. eigenvalues --   -0.37310  -0.37149  -0.37058  -0.36752  -0.36709
 Alpha  occ. eigenvalues --   -0.36427  -0.36304  -0.36166  -0.35794  -0.35649
 Alpha  occ. eigenvalues --   -0.35546  -0.35541  -0.35071  -0.34885  -0.34685
 Alpha  occ. eigenvalues --   -0.34469  -0.34264  -0.34193  -0.33873  -0.33326
 Alpha  occ. eigenvalues --   -0.33201  -0.33081  -0.32941  -0.32503  -0.32112
 Alpha  occ. eigenvalues --   -0.32014  -0.31889  -0.31656  -0.31210  -0.31051
 Alpha  occ. eigenvalues --   -0.30769  -0.30192  -0.30142  -0.29876  -0.29857
 Alpha  occ. eigenvalues --   -0.29830  -0.29532  -0.28534  -0.27702  -0.27550
 Alpha  occ. eigenvalues --   -0.27401  -0.27241  -0.26112  -0.25203  -0.24886
 Alpha  occ. eigenvalues --   -0.24826  -0.24411  -0.24262  -0.22527  -0.19689
 Alpha  occ. eigenvalues --   -0.19029
 Alpha virt. eigenvalues --   -0.10446  -0.07248  -0.03823  -0.01995  -0.00661
 Alpha virt. eigenvalues --   -0.00018   0.01060   0.01494   0.02709   0.03776
 Alpha virt. eigenvalues --    0.04141   0.04678   0.04759   0.04872   0.05372

 Mulliken charges:
               1
     1  C   -0.088581
     2  C   -0.049669
     3  C   -0.102871
     4  C    0.009232
     5  N   -0.148214
     6  C   -0.098405
     7  C   -0.096631
     8  C   -0.090374
     9  C   -0.044890
    10  C    0.056953
    11  C    0.096341
    12  C    0.075106
    13  C    0.192671
    14  O   -0.220778
    15  O   -0.340295
    16  N   -0.046978
    17  C    0.114179
    18  C   -0.102190
    19  C   -0.032119
    20  C    0.046023
    21  C    0.077853
    22  C   -0.028005
    23  C   -0.062885
    24  N   -0.239357
    25  C    0.083636
    26  C   -0.127544
    27  C   -0.102888
    28  C    0.122508
    29  C    0.153342
    30  C    0.007869
    31  C   -0.011620
    32  N    0.090441
    33  C    0.047801
    34  C   -0.120399
    35  C   -0.102986
    36  C    0.025563
    37  C    0.092898
    38  C   -0.000852
    39  O   -0.086798
    40  C   -0.022905
    41  C    0.205967
    42  O   -0.267172
    43  O   -0.281914
    44  C    0.133626
    45  C    0.266664
    46  C   -0.115743
    47  C   -0.207493
    48  C    0.191009
    49  C   -0.024489
    50  C    0.060673
    51  C   -0.043336
    52  C    0.066924
    53  C    0.181505
    54  C   -0.029051
    55  C    0.019815
    56  C    0.056337
    57  C   -0.148788
    58  C    0.144884
    59  C    0.074737
    60  C    0.080308
    61  C   -0.009935
    62  C   -0.033416
    63  C   -0.124835
    64  C    0.014496
    65  H   -0.049457
    66  H    0.016490
    67  H   -0.109287
    68  H    0.033811
    69  H    0.018866
    70  H    0.018586
    71  H    0.006897
    72  H    0.069174
    73  H    0.020137
    74  H    0.008466
    75  H   -0.003012
    76  H    0.029958
    77  H    0.032419
    78  H    0.019488
    79  H    0.022509
    80  H    0.021398
    81  H    0.062960
    82  H    0.034299
    83  H    0.022080
    84  H    0.014774
    85  H   -0.008777
    86  H    0.006237
    87  H    0.025888
    88  H    0.028252
    89  H    0.000427
    90  H    0.008759
    91  H    0.040282
    92  H    0.007446
    93  H    0.052995
    94  H    0.105426
    95  H    0.052350
    96  H    0.044672
    97  H    0.074984
    98  H    0.029630
    99  H    0.018978
   100  H    0.011242
   101  H   -0.006193
   102  H    0.004203
   103  H    0.022186
   104  H    0.014204
   105  H    0.001048
   106  H   -0.012890
   107  H    0.003781
   108  H    0.004229
   109  H   -0.022249
   110  H   -0.065799
   111  H    0.017631
   112  H   -0.079565
   113  H   -0.037807
   114  H   -0.016085
   115  H   -0.011163
   116  H    0.001560
   117  H   -0.017399
   118  H   -0.004772
   119  H    0.001231
   120  H    0.005589
   121  H   -0.051689
   122  H    0.003965
   123  H   -0.005537
   124  H   -0.027867
   125  H   -0.024842
   126  H   -0.015006
   127  H   -0.019572
   128  H    0.010394
   129  H    0.007250
   130  H   -0.024766
   131  H    0.039259
   132  H    0.033355
   133  H    0.037180
   134  H    0.005409
   135  H   -0.014325
   136  H    0.030145
   137  H    0.140335
   138  H    0.150271
 Sum of Mulliken charges =   0.00000

 Dipole moment (field-independent basis, Debye):
    X=              2.7373    Y=              3.6132    Z=              1.3104  Tot=              4.7186
 Quadrupole moment (field-independent basis, Debye-Ang):
   XX=           -359.0262   YY=           -379.1749   ZZ=           -393.6081
   XY=            -40.2448   XZ=              8.6661   YZ=              2.6125

 Normal termination of Gaussian 09 at Sun Aug  4 12:00:55 2019.
