 Gaussian 09, Revision D.01,
 Gaussian 09:  ES64L-G09RevD.01 24-Apr-2013

 --------------------------
 # td=(NStates=1) B3LYP/SVP
 --------------------------

 --
 TD
 --
 Symbolic Z-matrix:
 Charge =  0 Multiplicity = 1

                         Standard orientation:
 ---------------------------------------------------------------------
 Center     Atomic      Atomic             Coordinates (Angstroms)
 Number     Number       Type             X           Y           Z
 ---------------------------------------------------------------------
      1          6           0       -5.120599   -1.906277    0.365301
      2          6           0       -4.724541    2.726688    1.412663
      3          6           0       -9.371933    3.312067   -0.204370
      4          6           0       -9.865974   -1.424025   -0.839480
      5          7           0       -5.227536    0.524554    0.697488
      6          6           0       -4.479717   -0.660227    0.702993
      7          6           0       -3.106331   -0.620185    1.153815
      8          6           0       -3.127179    0.887108    1.750115
      9          6           0       -4.406158    1.451754    1.205369
     10          6           0       -2.864844    1.023172    3.248245
     11          6           0       -2.186241   -0.685104    0.064449
     12          6           0       -0.634844   -0.761088    0.452743
     13          6           0        0.301057   -1.151306   -0.688977
     14          8           0        0.024138   -1.474238   -1.798305
     15          8           0        1.574550   -0.962814   -0.201060
     16          7           0       -7.031153    2.808014    0.448436
     17          6           0       -5.994264    3.479543    1.029970
     18          6           0       -6.349921    4.825882    1.091058
     19          6           0       -7.682137    4.970909    0.524902
     20          6           0       -8.089325    3.619433    0.171576
     21          6           0       -5.419383    5.883414    1.528255
     22          6           0       -8.341555    6.215770    0.302364
     23          6           0       -9.123047    6.535286   -0.730784
     24          7           0       -9.174574    0.902821   -0.482114
     25          6           0       -9.936607    2.045212   -0.502201
     26          6           0      -11.331857    1.894850   -0.940718
     27          6           0      -11.397488    0.491266   -1.069872
     28          6           0      -10.172135   -0.126951   -0.811310
     29          6           0      -12.314433    2.962228   -1.049180
     30          6           0      -12.674157   -0.273311   -1.544069
     31          6           0      -12.895033   -0.484140   -3.047475
     32          7           0       -7.456783   -1.246028   -0.239607
     33          6           0       -8.664209   -2.048161   -0.598672
     34          6           0       -8.206091   -3.393889   -0.590161
     35          6           0       -6.798980   -3.349219   -0.246216
     36          6           0       -6.453570   -2.055062   -0.042275
     37          6           0       -9.059032   -4.615423   -0.974222
     38          6           0       -5.680576   -4.236741    0.106587
     39          8           0       -5.627145   -5.470876    0.004693
     40          6           0       -4.537230   -3.327389    0.443098
     41          6           0       -3.852239   -3.743495    1.731831
     42          8           0       -4.248301   -3.426711    2.821832
     43          8           0       -2.869707   -4.732112    1.484021
     44          6           0       -2.240186   -5.313612    2.548254
     45          6           0        2.628617   -1.160360   -1.203712
     46          6           0        4.038575   -0.728198   -0.503312
     47          6           0        5.020950   -0.010305   -1.043463
     48          6           0        5.135789    0.347607   -2.577520
     49          6           0        6.327133    0.085610   -0.338270
     50          6           0        7.573266   -0.647842   -0.812179
     51          6           0        8.793316   -0.434610    0.021080
     52          6           0       10.107884   -0.825671   -0.510059
     53          6           0       10.103866   -2.424566   -0.675204
     54          6           0       11.364225   -0.273511    0.168516
     55          6           0       12.649106   -0.590117   -0.506570
     56          6           0       13.774429    0.076077    0.235215
     57          6           0       15.247289   -0.204783   -0.270042
     58          6           0       15.794815   -1.588673   -0.190889
     59          6           0       16.289070    0.760890    0.528044
     60          6           0       17.711918    0.791158   -0.178055
     61          6           0       18.698657    1.699658    0.555571
     62          6           0       20.115581    1.788558   -0.130053
     63          6           0       20.055392    2.269001   -1.564304
     64          6           0       21.001688    2.756390    0.791139
     65          1           0       -3.985667    3.426902    1.773527
     66          1           0       -9.985196    4.321116   -0.332689
     67          1           0      -10.403730   -2.297160   -1.055337
     68          1           0       -2.885635   -1.347003    1.988816
     69          1           0       -2.260506    1.687966    1.438847
     70          1           0       -1.839828    0.563822    3.476665
     71          1           0       -3.044379    2.083703    3.727068
     72          1           0       -3.610655    0.515918    3.765861
     73          1           0       -2.500469   -1.633353   -0.568363
     74          1           0       -2.282086    0.138424   -0.743185
     75          1           0       -0.357518    0.276669    0.877063
     76          1           0       -0.551246   -1.647461    1.168319
     77          1           0       -4.760374    6.224356    0.636626
     78          1           0       -6.196187    6.804668    1.915759
     79          1           0       -4.852947    5.781005    2.544764
     80          1           0       -8.211351    7.071134    1.011987
     81          1           0       -9.116217    5.632128   -1.465295
     82          1           0       -9.555298    7.448727   -0.701598
     83          1           0      -12.192794    3.737294   -0.259285
     84          1           0      -12.147214    3.518882   -2.156521
     85          1           0      -13.457007    2.413534   -1.008960
     86          1           0      -12.732630   -1.355456   -1.027313
     87          1           0      -13.447774    0.659204   -1.312242
     88          1           0      -12.985665    0.447463   -3.529140
     89          1           0      -11.836027   -0.809075   -3.554231
     90          1           0      -13.613372   -1.249240   -3.323539
     91          1           0      -10.081318   -4.786049   -0.489287
     92          1           0       -9.149532   -4.651594   -2.037720
     93          1           0       -8.312200   -5.284627   -1.026032
     94          1           0       -3.723277   -3.459152   -0.190789
     95          1           0       -1.444040   -5.938378    2.157100
     96          1           0       -1.756113   -4.493846    3.242444
     97          1           0       -2.836360   -6.021861    3.279124
     98          1           0        2.857927   -2.247193   -1.435230
     99          1           0        2.314881   -0.760522   -2.111633
    100          1           0        3.985531   -1.037496    0.657330
    101          1           0        5.424909    1.666589   -2.683998
    102          1           0        5.795709   -0.302941   -3.197843
    103          1           0        4.107182    0.454095   -3.101052
    104          1           0        6.446912    1.238980   -0.277393
    105          1           0        6.115240   -0.288435    0.753248
    106          1           0        7.228745   -1.718147   -0.859750
    107          1           0        7.830769   -0.506633   -1.831848
    108          1           0        8.925738    0.651454    0.154433
    109          1           0        8.568626   -0.837809    1.228792
    110          1           0       10.166191   -0.421904   -1.524949
    111          1           0        9.267135   -2.563366   -1.193800
    112          1           0       11.080706   -2.834350   -0.870794
    113          1           0        9.753559   -2.850070    0.223349
    114          1           0       11.109680    0.926893    0.085538
    115          1           0       11.269165   -0.418018    1.313856
    116          1           0       13.010595   -1.493421   -0.681299
    117          1           0       13.042968   -0.290760   -1.637279
    118          1           0       13.428767    1.188133    0.250867
    119          1           0       13.839420   -0.368748    1.296303
    120          1           0       15.285096    0.127988   -1.339873
    121          1           0       15.215895   -2.360731   -0.674826
    122          1           0       16.723300   -1.607273   -0.762050
    123          1           0       15.813065   -2.109999    0.802178
    124          1           0       16.028083    1.799538    0.700415
    125          1           0       16.454717    0.499244    1.600298
    126          1           0       18.140784   -0.275622   -0.140395
    127          1           0       17.409593    1.177417   -1.297185
    128          1           0       18.158233    2.663906    0.735678
    129          1           0       18.802073    1.262879    1.443851
    130          1           0       20.424281    0.801650    0.036154
    131          1           0       19.552029    3.104175   -1.562484
    132          1           0       21.240687    2.458303   -1.612019
    133          1           0       19.769893    1.408702   -2.248695
    134          1           0       21.035090    2.541326    1.813940
    135          1           0       22.101145    2.960065    0.368506
    136          1           0       20.586538    3.725604    1.013636
    137          1           0       -7.062665    1.819011    0.440897
    138          1           0       -7.516372   -0.364442   -0.053404
 ---------------------------------------------------------------------

 SCF Done:  E(RB3LYP) =  -2732.99808723     A.U. after   17 cycles

 Excitation energies and oscillator strengths:

 Excited State   1:      Singlet-A      2.0428 eV  606.94 nm  f=0.1815  <S**2>=0.000
     235 -> 237       -0.30419
     235 -> 238       -0.21917
     236 -> 237        0.56046
     236 -> 238       -0.21002
 This state for optimization and/or second-order correction.
 Total Energy, E(TD-HF/TD-KS) =  -2732.92301620
 Copying the excited state density for this state as the 1-particle RhoCI density.

 The electronic state is 1-A.
 Alpha  occ. eigenvalues --  -19.18161 -19.17811 -19.13776 -19.13548 -19.11755
 Alpha  occ. eigenvalues --  -14.36801 -14.35195 -14.32678 -14.30501 -10.32486
 Alpha  occ. eigenvalues --  -10.31961 -10.27684 -10.25384 -10.25131 -10.24453
 Alpha  occ. eigenvalues --  -10.23867 -10.23699 -10.23274 -10.22550 -10.22470
 Alpha  occ. eigenvalues --  -10.22441 -10.22407 -10.22362 -10.22188 -10.21920
 Alpha  occ. eigenvalues --  -10.21773 -10.21390 -10.21368 -10.21333 -10.21166
 Alpha  occ. eigenvalues --  -10.21123 -10.21010 -10.20974 -10.20870 -10.20831
 Alpha  occ. eigenvalues --  -10.20786 -10.20732 -10.20641 -10.20413 -10.20355
 Alpha  occ. eigenvalues --  -10.20108 -10.19957 -10.19894 -10.19745 -10.19521
 Alpha  occ. eigenvalues --  -10.19504 -10.19426 -10.19341 -10.19271 -10.19180
 Alpha  occ. eigenvalues --  -10.19152 -10.19027 -10.18851 -10.18723 -10.18721
 Alpha  occ. eigenvalues --  -10.18720 -10.18609 -10.18195 -10.18182 -10.17861
 Alpha  occ. eigenvalues --  -10.17844 -10.17695 -10.16793 -10.15912  -1.09289
 Alpha  occ. eigenvalues --   -1.09271  -1.02248  -1.01518  -1.01106  -0.98986
 Alpha  occ. eigenvalues --   -0.98293  -0.94826  -0.91926  -0.85747  -0.83002
 Alpha  occ. eigenvalues --   -0.82804  -0.82255  -0.82017  -0.81522  -0.80643
 Alpha  occ. eigenvalues --   -0.80523  -0.79733  -0.79642  -0.78738  -0.77941
 Alpha  occ. eigenvalues --   -0.77140  -0.76679  -0.76243  -0.75426  -0.74276
 Alpha  occ. eigenvalues --   -0.74240  -0.73152  -0.72720  -0.72138  -0.71290
 Alpha  occ. eigenvalues --   -0.70169  -0.69491  -0.68980  -0.68086  -0.67907
 Alpha  occ. eigenvalues --   -0.67660  -0.66955  -0.66685  -0.66494  -0.65266
 Alpha  occ. eigenvalues --   -0.64323  -0.63416  -0.62974  -0.62453  -0.61388
 Alpha  occ. eigenvalues --   -0.60636  -0.59266  -0.58703  -0.58375  -0.57299
 Alpha  occ. eigenvalues --   -0.57254  -0.56360  -0.56110  -0.55956  -0.55520
 Alpha  occ. eigenvalues --   -0.55471  -0.55152  -0.54497  -0.53966  -0.53570
 Alpha  occ. eigenvalues --   -0.52985  -0.51930  -0.51158  -0.50999  -0.50779
 Alpha  occ. eigenvalues --   -0.49939  -0.49517  -0.49144  -0.48815  -0.48368
 Alpha  occ. eigenvalues --   -0.48163  -0.47961  -0.47555  -0.47280  -0.47135
 Alpha  occ. eigenvalues --   -0.46957  -0.46707  -0.46404  -0.46118  -0.46008
 Alpha  occ. eigenvalues --   -0.45499  -0.45362  -0.45118  -0.44811  -0.44657
 Alpha  occ. eigenvalues --   -0.44612  -0.44473  -0.44350  -0.43790  -0.43676
 Alpha  occ. eigenvalues --   -0.43525  -0.43130  -0.43090  -0.43042  -0.42547
 Alpha  occ. eigenvalues --   -0.42340  -0.42152  -0.42086  -0.41883  -0.41641
 Alpha  occ. eigenvalues --   -0.41577  -0.41432  -0.41406  -0.41173  -0.40508
 Alpha  occ. eigenvalues --   -0.40463  -0.40377  -0.39944  -0.39547  -0.39514
 Alpha  occ. eigenvalues --   -0.39380  -0.39152  -0.38921  -0.38744  -0.38478
 Alpha  occ. eigenvalues --   -0.38398  -0.38320  -0.38220  -0.38006  -0.37824
 Alpha  occ. eigenvalues --   -0.37804  -0.37357  -0.37147  -0.36982  -0.36592
 Alpha  occ. eigenvalues --   -0.36400  -0.36222  -0.36199  -0.35947  -0.35677
 Alpha  occ. eigenvalues --   -0.35276  -0.35100  -0.35016  -0.34602  -0.34479
 Alpha  occ. eigenvalues --   -0.34178  -0.34153  -0.34005  -0.33909  -0.33751
 Alpha  occ. eigenvalues --   -0.33070  -0.32962  -0.32697  -0.32533  -0.32191
 Alpha  occ. eigenvalues --   -0.32137  -0.31641  -0.31512  -0.31453  -0.31163
 Alpha  occ. eigenvalues --   -0.30907  -0.30710  -0.30387  -0.30282  -0.30077
 Alpha  occ. eigenvalues --   -0.29708  -0.29049  -0.28820  -0.28718  -0.28262
 Alpha  occ. eigenvalues --   -0.28190  -0.28044  -0.27217  -0.26490  -0.26012
 Alpha  occ. eigenvalues --   -0.25562  -0.25101  -0.24218  -0.22282  -0.20576
 Alpha  occ. eigenvalues --   -0.19246
 Alpha virt. eigenvalues --   -0.11184  -0.08230  -0.04416  -0.02169  -0.01487
 Alpha virt. eigenvalues --   -0.00258   0.00198   0.00283   0.01436   0.02720
 Alpha virt. eigenvalues --    0.03300   0.03517   0.03954   0.04012   0.04386

 Mulliken charges:
               1
     1  C   -0.017095
     2  C   -0.080734
     3  C   -0.116237
     4  C   -0.043574
     5  N   -0.189632
     6  C   -0.067880
     7  C    0.030079
     8  C   -0.121839
     9  C    0.117555
    10  C    0.050736
    11  C   -0.022354
    12  C    0.010128
    13  C    0.180279
    14  O   -0.197308
    15  O   -0.342755
    16  N   -0.006831
    17  C    0.036347
    18  C   -0.108073
    19  C    0.059641
    20  C    0.065899
    21  C   -0.028044
    22  C   -0.125107
    23  C    0.019950
    24  N   -0.288225
    25  C    0.084100
    26  C   -0.103955
    27  C   -0.087668
    28  C    0.232891
    29  C   -0.011018
    30  C   -0.011220
    31  C    0.028870
    32  N    0.047567
    33  C   -0.022919
    34  C   -0.150910
    35  C   -0.046489
    36  C    0.075223
    37  C    0.196430
    38  C    0.083456
    39  O   -0.194972
    40  C    0.077348
    41  C    0.170242
    42  O   -0.194063
    43  O   -0.304885
    44  C    0.136345
    45  C    0.252784
    46  C   -0.128152
    47  C   -0.083457
    48  C   -0.057320
    49  C    0.036236
    50  C    0.071487
    51  C   -0.011908
    52  C   -0.081141
    53  C    0.148813
    54  C    0.027805
    55  C    0.120977
    56  C   -0.047629
    57  C   -0.052982
    58  C    0.054607
    59  C    0.023662
    60  C   -0.069051
    61  C    0.054888
    62  C   -0.061511
    63  C    0.089408
    64  C    0.024997
    65  H   -0.034376
    66  H    0.014641
    67  H   -0.063196
    68  H    0.036181
    69  H    0.017852
    70  H    0.031999
    71  H    0.023860
    72  H   -0.003537
    73  H    0.025252
    74  H    0.028337
    75  H    0.061642
    76  H    0.041779
    77  H    0.065341
    78  H    0.027378
    79  H    0.050283
    80  H    0.010295
    81  H    0.054238
    82  H   -0.008138
    83  H    0.048369
    84  H    0.054286
    85  H    0.050517
    86  H    0.030300
    87  H    0.015285
    88  H   -0.005346
    89  H    0.004467
    90  H    0.026886
    91  H    0.062599
    92  H    0.000528
    93  H   -0.026317
    94  H    0.016313
    95  H    0.026223
    96  H    0.021664
    97  H    0.041092
    98  H    0.033743
    99  H    0.005407
   100  H    0.042457
   101  H    0.027855
   102  H    0.062799
   103  H    0.030935
   104  H    0.009672
   105  H    0.004483
   106  H    0.002350
   107  H   -0.019827
   108  H   -0.018945
   109  H    0.007145
   110  H   -0.013865
   111  H   -0.052903
   112  H    0.012714
   113  H   -0.035280
   114  H    0.006383
   115  H    0.018817
   116  H   -0.080032
   117  H   -0.013501
   118  H    0.010171
   119  H   -0.003279
   120  H   -0.009548
   121  H   -0.015049
   122  H    0.014898
   123  H    0.009124
   124  H   -0.022810
   125  H   -0.018390
   126  H    0.014053
   127  H    0.017122
   128  H   -0.012448
   129  H   -0.046799
   130  H   -0.021295
   131  H   -0.022664
   132  H    0.016980
   133  H    0.034725
   134  H   -0.024602
   135  H    0.022460
   136  H   -0.016707
   137  H    0.127613
   138  H    0.037526
 Sum of Mulliken charges =   0.00000

 Dipole moment (field-independent basis, Debye):
    X=              1.4519    Y=              4.5324    Z=              0.4511  Tot=              4.7806
 Quadrupole moment (field-independent basis, Debye-Ang):
   XX=           -360.0926   YY=           -384.2350   ZZ=           -397.7074
   XY=            -39.7236   XZ=             12.3986   YZ=              4.6204

 Normal termination of Gaussian 09 at Sat Aug  3 06:27:02 2019.
