 Gaussian 09, Revision D.01,
 Gaussian 09:  ES64L-G09RevD.01 24-Apr-2013

 --------------------------
 # td=(NStates=1) B3LYP/SVP
 --------------------------

 --
 TD
 --
 Symbolic Z-matrix:
 Charge =  0 Multiplicity = 1

                         Standard orientation:
 ---------------------------------------------------------------------
 Center     Atomic      Atomic             Coordinates (Angstroms)
 Number     Number       Type             X           Y           Z
 ---------------------------------------------------------------------
      1          6           0       -5.059320   -1.875267    0.483895
      2          6           0       -5.003947    2.844177    1.490342
      3          6           0       -9.447526    3.104954   -0.288777
      4          6           0       -9.683692   -1.679438   -1.177871
      5          7           0       -5.243023    0.484091    0.766172
      6          6           0       -4.462844   -0.649734    0.805321
      7          6           0       -3.033513   -0.397905    1.292256
      8          6           0       -3.114288    1.065237    1.682696
      9          6           0       -4.484390    1.557978    1.274553
     10          6           0       -2.979389    1.302877    3.248812
     11          6           0       -2.046155   -0.542126    0.128074
     12          6           0       -0.591677   -0.682148    0.637705
     13          6           0        0.376318   -0.896918   -0.513295
     14          8           0        0.066136   -1.152523   -1.711259
     15          8           0        1.559654   -0.581333    0.009183
     16          7           0       -7.188097    2.746353    0.410638
     17          6           0       -6.194363    3.354480    1.050150
     18          6           0       -6.577633    4.780804    1.067576
     19          6           0       -7.851198    4.921791    0.589281
     20          6           0       -8.270926    3.582601    0.184453
     21          6           0       -5.687140    5.807705    1.598471
     22          6           0       -8.651434    6.108495    0.499659
     23          6           0       -9.517159    6.438178   -0.436159
     24          7           0       -9.279984    0.691400   -0.586851
     25          6           0       -9.961081    1.837367   -0.680870
     26          6           0      -11.396802    1.495821   -1.123812
     27          6           0      -11.374584    0.248266   -1.444440
     28          6           0      -10.085201   -0.333401   -1.123485
     29          6           0      -12.423558    2.551695   -1.266014
     30          6           0      -12.503735   -0.590576   -2.004414
     31          6           0      -12.342706   -0.946949   -3.462248
     32          7           0       -7.382213   -1.292792   -0.353050
     33          6           0       -8.428907   -2.197642   -0.738120
     34          6           0       -8.010795   -3.563978   -0.599369
     35          6           0       -6.699838   -3.462305   -0.109551
     36          6           0       -6.344399   -2.082294    0.054778
     37          6           0       -8.879999   -4.802211   -1.002332
     38          6           0       -5.510298   -4.334455    0.214596
     39          8           0       -5.413378   -5.628172    0.263570
     40          6           0       -4.415240   -3.253111    0.589171
     41          6           0       -3.673000   -3.638598    1.968396
     42          8           0       -4.116279   -3.268148    3.086427
     43          8           0       -2.778745   -4.528311    1.709481
     44          6           0       -2.242449   -5.143242    2.876800
     45          6           0        2.745195   -0.761297   -1.101125
     46          6           0        3.984869   -0.543049   -0.442942
     47          6           0        4.965021    0.407871   -0.939503
     48          6           0        4.755251    1.465087   -2.075423
     49          6           0        6.212783    0.398727   -0.058209
     50          6           0        7.494385   -0.174679   -0.874255
     51          6           0        8.745917   -0.114072   -0.073866
     52          6           0       10.014010   -0.654249   -0.846612
     53          6           0        9.946526   -2.087209   -0.920596
     54          6           0       11.370382   -0.174917    0.031762
     55          6           0       12.693812   -0.552134   -0.717611
     56          6           0       13.815524    0.030040    0.057723
     57          6           0       15.230859   -0.218145   -0.456722
     58          6           0       15.626490   -1.708248   -0.400162
     59          6           0       16.365157    0.598252    0.258041
     60          6           0       17.725105    0.575400   -0.329673
     61          6           0       18.670705    1.385918    0.536476
     62          6           0       20.210246    1.425407    0.002440
     63          6           0       20.287901    1.938796   -1.443863
     64          6           0       21.083452    2.101540    0.963840
     65          1           0       -4.400019    3.429073    2.001872
     66          1           0      -10.163183    3.907042   -0.429841
     67          1           0      -10.346648   -2.514711   -1.464966
     68          1           0       -2.772632   -0.950016    2.042193
     69          1           0       -2.454007    1.691357    0.915429
     70          1           0       -2.054640    0.946484    3.448887
     71          1           0       -2.737165    2.268249    3.418086
     72          1           0       -3.801686    0.827507    3.826289
     73          1           0       -2.109743   -1.396516   -0.373943
     74          1           0       -2.133684    0.172026   -0.778239
     75          1           0       -0.261241    0.105241    1.273890
     76          1           0       -0.642812   -1.681966    1.091554
     77          1           0       -4.694419    5.905375    1.113813
     78          1           0       -6.113729    6.717318    1.370761
     79          1           0       -5.409081    5.937119    2.800560
     80          1           0       -8.464214    6.849999    1.381483
     81          1           0       -9.531849    5.909714   -1.293595
     82          1           0      -10.007653    7.534823   -0.420133
     83          1           0      -12.794439    2.845103   -0.168533
     84          1           0      -11.870952    3.494191   -1.827059
     85          1           0      -13.351219    2.070623   -1.717468
     86          1           0      -12.588141   -1.437907   -1.449310
     87          1           0      -13.401432   -0.042917   -1.839003
     88          1           0      -12.050501   -0.101586   -4.109132
     89          1           0      -11.350059   -1.716684   -3.411518
     90          1           0      -13.275097   -1.580122   -3.960259
     91          1           0       -9.738993   -5.035557   -0.217265
     92          1           0       -9.271191   -4.537934   -1.963811
     93          1           0       -8.197258   -5.679262   -1.119108
     94          1           0       -3.567289   -3.314848   -0.235338
     95          1           0       -1.783562   -6.060839    2.326711
     96          1           0       -1.585933   -4.437784    3.241655
     97          1           0       -3.055053   -5.516223    3.606610
     98          1           0        2.524581   -1.769948   -1.385277
     99          1           0        2.514929    0.027007   -1.743251
    100          1           0        4.241437   -1.070594    0.406668
    101          1           0        4.826337    2.494641   -1.716931
    102          1           0        5.397537    1.422256   -3.170581
    103          1           0        3.715930    1.360159   -2.414189
    104          1           0        6.360046    1.505720    0.312843
    105          1           0        6.242403   -0.019459    1.111768
    106          1           0        7.408408   -1.362291   -0.954700
    107          1           0        7.729091    0.276850   -1.728189
    108          1           0        9.152758    0.864765    0.434336
    109          1           0        8.724508   -0.972195    0.892873
    110          1           0        9.867764   -0.263306   -1.995113
    111          1           0        8.892542   -2.511884   -1.268978
    112          1           0       10.627804   -2.529283   -1.493424
    113          1           0       10.073623   -2.521237    0.200932
    114          1           0       11.353793    0.916649    0.285665
    115          1           0       11.477320   -0.759835    0.991020
    116          1           0       12.752674   -1.619614   -0.606952
    117          1           0       12.803217   -0.413070   -1.696028
    118          1           0       13.590283    1.121990   -0.010325
    119          1           0       13.949065   -0.273858    1.102885
    120          1           0       15.236479    0.129667   -1.491381
    121          1           0       15.111356   -2.570885   -1.156394
    122          1           0       16.627892   -1.905675   -0.754831
    123          1           0       15.700725   -2.096539    0.651846
    124          1           0       15.878021    1.606659    0.320506
    125          1           0       16.147017    0.244505    1.261069
    126          1           0       18.364932   -0.522618   -0.368882
    127          1           0       17.707856    0.867991   -1.381177
    128          1           0       18.389450    2.499868    0.472926
    129          1           0       18.756903    1.024098    1.512839
    130          1           0       20.571783    0.324999    0.059946
    131          1           0       20.142909    2.945012   -1.524465
    132          1           0       21.366770    2.113534   -2.060366
    133          1           0       19.686722    1.514211   -2.130926
    134          1           0       21.016481    1.830633    2.098032
    135          1           0       22.131577    2.226938    0.623384
    136          1           0       20.910703    3.163470    1.162147
    137          1           0       -7.362661    1.743881    0.432599
    138          1           0       -7.741638   -0.400064   -0.496474
 ---------------------------------------------------------------------

 SCF Done:  E(RB3LYP) =  -2733.02074873     A.U. after   17 cycles

 Excitation energies and oscillator strengths:

 Excited State   1:      Singlet-A      2.0552 eV  603.28 nm  f=0.2124  <S**2>=0.000
     235 -> 237       -0.11269
     235 -> 238       -0.28428
     236 -> 237        0.63155
 This state for optimization and/or second-order correction.
 Total Energy, E(TD-HF/TD-KS) =  -2732.94522248
 Copying the excited state density for this state as the 1-particle RhoCI density.

 The electronic state is 1-A.
 Alpha  occ. eigenvalues --  -19.19508 -19.17287 -19.11917 -19.11741 -19.11613
 Alpha  occ. eigenvalues --  -14.36392 -14.35525 -14.31628 -14.30169 -10.31850
 Alpha  occ. eigenvalues --  -10.30901 -10.28101 -10.25329 -10.24655 -10.23664
 Alpha  occ. eigenvalues --  -10.23389 -10.23308 -10.23075 -10.22636 -10.22594
 Alpha  occ. eigenvalues --  -10.22492 -10.22475 -10.22254 -10.21896 -10.21660
 Alpha  occ. eigenvalues --  -10.21200 -10.21123 -10.21054 -10.20985 -10.20700
 Alpha  occ. eigenvalues --  -10.20605 -10.20570 -10.20433 -10.20392 -10.20321
 Alpha  occ. eigenvalues --  -10.20288 -10.20256 -10.20059 -10.20025 -10.19998
 Alpha  occ. eigenvalues --  -10.19974 -10.19962 -10.19733 -10.19698 -10.19351
 Alpha  occ. eigenvalues --  -10.19244 -10.19220 -10.19004 -10.18769 -10.18765
 Alpha  occ. eigenvalues --  -10.18692 -10.18687 -10.18412 -10.18296 -10.18161
 Alpha  occ. eigenvalues --  -10.18014 -10.17928 -10.17886 -10.17860 -10.17853
 Alpha  occ. eigenvalues --  -10.17713 -10.17662 -10.17243 -10.16902  -1.11938
 Alpha  occ. eigenvalues --   -1.06405  -0.98855  -0.98767  -0.97453  -0.97418
 Alpha  occ. eigenvalues --   -0.96411  -0.93016  -0.92377  -0.83964  -0.82865
 Alpha  occ. eigenvalues --   -0.82619  -0.82281  -0.81514  -0.81211  -0.80912
 Alpha  occ. eigenvalues --   -0.80102  -0.79954  -0.79280  -0.78430  -0.77634
 Alpha  occ. eigenvalues --   -0.77155  -0.76667  -0.75932  -0.75494  -0.74766
 Alpha  occ. eigenvalues --   -0.73842  -0.73661  -0.72714  -0.72279  -0.70947
 Alpha  occ. eigenvalues --   -0.70346  -0.69219  -0.68786  -0.68640  -0.68517
 Alpha  occ. eigenvalues --   -0.66774  -0.66506  -0.66410  -0.65475  -0.64651
 Alpha  occ. eigenvalues --   -0.64159  -0.62950  -0.62379  -0.61325  -0.61081
 Alpha  occ. eigenvalues --   -0.60752  -0.59180  -0.59038  -0.58189  -0.57876
 Alpha  occ. eigenvalues --   -0.57191  -0.56572  -0.56096  -0.55987  -0.55352
 Alpha  occ. eigenvalues --   -0.55049  -0.54409  -0.53939  -0.53668  -0.53198
 Alpha  occ. eigenvalues --   -0.52306  -0.51973  -0.51429  -0.50792  -0.50619
 Alpha  occ. eigenvalues --   -0.50324  -0.49775  -0.49018  -0.48957  -0.48451
 Alpha  occ. eigenvalues --   -0.48146  -0.47672  -0.47443  -0.47280  -0.47214
 Alpha  occ. eigenvalues --   -0.46856  -0.46533  -0.46261  -0.46029  -0.45727
 Alpha  occ. eigenvalues --   -0.45151  -0.45035  -0.44910  -0.44753  -0.44308
 Alpha  occ. eigenvalues --   -0.44207  -0.44044  -0.43814  -0.43732  -0.43587
 Alpha  occ. eigenvalues --   -0.43195  -0.43009  -0.42668  -0.42518  -0.42421
 Alpha  occ. eigenvalues --   -0.42256  -0.41999  -0.41859  -0.41475  -0.41399
 Alpha  occ. eigenvalues --   -0.41052  -0.40813  -0.40532  -0.40335  -0.40175
 Alpha  occ. eigenvalues --   -0.39918  -0.39803  -0.39438  -0.39428  -0.39146
 Alpha  occ. eigenvalues --   -0.39128  -0.38893  -0.38680  -0.38524  -0.38418
 Alpha  occ. eigenvalues --   -0.38055  -0.37941  -0.37819  -0.37530  -0.37453
 Alpha  occ. eigenvalues --   -0.37398  -0.37293  -0.36968  -0.36866  -0.36802
 Alpha  occ. eigenvalues --   -0.36740  -0.36354  -0.36223  -0.36210  -0.36096
 Alpha  occ. eigenvalues --   -0.35615  -0.35379  -0.35045  -0.34986  -0.34897
 Alpha  occ. eigenvalues --   -0.34711  -0.34348  -0.34293  -0.33852  -0.33574
 Alpha  occ. eigenvalues --   -0.33497  -0.33211  -0.33060  -0.32699  -0.32306
 Alpha  occ. eigenvalues --   -0.32279  -0.32098  -0.31747  -0.31627  -0.31245
 Alpha  occ. eigenvalues --   -0.31015  -0.30997  -0.30908  -0.30704  -0.30137
 Alpha  occ. eigenvalues --   -0.30034  -0.28994  -0.28177  -0.27876  -0.27249
 Alpha  occ. eigenvalues --   -0.27040  -0.26615  -0.26147  -0.25898  -0.25452
 Alpha  occ. eigenvalues --   -0.24646  -0.24606  -0.24238  -0.23387  -0.19648
 Alpha  occ. eigenvalues --   -0.18182
 Alpha virt. eigenvalues --   -0.09694  -0.07177  -0.04603  -0.04333  -0.02082
 Alpha virt. eigenvalues --   -0.00259   0.00541   0.00692   0.02430   0.03439
 Alpha virt. eigenvalues --    0.03827   0.04090   0.04133   0.04319   0.04694

 Mulliken charges:
               1
     1  C    0.056188
     2  C   -0.026199
     3  C   -0.029812
     4  C   -0.057772
     5  N   -0.209737
     6  C   -0.111826
     7  C    0.152240
     8  C   -0.082159
     9  C   -0.009911
    10  C    0.185638
    11  C    0.048726
    12  C    0.068336
    13  C    0.185377
    14  O   -0.299241
    15  O   -0.359921
    16  N   -0.022000
    17  C    0.133644
    18  C   -0.116375
    19  C    0.096418
    20  C    0.027513
    21  C    0.073179
    22  C   -0.098602
    23  C   -0.003705
    24  N   -0.256060
    25  C    0.014503
    26  C   -0.128458
    27  C   -0.100669
    28  C    0.092587
    29  C    0.027786
    30  C    0.196127
    31  C   -0.079168
    32  N   -0.013233
    33  C   -0.030318
    34  C   -0.145298
    35  C   -0.042136
    36  C    0.155187
    37  C    0.081932
    38  C    0.150874
    39  O   -0.254040
    40  C   -0.106641
    41  C    0.192480
    42  O   -0.282103
    43  O   -0.234078
    44  C    0.165091
    45  C    0.375898
    46  C   -0.078952
    47  C   -0.103099
    48  C    0.023740
    49  C   -0.031068
    50  C    0.108312
    51  C   -0.082319
    52  C   -0.106526
    53  C    0.039252
    54  C   -0.004131
    55  C    0.136861
    56  C    0.001016
    57  C   -0.052061
    58  C   -0.010149
    59  C    0.041604
    60  C    0.035320
    61  C    0.015575
    62  C   -0.058679
    63  C    0.060971
    64  C    0.020762
    65  H   -0.108484
    66  H   -0.054571
    67  H   -0.013988
    68  H   -0.082477
    69  H    0.024823
    70  H   -0.037522
    71  H   -0.028468
    72  H    0.055385
    73  H   -0.046904
    74  H    0.020695
    75  H    0.021470
    76  H    0.018949
    77  H    0.020608
    78  H   -0.024837
    79  H    0.043619
    80  H    0.026664
    81  H   -0.002704
    82  H    0.050214
    83  H    0.039727
    84  H    0.062733
    85  H    0.021053
    86  H   -0.028981
    87  H   -0.032571
    88  H    0.027448
    89  H    0.019396
    90  H    0.037300
    91  H    0.057531
    92  H    0.024091
    93  H    0.045923
    94  H    0.075505
    95  H    0.054917
    96  H    0.019182
    97  H    0.069936
    98  H    0.033713
    99  H    0.004765
   100  H   -0.023285
   101  H    0.038534
   102  H    0.060635
   103  H    0.006962
   104  H    0.014888
   105  H    0.036502
   106  H    0.030625
   107  H   -0.028696
   108  H    0.012441
   109  H   -0.004047
   110  H    0.009110
   111  H    0.015795
   112  H   -0.018271
   113  H    0.010159
   114  H    0.008205
   115  H    0.012383
   116  H   -0.018582
   117  H   -0.044828
   118  H   -0.012415
   119  H   -0.013980
   120  H   -0.032354
   121  H    0.018565
   122  H   -0.008442
   123  H    0.001976
   124  H   -0.011289
   125  H   -0.023953
   126  H    0.018265
   127  H    0.002373
   128  H    0.004300
   129  H   -0.008988
   130  H    0.005860
   131  H   -0.027784
   132  H   -0.000682
   133  H   -0.016155
   134  H    0.010552
   135  H    0.006177
   136  H   -0.023756
   137  H    0.151877
   138  H    0.090496
 Sum of Mulliken charges =   0.00000

 Dipole moment (field-independent basis, Debye):
    X=              5.2037    Y=              5.7115    Z=              0.3500  Tot=              7.7345
 Quadrupole moment (field-independent basis, Debye-Ang):
   XX=           -358.5655   YY=           -381.9409   ZZ=           -394.7539
   XY=            -20.9081   XZ=              5.3845   YZ=             -0.5799

 Normal termination of Gaussian 09 at Mon Jul 29 20:40:41 2019.
