 Gaussian 09, Revision D.01,
 Gaussian 09:  ES64L-G09RevD.01 24-Apr-2013

 --------------------------
 # td=(NStates=1) B3LYP/SVP
 --------------------------

 --
 TD
 --
 Symbolic Z-matrix:
 Charge =  0 Multiplicity = 1

                         Standard orientation:
 ---------------------------------------------------------------------
 Center     Atomic      Atomic             Coordinates (Angstroms)
 Number     Number       Type             X           Y           Z
 ---------------------------------------------------------------------
      1          6           0       -5.080884   -1.931393    0.508523
      2          6           0       -4.780483    2.801680    1.277959
      3          6           0       -9.366402    3.408331   -0.237608
      4          6           0       -9.872430   -1.386292   -0.887911
      5          7           0       -5.148603    0.575425    0.775292
      6          6           0       -4.472322   -0.740511    0.885833
      7          6           0       -3.004602   -0.479127    1.261175
      8          6           0       -2.970092    0.974078    1.665194
      9          6           0       -4.375752    1.499788    1.198158
     10          6           0       -2.813867    1.204456    3.205976
     11          6           0       -2.103814   -0.790817    0.024520
     12          6           0       -0.649278   -0.854043    0.559172
     13          6           0        0.389791   -1.269599   -0.503161
     14          8           0        0.088787   -1.594231   -1.633992
     15          8           0        1.668468   -0.896884   -0.157049
     16          7           0       -7.001794    2.824630    0.405790
     17          6           0       -5.889329    3.432792    0.885060
     18          6           0       -6.171441    4.866853    0.855276
     19          6           0       -7.489822    5.044545    0.424147
     20          6           0       -8.050534    3.775204    0.105099
     21          6           0       -5.306459    5.864496    1.515783
     22          6           0       -8.216692    6.352118    0.293040
     23          6           0       -9.055275    6.694452   -0.625987
     24          7           0       -9.112621    0.938459   -0.552199
     25          6           0       -9.875900    2.046576   -0.454726
     26          6           0      -11.307904    1.866613   -0.749893
     27          6           0      -11.445437    0.579563   -1.113048
     28          6           0      -10.092045   -0.051912   -0.842094
     29          6           0      -12.237095    2.933544   -1.031471
     30          6           0      -12.529131   -0.235298   -1.633438
     31          6           0      -12.422928   -0.597028   -3.152243
     32          7           0       -7.540661   -1.229574   -0.109917
     33          6           0       -8.582633   -1.958410   -0.574584
     34          6           0       -8.211962   -3.445978   -0.525647
     35          6           0       -6.883595   -3.434765   -0.122603
     36          6           0       -6.472807   -2.086794    0.099887
     37          6           0       -9.011168   -4.604049   -1.001424
     38          6           0       -5.741720   -4.320357    0.013068
     39          8           0       -5.722488   -5.551182   -0.174870
     40          6           0       -4.504746   -3.394425    0.514002
     41          6           0       -3.943754   -3.825699    1.838358
     42          8           0       -4.225267   -3.376894    2.910881
     43          8           0       -3.052038   -4.752494    1.648835
     44          6           0       -2.773759   -5.556552    2.875587
     45          6           0        2.732813   -1.190062   -1.205793
     46          6           0        4.092353   -0.924155   -0.601182
     47          6           0        4.927313   -0.138943   -1.138576
     48          6           0        4.763154    0.806980   -2.404490
     49          6           0        6.211831   -0.052161   -0.457866
     50          6           0        7.464538   -0.664487   -0.998413
     51          6           0        8.729543   -0.408339   -0.083941
     52          6           0       10.050512   -0.974438   -0.743879
     53          6           0       10.009611   -2.474195   -0.813780
     54          6           0       11.282232   -0.383284   -0.040173
     55          6           0       12.707936   -0.547746   -0.735654
     56          6           0       13.834499    0.162274    0.022651
     57          6           0       15.258094   -0.042130   -0.569787
     58          6           0       15.644340   -1.565588   -0.703697
     59          6           0       16.196695    0.827897    0.298172
     60          6           0       17.755519    0.817170   -0.125154
     61          6           0       18.524402    1.759526    0.782321
     62          6           0       20.020678    1.768904    0.323108
     63          6           0       20.214618    1.999406   -1.165262
     64          6           0       20.914845    2.700307    1.159911
     65          1           0       -4.201316    3.775475    1.798518
     66          1           0      -10.086429    4.273768   -0.223476
     67          1           0      -10.844319   -2.086675   -1.064880
     68          1           0       -2.669993   -1.074891    2.062153
     69          1           0       -1.960024    1.441458    1.198476
     70          1           0       -1.909991    0.973657    3.536342
     71          1           0       -2.838706    2.335665    3.461069
     72          1           0       -3.446164    0.664696    3.719534
     73          1           0       -2.230732   -1.711505   -0.419676
     74          1           0       -2.433134   -0.047088   -0.832996
     75          1           0       -0.132435   -0.032361    0.894185
     76          1           0       -0.791730   -1.596739    1.313659
     77          1           0       -4.616920    5.729963    0.661984
     78          1           0       -5.786633    6.836594    1.526442
     79          1           0       -4.828509    5.642523    2.648174
     80          1           0       -7.789188    7.214516    0.869564
     81          1           0       -9.445183    6.152748   -1.524062
     82          1           0       -9.923942    7.664801   -0.473515
     83          1           0      -12.636778    3.632479   -0.157600
     84          1           0      -12.082120    3.626147   -1.653754
     85          1           0      -13.219005    2.412134   -1.536137
     86          1           0      -12.553962   -1.125046   -0.986220
     87          1           0      -13.480907    0.143290   -1.682002
     88          1           0      -12.313369    0.332212   -3.627728
     89          1           0      -11.456087   -1.139679   -3.450965
     90          1           0      -13.371693   -0.988067   -3.611076
     91          1           0       -9.811772   -4.952887   -0.283803
     92          1           0       -9.477482   -4.276663   -2.034413
     93          1           0       -8.178447   -5.470686   -1.256281
     94          1           0       -3.882108   -3.436262   -0.346865
     95          1           0       -1.950944   -6.315998    2.632412
     96          1           0       -2.418513   -4.773724    3.621542
     97          1           0       -3.475131   -6.148519    3.327634
     98          1           0        2.766075   -2.278777   -1.505512
     99          1           0        2.329923   -0.619161   -2.092902
    100          1           0        4.341494   -1.499847    0.259523
    101          1           0        5.264510    1.719577   -2.309396
    102          1           0        5.388314    0.297602   -3.040601
    103          1           0        3.690344    0.988427   -2.604440
    104          1           0        6.473219    0.998551   -0.150845
    105          1           0        6.359927   -0.425017    0.588638
    106          1           0        7.413366   -1.769010   -0.837089
    107          1           0        7.560017   -0.289615   -1.976323
    108          1           0        8.772871    0.780391    0.143885
    109          1           0        8.535251   -0.735090    1.070342
    110          1           0       10.169403   -0.728100   -1.743166
    111          1           0        9.079650   -3.072225   -1.144226
    112          1           0       10.901854   -2.905518   -1.616191
    113          1           0       10.089411   -2.990871    0.102938
    114          1           0       11.330982    0.689202    0.001884
    115          1           0       11.222762   -0.609294    1.051211
    116          1           0       12.860511   -1.569290   -0.875738
    117          1           0       12.649815    0.083200   -1.671044
    118          1           0       13.749809    1.347284   -0.050819
    119          1           0       13.817527   -0.047536    1.100715
    120          1           0       15.352581    0.301835   -1.470338
    121          1           0       14.901039   -2.176168   -1.624635
    122          1           0       16.811167   -1.915767   -0.890465
    123          1           0       15.357690   -2.319256    0.369352
    124          1           0       15.815285    1.831856    0.250205
    125          1           0       16.130474    0.704069    1.446918
    126          1           0       18.030949   -0.256970    0.134537
    127          1           0       17.873825    1.013905   -1.224041
    128          1           0       18.215691    2.922920    0.786751
    129          1           0       18.355980    1.607862    1.965721
    130          1           0       20.410534    0.730564    0.453339
    131          1           0       19.957717    3.138966   -1.320204
    132          1           0       21.430213    1.881382   -1.438016
    133          1           0       19.591438    1.180758   -1.651332
    134          1           0       20.608359    2.692021    2.418976
    135          1           0       22.097135    2.393586    1.180471
    136          1           0       20.828337    3.894463    1.094769
    137          1           0       -7.294318    1.924931    0.250783
    138          1           0       -7.546950   -0.134122   -0.014076
 ---------------------------------------------------------------------

 SCF Done:  E(RB3LYP) =  -2732.96439937     A.U. after   17 cycles

 Excitation energies and oscillator strengths:

 Excited State   1:      Singlet-A      2.0927 eV  592.46 nm  f=0.2082  <S**2>=0.000
     235 -> 237        0.11111
     235 -> 238        0.26178
     236 -> 237        0.63989
 This state for optimization and/or second-order correction.
 Total Energy, E(TD-HF/TD-KS) =  -2732.88749451
 Copying the excited state density for this state as the 1-particle RhoCI density.

 The electronic state is 1-A.
 Alpha  occ. eigenvalues --  -19.18241 -19.16890 -19.12335 -19.11876 -19.11848
 Alpha  occ. eigenvalues --  -14.37755 -14.35444 -14.32079 -14.31371 -10.31280
 Alpha  occ. eigenvalues --  -10.30872 -10.28216 -10.25135 -10.25017 -10.23814
 Alpha  occ. eigenvalues --  -10.23731 -10.23528 -10.23358 -10.23088 -10.22966
 Alpha  occ. eigenvalues --  -10.22636 -10.22543 -10.21505 -10.21435 -10.21395
 Alpha  occ. eigenvalues --  -10.21254 -10.21249 -10.21234 -10.21154 -10.21129
 Alpha  occ. eigenvalues --  -10.21027 -10.21003 -10.20980 -10.20894 -10.20844
 Alpha  occ. eigenvalues --  -10.20805 -10.20388 -10.20325 -10.20135 -10.19610
 Alpha  occ. eigenvalues --  -10.19596 -10.19565 -10.19507 -10.19466 -10.19382
 Alpha  occ. eigenvalues --  -10.19317 -10.19288 -10.19267 -10.19172 -10.19075
 Alpha  occ. eigenvalues --  -10.19069 -10.18983 -10.18959 -10.18930 -10.18774
 Alpha  occ. eigenvalues --  -10.18724 -10.18639 -10.18518 -10.18450 -10.18341
 Alpha  occ. eigenvalues --  -10.18053 -10.18003 -10.17831 -10.16957  -1.10777
 Alpha  occ. eigenvalues --   -1.07053  -1.00925  -1.00769  -0.98810  -0.97517
 Alpha  occ. eigenvalues --   -0.97211  -0.93601  -0.93120  -0.83998  -0.83665
 Alpha  occ. eigenvalues --   -0.82424  -0.81782  -0.81680  -0.81107  -0.80760
 Alpha  occ. eigenvalues --   -0.80547  -0.79630  -0.79122  -0.78844  -0.77259
 Alpha  occ. eigenvalues --   -0.76865  -0.76416  -0.75761  -0.75156  -0.74541
 Alpha  occ. eigenvalues --   -0.73514  -0.73005  -0.72395  -0.71638  -0.71489
 Alpha  occ. eigenvalues --   -0.70289  -0.69743  -0.69042  -0.68433  -0.67312
 Alpha  occ. eigenvalues --   -0.66277  -0.65468  -0.65142  -0.64932  -0.64835
 Alpha  occ. eigenvalues --   -0.63957  -0.63003  -0.62346  -0.62258  -0.60916
 Alpha  occ. eigenvalues --   -0.60671  -0.58414  -0.58389  -0.57370  -0.56986
 Alpha  occ. eigenvalues --   -0.56837  -0.56691  -0.56610  -0.55846  -0.55310
 Alpha  occ. eigenvalues --   -0.54804  -0.54593  -0.53623  -0.53522  -0.53434
 Alpha  occ. eigenvalues --   -0.53285  -0.52238  -0.52046  -0.50969  -0.50372
 Alpha  occ. eigenvalues --   -0.49936  -0.49527  -0.49194  -0.48603  -0.48249
 Alpha  occ. eigenvalues --   -0.48001  -0.47860  -0.47503  -0.47256  -0.46703
 Alpha  occ. eigenvalues --   -0.46497  -0.46320  -0.46082  -0.45793  -0.45699
 Alpha  occ. eigenvalues --   -0.45301  -0.45136  -0.44941  -0.44678  -0.44435
 Alpha  occ. eigenvalues --   -0.44339  -0.43984  -0.43451  -0.43254  -0.43213
 Alpha  occ. eigenvalues --   -0.43076  -0.42968  -0.42890  -0.42791  -0.42581
 Alpha  occ. eigenvalues --   -0.42512  -0.41906  -0.41465  -0.41402  -0.41144
 Alpha  occ. eigenvalues --   -0.40997  -0.40858  -0.40619  -0.40372  -0.40328
 Alpha  occ. eigenvalues --   -0.39998  -0.39771  -0.39541  -0.39333  -0.39308
 Alpha  occ. eigenvalues --   -0.39263  -0.38885  -0.38517  -0.38205  -0.38170
 Alpha  occ. eigenvalues --   -0.38145  -0.37830  -0.37624  -0.37551  -0.37374
 Alpha  occ. eigenvalues --   -0.37005  -0.36791  -0.36693  -0.36581  -0.36332
 Alpha  occ. eigenvalues --   -0.36123  -0.35955  -0.35702  -0.35460  -0.35161
 Alpha  occ. eigenvalues --   -0.34924  -0.34891  -0.34665  -0.34435  -0.34248
 Alpha  occ. eigenvalues --   -0.34114  -0.34082  -0.33994  -0.33768  -0.33737
 Alpha  occ. eigenvalues --   -0.33445  -0.33228  -0.33132  -0.33044  -0.32536
 Alpha  occ. eigenvalues --   -0.32256  -0.32184  -0.31915  -0.31479  -0.31426
 Alpha  occ. eigenvalues --   -0.31320  -0.30836  -0.30816  -0.30148  -0.30070
 Alpha  occ. eigenvalues --   -0.30023  -0.29254  -0.28261  -0.28135  -0.28107
 Alpha  occ. eigenvalues --   -0.27621  -0.27288  -0.26675  -0.26418  -0.25850
 Alpha  occ. eigenvalues --   -0.25743  -0.24939  -0.24023  -0.23635  -0.19756
 Alpha  occ. eigenvalues --   -0.18662
 Alpha virt. eigenvalues --   -0.09983  -0.07188  -0.04857  -0.02208   0.00107
 Alpha virt. eigenvalues --    0.00234   0.00789   0.01409   0.01755   0.03086
 Alpha virt. eigenvalues --    0.03546   0.03802   0.04008   0.04460   0.04917

 Mulliken charges:
               1
     1  C   -0.011965
     2  C   -0.034330
     3  C   -0.094978
     4  C   -0.129954
     5  N   -0.183394
     6  C   -0.052962
     7  C    0.036402
     8  C   -0.101870
     9  C    0.015726
    10  C    0.155802
    11  C    0.051044
    12  C    0.081103
    13  C    0.179948
    14  O   -0.243066
    15  O   -0.360139
    16  N   -0.059745
    17  C    0.039044
    18  C   -0.095232
    19  C    0.045039
    20  C    0.061019
    21  C    0.016637
    22  C    0.009413
    23  C   -0.126738
    24  N   -0.276053
    25  C    0.081333
    26  C   -0.100486
    27  C   -0.046950
    28  C    0.075674
    29  C    0.095612
    30  C    0.095208
    31  C   -0.008615
    32  N   -0.069708
    33  C    0.051660
    34  C   -0.140146
    35  C    0.035183
    36  C    0.064528
    37  C   -0.007316
    38  C    0.038553
    39  O   -0.201200
    40  C    0.004217
    41  C    0.210273
    42  O   -0.215068
    43  O   -0.281037
    44  C    0.175613
    45  C    0.229441
    46  C   -0.078535
    47  C   -0.068996
    48  C    0.167230
    49  C    0.012185
    50  C    0.080499
    51  C   -0.116725
    52  C    0.078126
    53  C   -0.042025
    54  C    0.006611
    55  C    0.088638
    56  C   -0.039546
    57  C    0.099314
    58  C   -0.161024
    59  C   -0.012827
    60  C    0.011925
    61  C   -0.042561
    62  C   -0.042448
    63  C   -0.050143
    64  C   -0.092788
    65  H    0.000071
    66  H   -0.003313
    67  H    0.038045
    68  H   -0.023742
    69  H    0.023914
    70  H   -0.036541
    71  H    0.013446
    72  H   -0.017248
    73  H   -0.008235
    74  H    0.027969
    75  H    0.011634
    76  H    0.016675
    77  H    0.053467
    78  H    0.013094
    79  H    0.080501
    80  H    0.016794
    81  H    0.040908
    82  H    0.040334
    83  H    0.017064
    84  H   -0.045431
    85  H    0.014391
    86  H    0.013184
    87  H   -0.035764
    88  H   -0.010381
    89  H    0.028684
    90  H    0.022340
    91  H    0.050272
    92  H    0.043315
    93  H    0.071861
    94  H    0.044816
    95  H    0.039173
    96  H    0.048048
    97  H    0.028360
    98  H    0.036461
    99  H    0.036746
   100  H   -0.015727
   101  H   -0.009218
   102  H   -0.002546
   103  H    0.036069
   104  H   -0.016054
   105  H   -0.028173
   106  H    0.003894
   107  H   -0.015908
   108  H    0.002458
   109  H    0.020229
   110  H   -0.034583
   111  H    0.021283
   112  H    0.025221
   113  H   -0.011485
   114  H   -0.022238
   115  H   -0.012761
   116  H   -0.004655
   117  H    0.000276
   118  H    0.004785
   119  H    0.000440
   120  H   -0.056737
   121  H    0.040352
   122  H    0.049844
   123  H    0.021558
   124  H   -0.024223
   125  H   -0.004099
   126  H    0.021632
   127  H    0.029202
   128  H    0.003221
   129  H    0.020745
   130  H   -0.002938
   131  H    0.026786
   132  H    0.029868
   133  H    0.041321
   134  H    0.006231
   135  H    0.036914
   136  H    0.031017
   137  H    0.084034
   138  H    0.208624
 Sum of Mulliken charges =   0.00000

 Dipole moment (field-independent basis, Debye):
    X=              1.7970    Y=              4.2154    Z=              0.5532  Tot=              4.6157
 Quadrupole moment (field-independent basis, Debye-Ang):
   XX=           -353.1051   YY=           -382.1808   ZZ=           -394.6426
   XY=            -26.2670   XZ=              6.4373   YZ=             -5.3481

 Normal termination of Gaussian 09 at Thu Aug  1 03:33:28 2019.
