 Gaussian 09, Revision D.01,
 Gaussian 09:  ES64L-G09RevD.01 24-Apr-2013

 --------------------------
 # td=(NStates=1) B3LYP/SVP
 --------------------------

 --
 TD
 --
 Symbolic Z-matrix:
 Charge =  0 Multiplicity = 1

                         Standard orientation:
 ---------------------------------------------------------------------
 Center     Atomic      Atomic             Coordinates (Angstroms)
 Number     Number       Type             X           Y           Z
 ---------------------------------------------------------------------
      1          6           0       -5.106859   -1.936119    0.416879
      2          6           0       -4.525701    2.800931    1.247008
      3          6           0       -9.274591    3.373182   -0.166868
      4          6           0       -9.960007   -1.403310   -0.864575
      5          7           0       -5.151427    0.486941    0.774122
      6          6           0       -4.540090   -0.771839    0.697952
      7          6           0       -3.039601   -0.586352    1.115887
      8          6           0       -2.905923    0.892469    1.642766
      9          6           0       -4.275486    1.379845    1.211413
     10          6           0       -2.896634    0.961573    3.134685
     11          6           0       -2.090656   -0.886660   -0.160276
     12          6           0       -0.662974   -0.939988    0.285727
     13          6           0        0.363530   -1.092014   -0.793040
     14          8           0        0.077572   -1.330337   -2.014044
     15          8           0        1.589826   -0.948740   -0.394558
     16          7           0       -6.941676    2.759299    0.578022
     17          6           0       -5.801593    3.413191    0.974191
     18          6           0       -6.166419    4.807740    1.062590
     19          6           0       -7.428777    4.964719    0.631177
     20          6           0       -7.993505    3.621003    0.271966
     21          6           0       -5.127089    5.761803    1.621840
     22          6           0       -8.070969    6.260323    0.592474
     23          6           0       -8.938603    6.702485   -0.428511
     24          7           0       -9.214318    0.947290   -0.462339
     25          6           0       -9.811202    2.094209   -0.477698
     26          6           0      -11.272766    1.920480   -0.989216
     27          6           0      -11.373593    0.595018   -1.163865
     28          6           0      -10.164443   -0.047986   -0.908348
     29          6           0      -12.202979    2.995241   -1.020861
     30          6           0      -12.545651   -0.049006   -1.714863
     31          6           0      -12.535235   -0.551807   -3.196767
     32          7           0       -7.570939   -1.311821   -0.210626
     33          6           0       -8.654039   -2.055532   -0.609513
     34          6           0       -8.261733   -3.366144   -0.555773
     35          6           0       -6.899243   -3.435488   -0.285971
     36          6           0       -6.544194   -2.034791   -0.050222
     37          6           0       -9.223934   -4.546259   -0.813302
     38          6           0       -5.816683   -4.332441    0.125594
     39          8           0       -5.761497   -5.529205    0.207237
     40          6           0       -4.652171   -3.309390    0.525986
     41          6           0       -4.092815   -3.719542    1.928284
     42          8           0       -4.441574   -3.176040    2.916278
     43          8           0       -3.226579   -4.776983    1.804068
     44          6           0       -2.834086   -5.450505    3.037467
     45          6           0        2.791333   -1.259382   -1.411826
     46          6           0        4.044653   -0.767069   -0.742251
     47          6           0        5.075029   -0.034601   -1.259771
     48          6           0        5.015884    0.557763   -2.776410
     49          6           0        6.308563    0.280626   -0.569688
     50          6           0        7.548520   -0.460458   -1.113634
     51          6           0        8.807075   -0.086208   -0.332284
     52          6           0       10.118516   -0.691486   -0.794531
     53          6           0       10.117704   -2.274928   -1.000685
     54          6           0       11.328644   -0.269570    0.071707
     55          6           0       12.603589   -0.470272   -0.481783
     56          6           0       13.812998    0.204952    0.321320
     57          6           0       15.167276   -0.136530   -0.206427
     58          6           0       15.591916   -1.732748   -0.118702
     59          6           0       16.220104    0.588728    0.513198
     60          6           0       17.603680    0.609163   -0.063440
     61          6           0       18.489988    1.655316    0.588770
     62          6           0       20.012188    1.606841    0.235517
     63          6           0       20.206966    2.120742   -1.215115
     64          6           0       20.996753    2.337328    1.194120
     65          1           0       -3.898438    3.555449    1.859430
     66          1           0       -9.900952    4.181137   -0.019683
     67          1           0      -10.724848   -2.124833   -1.243181
     68          1           0       -2.726000   -1.383127    1.954084
     69          1           0       -2.139530    1.279353    1.183022
     70          1           0       -1.987592    0.537733    3.626932
     71          1           0       -2.863275    2.099746    3.452010
     72          1           0       -3.808307    0.591816    3.571417
     73          1           0       -2.559328   -1.824470   -0.563141
     74          1           0       -2.213409   -0.127591   -0.972840
     75          1           0       -0.364571   -0.024850    0.903695
     76          1           0       -0.660464   -1.849980    1.075261
     77          1           0       -4.109689    5.834543    1.064778
     78          1           0       -5.444226    6.823691    1.622416
     79          1           0       -4.743685    5.505377    2.616355
     80          1           0       -7.759225    7.018661    1.309789
     81          1           0       -9.011171    6.005401   -1.227486
     82          1           0       -9.408377    7.642678   -0.387975
     83          1           0      -12.260889    3.686232   -0.125294
     84          1           0      -11.926665    3.863421   -1.662979
     85          1           0      -13.247827    2.792261   -1.326780
     86          1           0      -12.772328   -1.040404   -1.271068
     87          1           0      -13.401193    0.690843   -1.396385
     88          1           0      -12.528957    0.508985   -3.821509
     89          1           0      -11.691078   -1.059479   -3.542177
     90          1           0      -13.264714   -1.383727   -3.412119
     91          1           0      -10.349792   -4.373059   -0.292069
     92          1           0       -9.277561   -4.711833   -1.943787
     93          1           0       -8.793908   -5.641428   -0.600195
     94          1           0       -3.829952   -3.521480   -0.364859
     95          1           0       -2.388312   -6.447403    2.495900
     96          1           0       -2.016581   -4.582846    3.565974
     97          1           0       -3.742987   -5.407277    3.687316
     98          1           0        2.890451   -2.393736   -1.715095
     99          1           0        2.395265   -0.698050   -2.233703
    100          1           0        4.178427   -1.200107    0.236824
    101          1           0        5.594435    1.634050   -2.696267
    102          1           0        5.647541   -0.253998   -3.433847
    103          1           0        4.018664    0.868456   -3.166272
    104          1           0        6.461647    1.414092   -0.531176
    105          1           0        6.082514    0.151029    0.540978
    106          1           0        7.533519   -1.588156   -1.052558
    107          1           0        7.679404   -0.112250   -2.228314
    108          1           0        9.034488    0.931097   -0.075075
    109          1           0        8.771814   -0.293386    0.766210
    110          1           0       10.042574   -0.333677   -1.843952
    111          1           0        9.394012   -2.485142   -1.787511
    112          1           0       11.070119   -2.598470   -1.369525
    113          1           0        9.925683   -2.931147   -0.214011
    114          1           0       11.139339    0.814796    0.282715
    115          1           0       11.038291   -0.676650    1.103773
    116          1           0       12.939108   -1.573300   -0.620681
    117          1           0       12.747066   -0.249589   -1.582274
    118          1           0       13.810614    1.310151    0.118489
    119          1           0       13.643236   -0.159095    1.369732
    120          1           0       15.178117    0.313207   -1.130565
    121          1           0       14.865967   -2.198917   -0.717815
    122          1           0       16.637319   -1.882907   -0.464537
    123          1           0       15.395935   -2.113101    0.964390
    124          1           0       15.770897    1.619488    0.606992
    125          1           0       16.302428    0.191342    1.498808
    126          1           0       18.201894   -0.235081    0.130867
    127          1           0       17.441626    0.807596   -1.023657
    128          1           0       18.036692    2.541411    0.566042
    129          1           0       18.499048    1.208906    1.792889
    130          1           0       20.319372    0.635028    0.356641
    131          1           0       19.840973    3.087494   -1.400563
    132          1           0       21.280822    2.136387   -1.459607
    133          1           0       19.726828    1.277127   -1.819302
    134          1           0       21.066611    1.868860    2.047306
    135          1           0       21.934709    2.187255    0.570134
    136          1           0       20.772874    3.358790    1.456268
    137          1           0       -6.780726    1.862041    0.418263
    138          1           0       -7.675210   -0.280379    0.044208
 ---------------------------------------------------------------------

 SCF Done:  E(RB3LYP) =  -2733.10321880     A.U. after   17 cycles

 Excitation energies and oscillator strengths:

 Excited State   1:      Singlet-A      2.1524 eV  576.02 nm  f=0.1929  <S**2>=0.000
     235 -> 237       -0.13471
     235 -> 238        0.22492
     236 -> 237        0.65201
 This state for optimization and/or second-order correction.
 Total Energy, E(TD-HF/TD-KS) =  -2733.02411909
 Copying the excited state density for this state as the 1-particle RhoCI density.

 The electronic state is 1-A.
 Alpha  occ. eigenvalues --  -19.17321 -19.16885 -19.12856 -19.11480 -19.09943
 Alpha  occ. eigenvalues --  -14.37248 -14.36423 -14.32504 -14.30557 -10.31331
 Alpha  occ. eigenvalues --  -10.30532 -10.27298 -10.27092 -10.26785 -10.25203
 Alpha  occ. eigenvalues --  -10.24203 -10.23698 -10.22905 -10.22231 -10.22201
 Alpha  occ. eigenvalues --  -10.22181 -10.22061 -10.21570 -10.21554 -10.21448
 Alpha  occ. eigenvalues --  -10.21376 -10.21329 -10.21203 -10.21188 -10.21019
 Alpha  occ. eigenvalues --  -10.20978 -10.20947 -10.20726 -10.20616 -10.20362
 Alpha  occ. eigenvalues --  -10.20291 -10.20132 -10.20100 -10.19889 -10.19780
 Alpha  occ. eigenvalues --  -10.19616 -10.19387 -10.19380 -10.19313 -10.19304
 Alpha  occ. eigenvalues --  -10.19234 -10.19206 -10.18942 -10.18807 -10.18750
 Alpha  occ. eigenvalues --  -10.18736 -10.18483 -10.18464 -10.18272 -10.18113
 Alpha  occ. eigenvalues --  -10.18092 -10.17696 -10.17663 -10.17540 -10.17437
 Alpha  occ. eigenvalues --  -10.17032 -10.16587 -10.16466 -10.16142  -1.08683
 Alpha  occ. eigenvalues --   -1.07351  -1.02540  -1.01332  -1.00496  -0.98734
 Alpha  occ. eigenvalues --   -0.95540  -0.93985  -0.93770  -0.83906  -0.83242
 Alpha  occ. eigenvalues --   -0.82991  -0.82738  -0.81539  -0.81449  -0.80527
 Alpha  occ. eigenvalues --   -0.80112  -0.79904  -0.79829  -0.78938  -0.77854
 Alpha  occ. eigenvalues --   -0.77193  -0.75928  -0.75552  -0.74878  -0.74768
 Alpha  occ. eigenvalues --   -0.73754  -0.72735  -0.72056  -0.71185  -0.70625
 Alpha  occ. eigenvalues --   -0.69773  -0.68753  -0.68032  -0.67840  -0.67623
 Alpha  occ. eigenvalues --   -0.67219  -0.67175  -0.66593  -0.65821  -0.65431
 Alpha  occ. eigenvalues --   -0.64371  -0.63294  -0.62714  -0.62067  -0.61875
 Alpha  occ. eigenvalues --   -0.61233  -0.59988  -0.58473  -0.58042  -0.57467
 Alpha  occ. eigenvalues --   -0.56869  -0.56653  -0.56438  -0.55865  -0.55537
 Alpha  occ. eigenvalues --   -0.55475  -0.54560  -0.54430  -0.54064  -0.53347
 Alpha  occ. eigenvalues --   -0.53148  -0.52503  -0.51894  -0.51058  -0.50101
 Alpha  occ. eigenvalues --   -0.49661  -0.48906  -0.48739  -0.48523  -0.48427
 Alpha  occ. eigenvalues --   -0.47719  -0.47581  -0.47199  -0.46927  -0.46843
 Alpha  occ. eigenvalues --   -0.46604  -0.46207  -0.46012  -0.45797  -0.45461
 Alpha  occ. eigenvalues --   -0.45408  -0.45358  -0.44991  -0.44714  -0.44663
 Alpha  occ. eigenvalues --   -0.44396  -0.44196  -0.43870  -0.43803  -0.43698
 Alpha  occ. eigenvalues --   -0.43390  -0.43017  -0.42728  -0.42692  -0.42469
 Alpha  occ. eigenvalues --   -0.42302  -0.42110  -0.42047  -0.41547  -0.41343
 Alpha  occ. eigenvalues --   -0.41202  -0.41062  -0.40905  -0.40708  -0.40199
 Alpha  occ. eigenvalues --   -0.39998  -0.39890  -0.39782  -0.39725  -0.39689
 Alpha  occ. eigenvalues --   -0.39502  -0.39238  -0.39123  -0.38968  -0.38665
 Alpha  occ. eigenvalues --   -0.38539  -0.38389  -0.38209  -0.38090  -0.37896
 Alpha  occ. eigenvalues --   -0.37700  -0.37645  -0.37499  -0.37275  -0.37107
 Alpha  occ. eigenvalues --   -0.36888  -0.36654  -0.36427  -0.36183  -0.35984
 Alpha  occ. eigenvalues --   -0.35701  -0.35620  -0.35380  -0.35042  -0.34782
 Alpha  occ. eigenvalues --   -0.34443  -0.34242  -0.34046  -0.33788  -0.33641
 Alpha  occ. eigenvalues --   -0.33444  -0.33266  -0.33011  -0.32789  -0.32366
 Alpha  occ. eigenvalues --   -0.32190  -0.31852  -0.31468  -0.31320  -0.30896
 Alpha  occ. eigenvalues --   -0.30740  -0.30543  -0.29995  -0.29534  -0.29469
 Alpha  occ. eigenvalues --   -0.28874  -0.28871  -0.28595  -0.28338  -0.27558
 Alpha  occ. eigenvalues --   -0.27137  -0.26539  -0.26280  -0.25910  -0.25680
 Alpha  occ. eigenvalues --   -0.25206  -0.24415  -0.24379  -0.22972  -0.20054
 Alpha  occ. eigenvalues --   -0.19365
 Alpha virt. eigenvalues --   -0.10373  -0.07117  -0.03712  -0.02578  -0.01475
 Alpha virt. eigenvalues --   -0.00213  -0.00059   0.01075   0.02288   0.03242
 Alpha virt. eigenvalues --    0.03484   0.03912   0.04257   0.04304   0.04716

 Mulliken charges:
               1
     1  C    0.073931
     2  C   -0.029500
     3  C   -0.072675
     4  C   -0.066550
     5  N   -0.179976
     6  C   -0.038416
     7  C   -0.171218
     8  C    0.131571
     9  C   -0.044608
    10  C    0.056257
    11  C    0.061392
    12  C   -0.007797
    13  C    0.205128
    14  O   -0.319784
    15  O   -0.320604
    16  N    0.004392
    17  C   -0.020166
    18  C   -0.061348
    19  C    0.022560
    20  C    0.160427
    21  C    0.056396
    22  C   -0.108616
    23  C    0.008557
    24  N   -0.215569
    25  C    0.029122
    26  C   -0.089001
    27  C   -0.051041
    28  C    0.117159
    29  C    0.081169
    30  C    0.019174
    31  C   -0.000890
    32  N    0.052013
    33  C    0.006352
    34  C   -0.114089
    35  C   -0.039231
    36  C   -0.042552
    37  C   -0.019797
    38  C    0.085141
    39  O   -0.153346
    40  C   -0.118211
    41  C    0.203558
    42  O   -0.185436
    43  O   -0.327264
    44  C    0.092292
    45  C    0.263209
    46  C   -0.081031
    47  C   -0.123159
    48  C   -0.046036
    49  C    0.058092
    50  C    0.036112
    51  C    0.045849
    52  C   -0.100623
    53  C    0.055477
    54  C    0.086358
    55  C    0.011302
    56  C    0.019405
    57  C   -0.040280
    58  C    0.023184
    59  C    0.029088
    60  C    0.161008
    61  C   -0.006819
    62  C   -0.062705
    63  C    0.039000
    64  C    0.097972
    65  H    0.006304
    66  H   -0.042846
    67  H    0.003304
    68  H    0.031374
    69  H   -0.068835
    70  H    0.019767
    71  H    0.004792
    72  H    0.028660
    73  H    0.015304
    74  H    0.013838
    75  H    0.036796
    76  H    0.051591
    77  H    0.034061
    78  H    0.011364
    79  H    0.030993
    80  H    0.007323
    81  H    0.026281
    82  H    0.020242
    83  H    0.014298
    84  H   -0.001546
    85  H    0.011925
    86  H   -0.011158
    87  H    0.019093
    88  H    0.027582
    89  H   -0.003936
    90  H    0.018264
    91  H    0.054500
    92  H    0.036858
    93  H    0.050026
    94  H    0.090098
    95  H    0.093427
    96  H    0.048324
    97  H    0.061227
    98  H    0.074018
    99  H    0.029842
   100  H   -0.008642
   101  H    0.031671
   102  H    0.068246
   103  H    0.044533
   104  H    0.015837
   105  H    0.000295
   106  H    0.027503
   107  H    0.021608
   108  H   -0.041941
   109  H   -0.041706
   110  H   -0.017413
   111  H   -0.003476
   112  H   -0.010197
   113  H   -0.010684
   114  H   -0.018650
   115  H    0.002080
   116  H   -0.005041
   117  H   -0.013407
   118  H    0.002186
   119  H    0.000541
   120  H   -0.051425
   121  H   -0.004184
   122  H    0.025967
   123  H    0.020194
   124  H   -0.027005
   125  H   -0.038512
   126  H   -0.019807
   127  H   -0.052515
   128  H   -0.044663
   129  H   -0.012671
   130  H   -0.035969
   131  H    0.002973
   132  H   -0.003042
   133  H    0.016856
   134  H   -0.039824
   135  H    0.006186
   136  H    0.001123
   137  H    0.060137
   138  H    0.175374
 Sum of Mulliken charges =   0.00000

 Dipole moment (field-independent basis, Debye):
    X=              3.5229    Y=              5.1855    Z=              1.0857  Tot=              6.3624
 Quadrupole moment (field-independent basis, Debye-Ang):
   XX=           -350.9894   YY=           -376.9308   ZZ=           -398.7144
   XY=            -36.3056   XZ=             -0.2845   YZ=              1.5924

 Normal termination of Gaussian 09 at Mon Aug  5 07:04:37 2019.
