 Gaussian 09, Revision D.01,
 Gaussian 09:  ES64L-G09RevD.01 24-Apr-2013

 --------------------------
 # td=(NStates=1) B3LYP/SVP
 --------------------------

 --
 TD
 --
 Symbolic Z-matrix:
 Charge =  0 Multiplicity = 1

                         Standard orientation:
 ---------------------------------------------------------------------
 Center     Atomic      Atomic             Coordinates (Angstroms)
 Number     Number       Type             X           Y           Z
 ---------------------------------------------------------------------
      1          6           0       -5.034491   -1.784675    0.335588
      2          6           0       -4.873114    2.845461    1.440998
      3          6           0       -9.393874    3.275722   -0.264407
      4          6           0       -9.679211   -1.621750   -1.114209
      5          7           0       -5.222927    0.544356    0.795171
      6          6           0       -4.599791   -0.593127    0.830357
      7          6           0       -3.119670   -0.464302    1.352554
      8          6           0       -3.127952    0.954060    1.895860
      9          6           0       -4.468147    1.491483    1.378682
     10          6           0       -3.091297    1.040130    3.457144
     11          6           0       -2.067015   -0.655066    0.250794
     12          6           0       -0.562683   -0.607319    0.704792
     13          6           0        0.390075   -1.111916   -0.310480
     14          8           0        0.073495   -1.440728   -1.394970
     15          8           0        1.659218   -0.908593    0.109827
     16          7           0       -7.141252    2.746663    0.360281
     17          6           0       -5.990595    3.391489    0.898053
     18          6           0       -6.413579    4.816922    0.937688
     19          6           0       -7.709350    4.907947    0.512283
     20          6           0       -8.101307    3.670950    0.185623
     21          6           0       -5.299841    5.738371    1.386457
     22          6           0       -8.323149    6.191475    0.376645
     23          6           0       -9.206021    6.556665   -0.513225
     24          7           0       -9.138719    0.782505   -0.574271
     25          6           0       -9.837626    2.032432   -0.526172
     26          6           0      -11.232312    1.756731   -0.948528
     27          6           0      -11.397375    0.406558   -1.266628
     28          6           0      -10.050754   -0.219296   -0.966598
     29          6           0      -12.257267    2.859245   -1.221379
     30          6           0      -12.659420   -0.279581   -1.904404
     31          6           0      -12.590609   -0.558322   -3.343226
     32          7           0       -7.485901   -1.276259   -0.346876
     33          6           0       -8.527402   -2.075823   -0.803854
     34          6           0       -8.123857   -3.447085   -0.715327
     35          6           0       -6.760385   -3.425387   -0.240625
     36          6           0       -6.396920   -2.037295   -0.092668
     37          6           0       -9.054607   -4.545027   -1.027665
     38          6           0       -5.586092   -4.233449    0.011510
     39          8           0       -5.543003   -5.447489   -0.045245
     40          6           0       -4.387389   -3.220342    0.433717
     41          6           0       -3.841629   -3.705597    1.726151
     42          8           0       -4.183445   -3.264694    2.857518
     43          8           0       -2.926410   -4.696192    1.612665
     44          6           0       -2.525680   -5.361858    2.697891
     45          6           0        2.705347   -1.325710   -0.837537
     46          6           0        4.053594   -0.889700   -0.299701
     47          6           0        4.870448   -0.132312   -0.882375
     48          6           0        4.733444    0.560060   -2.174481
     49          6           0        6.301257    0.249684   -0.127189
     50          6           0        7.543346   -0.472574   -0.784706
     51          6           0        8.840099   -0.258051    0.013570
     52          6           0       10.132963   -0.666911   -0.765691
     53          6           0       10.028881   -2.249349   -1.000846
     54          6           0       11.285447   -0.256758    0.108925
     55          6           0       12.726425   -0.462735   -0.518825
     56          6           0       13.850278   -0.034525    0.295527
     57          6           0       15.347667   -0.265507   -0.340547
     58          6           0       15.701342   -1.690215   -0.702623
     59          6           0       16.378887    0.462367    0.552629
     60          6           0       17.640181    0.673163   -0.304947
     61          6           0       18.638135    1.627994    0.391530
     62          6           0       20.143218    1.812280   -0.158929
     63          6           0       20.088485    2.423620   -1.528223
     64          6           0       21.043772    2.601060    0.809616
     65          1           0       -4.169597    3.632027    1.724543
     66          1           0      -10.310284    3.976670   -0.109505
     67          1           0      -10.486076   -2.282840   -1.363516
     68          1           0       -2.838273   -1.073836    2.176040
     69          1           0       -2.385398    1.591671    1.387896
     70          1           0       -2.028627    0.734595    3.722875
     71          1           0       -3.343496    2.037827    4.062254
     72          1           0       -3.654729    0.213415    3.831689
     73          1           0       -2.095187   -1.627035   -0.324894
     74          1           0       -2.190037    0.209919   -0.502905
     75          1           0       -0.328426    0.530267    1.201703
     76          1           0       -0.262043   -1.398146    1.614460
     77          1           0       -4.592214    5.832153    0.624651
     78          1           0       -5.532583    6.936056    1.635666
     79          1           0       -4.794263    5.395678    2.315136
     80          1           0       -8.175526    7.054220    1.135140
     81          1           0       -9.696075    5.975514   -1.258890
     82          1           0       -9.699219    7.521860   -0.622830
     83          1           0      -12.275659    3.634150   -0.143213
     84          1           0      -11.712690    3.500231   -2.050296
     85          1           0      -13.221215    2.484888   -1.523881
     86          1           0      -13.049418   -1.183869   -1.131677
     87          1           0      -13.545793    0.513707   -1.826253
     88          1           0      -12.446046    0.427649   -3.812053
     89          1           0      -11.887961   -1.228493   -3.833901
     90          1           0      -13.616763   -0.963650   -3.615851
     91          1           0       -9.736517   -4.598073   -0.294509
     92          1           0       -9.752302   -4.430140   -1.996854
     93          1           0       -8.517941   -5.605548   -0.983964
     94          1           0       -3.516361   -3.337602   -0.379192
     95          1           0       -1.692974   -5.967048    2.285638
     96          1           0       -2.046261   -4.808580    3.442810
     97          1           0       -3.282226   -5.840403    3.071950
     98          1           0        2.579612   -2.387037   -1.143624
     99          1           0        2.378008   -0.937365   -1.777746
    100          1           0        4.146041   -1.461392    0.789098
    101          1           0        4.822561    1.767737   -2.195107
    102          1           0        5.649373    0.196366   -2.735518
    103          1           0        3.698097    0.455060   -2.629286
    104          1           0        6.295705    1.371476   -0.121029
    105          1           0        6.045917    0.039989    0.782042
    106          1           0        7.187776   -1.467942   -0.983542
    107          1           0        7.489226    0.061437   -1.596864
    108          1           0        8.844964    0.799488    0.213111
    109          1           0        8.977047   -0.766058    1.080096
    110          1           0       10.243591   -0.138987   -1.732439
    111          1           0        9.334981   -2.469269   -1.723026
    112          1           0       10.832282   -2.414793   -1.644666
    113          1           0        9.764997   -2.984626   -0.182876
    114          1           0       11.231145    0.716697    0.483565
    115          1           0       11.260312   -0.972698    1.050286
    116          1           0       12.846487   -1.478882   -0.940221
    117          1           0       12.623338    0.065741   -1.436441
    118          1           0       13.649380    1.008339    0.681758
    119          1           0       14.056265   -0.733975    1.252338
    120          1           0       15.032545    0.321947   -1.234858
    121          1           0       15.095514   -2.034160   -1.577377
    122          1           0       16.655682   -1.799857   -1.410573
    123          1           0       15.429359   -2.467342    0.217785
    124          1           0       15.998208    1.552329    1.018705
    125          1           0       16.511444   -0.206622    1.475940
    126          1           0       18.115636   -0.244517   -0.580127
    127          1           0       17.417617    1.025398   -1.249073
    128          1           0       18.003401    2.533862    0.842105
    129          1           0       18.904067    1.193105    1.353117
    130          1           0       20.341007    0.825964   -0.140588
    131          1           0       19.660202    3.527809   -1.463796
    132          1           0       21.131836    2.353302   -2.189515
    133          1           0       19.133164    1.854036   -2.091618
    134          1           0       21.253129    1.881825    1.692894
    135          1           0       22.074945    2.888019    0.184399
    136          1           0       20.559615    3.534918    0.982866
    137          1           0       -7.417657    1.697638    0.129127
    138          1           0       -7.609176   -0.249316   -0.457469
 ---------------------------------------------------------------------

 SCF Done:  E(RB3LYP) =  -2733.02496393     A.U. after   17 cycles

 Excitation energies and oscillator strengths:

 Excited State   1:      Singlet-A      2.0155 eV  615.16 nm  f=0.2285  <S**2>=0.000
     235 -> 238       -0.23097
     236 -> 237        0.65481
 This state for optimization and/or second-order correction.
 Total Energy, E(TD-HF/TD-KS) =  -2732.95089636
 Copying the excited state density for this state as the 1-particle RhoCI density.

 The electronic state is 1-A.
 Alpha  occ. eigenvalues --  -19.17658 -19.17075 -19.12612 -19.12491 -19.11784
 Alpha  occ. eigenvalues --  -14.36669 -14.36312 -14.31995 -14.31184 -10.31848
 Alpha  occ. eigenvalues --  -10.31037 -10.28362 -10.24218 -10.24099 -10.23545
 Alpha  occ. eigenvalues --  -10.23092 -10.22999 -10.22920 -10.22715 -10.22656
 Alpha  occ. eigenvalues --  -10.22446 -10.22315 -10.22136 -10.22062 -10.22055
 Alpha  occ. eigenvalues --  -10.21746 -10.21509 -10.20788 -10.20786 -10.20739
 Alpha  occ. eigenvalues --  -10.20592 -10.20497 -10.20430 -10.20425 -10.20420
 Alpha  occ. eigenvalues --  -10.20262 -10.20201 -10.20076 -10.19953 -10.19753
 Alpha  occ. eigenvalues --  -10.19732 -10.19696 -10.19611 -10.19541 -10.19521
 Alpha  occ. eigenvalues --  -10.19468 -10.19454 -10.19384 -10.19358 -10.19300
 Alpha  occ. eigenvalues --  -10.19293 -10.19276 -10.19078 -10.19077 -10.18808
 Alpha  occ. eigenvalues --  -10.18329 -10.18323 -10.18265 -10.18212 -10.18200
 Alpha  occ. eigenvalues --  -10.17908 -10.17436 -10.17339 -10.17230  -1.10453
 Alpha  occ. eigenvalues --   -1.09705  -1.02775  -1.01529  -0.98732  -0.98258
 Alpha  occ. eigenvalues --   -0.97848  -0.95874  -0.90807  -0.84288  -0.82684
 Alpha  occ. eigenvalues --   -0.82387  -0.81631  -0.81534  -0.81046  -0.80811
 Alpha  occ. eigenvalues --   -0.80688  -0.79540  -0.79337  -0.78677  -0.77503
 Alpha  occ. eigenvalues --   -0.77091  -0.76422  -0.76061  -0.74906  -0.74836
 Alpha  occ. eigenvalues --   -0.74372  -0.73728  -0.72574  -0.71949  -0.71376
 Alpha  occ. eigenvalues --   -0.69947  -0.69355  -0.68535  -0.68406  -0.67273
 Alpha  occ. eigenvalues --   -0.66850  -0.66122  -0.65881  -0.65582  -0.65137
 Alpha  occ. eigenvalues --   -0.64483  -0.62579  -0.62541  -0.61771  -0.61194
 Alpha  occ. eigenvalues --   -0.60469  -0.59984  -0.59114  -0.58381  -0.57625
 Alpha  occ. eigenvalues --   -0.57453  -0.56683  -0.56048  -0.55818  -0.55644
 Alpha  occ. eigenvalues --   -0.55390  -0.55205  -0.53889  -0.53506  -0.52849
 Alpha  occ. eigenvalues --   -0.52320  -0.51839  -0.51095  -0.50912  -0.50695
 Alpha  occ. eigenvalues --   -0.49666  -0.49248  -0.48687  -0.48600  -0.48153
 Alpha  occ. eigenvalues --   -0.47765  -0.47510  -0.47327  -0.47151  -0.46839
 Alpha  occ. eigenvalues --   -0.46726  -0.46618  -0.46252  -0.46064  -0.45778
 Alpha  occ. eigenvalues --   -0.45522  -0.45323  -0.45002  -0.44847  -0.44798
 Alpha  occ. eigenvalues --   -0.44414  -0.44056  -0.43972  -0.43887  -0.43416
 Alpha  occ. eigenvalues --   -0.43395  -0.43204  -0.43105  -0.42911  -0.42709
 Alpha  occ. eigenvalues --   -0.42254  -0.41704  -0.41691  -0.41511  -0.41305
 Alpha  occ. eigenvalues --   -0.40993  -0.40844  -0.40679  -0.40368  -0.40245
 Alpha  occ. eigenvalues --   -0.40092  -0.40015  -0.39638  -0.39513  -0.39318
 Alpha  occ. eigenvalues --   -0.39164  -0.38858  -0.38704  -0.38586  -0.38390
 Alpha  occ. eigenvalues --   -0.38212  -0.38143  -0.37696  -0.37458  -0.37433
 Alpha  occ. eigenvalues --   -0.37305  -0.37012  -0.36824  -0.36615  -0.36464
 Alpha  occ. eigenvalues --   -0.36369  -0.36242  -0.35841  -0.35767  -0.35596
 Alpha  occ. eigenvalues --   -0.35478  -0.35395  -0.34894  -0.34853  -0.34450
 Alpha  occ. eigenvalues --   -0.34244  -0.34227  -0.34038  -0.33905  -0.33674
 Alpha  occ. eigenvalues --   -0.33216  -0.33168  -0.33041  -0.32697  -0.32633
 Alpha  occ. eigenvalues --   -0.32376  -0.32328  -0.32300  -0.31591  -0.31340
 Alpha  occ. eigenvalues --   -0.31096  -0.30916  -0.30441  -0.30172  -0.29796
 Alpha  occ. eigenvalues --   -0.29392  -0.29067  -0.28622  -0.28421  -0.27199
 Alpha  occ. eigenvalues --   -0.27098  -0.26784  -0.26635  -0.26406  -0.26121
 Alpha  occ. eigenvalues --   -0.26029  -0.25234  -0.24318  -0.22523  -0.20816
 Alpha  occ. eigenvalues --   -0.18427
 Alpha virt. eigenvalues --   -0.10498  -0.07762  -0.04529  -0.01514  -0.00646
 Alpha virt. eigenvalues --   -0.00145   0.00307   0.01494   0.02438   0.03201
 Alpha virt. eigenvalues --    0.03923   0.03945   0.04279   0.04289   0.04848

 Mulliken charges:
               1
     1  C    0.056273
     2  C   -0.042808
     3  C   -0.138298
     4  C   -0.120301
     5  N   -0.099742
     6  C   -0.067486
     7  C    0.010533
     8  C   -0.018486
     9  C   -0.034623
    10  C    0.037468
    11  C    0.035772
    12  C   -0.113598
    13  C    0.187044
    14  O   -0.204135
    15  O   -0.332542
    16  N   -0.121750
    17  C    0.088352
    18  C   -0.088110
    19  C    0.086120
    20  C    0.081886
    21  C    0.047867
    22  C   -0.047366
    23  C   -0.064510
    24  N   -0.364004
    25  C    0.117461
    26  C   -0.127272
    27  C   -0.074758
    28  C    0.041524
    29  C    0.007983
    30  C   -0.022373
    31  C    0.027131
    32  N   -0.048640
    33  C    0.182233
    34  C   -0.119305
    35  C    0.014760
    36  C    0.050586
    37  C    0.088006
    38  C    0.048930
    39  O   -0.167032
    40  C   -0.095216
    41  C    0.218369
    42  O   -0.279745
    43  O   -0.266342
    44  C    0.283680
    45  C    0.237232
    46  C   -0.081002
    47  C   -0.148245
    48  C    0.033540
    49  C    0.085003
    50  C    0.145833
    51  C    0.037443
    52  C   -0.105117
    53  C    0.107572
    54  C    0.033775
    55  C    0.080299
    56  C   -0.010688
    57  C   -0.115494
    58  C   -0.001424
    59  C   -0.001358
    60  C    0.104631
    61  C   -0.040616
    62  C   -0.015835
    63  C   -0.056589
    64  C    0.004612
    65  H   -0.025922
    66  H    0.017294
    67  H   -0.032184
    68  H   -0.012274
    69  H   -0.001821
    70  H    0.012009
    71  H    0.044706
    72  H    0.025037
    73  H    0.031324
    74  H    0.021533
    75  H    0.071817
    76  H    0.047824
    77  H    0.020657
    78  H    0.025797
    79  H    0.043453
    80  H    0.024737
    81  H   -0.001888
    82  H    0.010154
    83  H    0.048432
    84  H    0.054739
    85  H    0.018518
    86  H    0.031860
    87  H    0.012820
    88  H    0.013876
    89  H    0.017999
    90  H    0.017272
    91  H   -0.003118
    92  H    0.044531
    93  H    0.056735
    94  H    0.085570
    95  H    0.015403
    96  H   -0.010786
    97  H   -0.023578
    98  H    0.015348
    99  H   -0.016772
   100  H    0.029298
   101  H    0.035469
   102  H    0.036350
   103  H    0.025710
   104  H   -0.001157
   105  H   -0.065753
   106  H    0.005685
   107  H   -0.053769
   108  H   -0.021103
   109  H    0.012507
   110  H   -0.013298
   111  H   -0.036771
   112  H   -0.028471
   113  H    0.030724
   114  H   -0.025549
   115  H   -0.002567
   116  H   -0.014167
   117  H   -0.039959
   118  H    0.005567
   119  H   -0.007257
   120  H   -0.003744
   121  H    0.002497
   122  H    0.028862
   123  H    0.043414
   124  H    0.018317
   125  H    0.008931
   126  H   -0.021746
   127  H   -0.026895
   128  H   -0.006161
   129  H   -0.028140
   130  H   -0.035267
   131  H    0.022315
   132  H    0.037618
   133  H    0.016568
   134  H    0.033373
   135  H    0.022142
   136  H    0.013447
   137  H    0.198209
   138  H    0.156561
 Sum of Mulliken charges =   0.00000

 Dipole moment (field-independent basis, Debye):
    X=              1.5173    Y=              3.2730    Z=             -1.0680  Tot=              3.7624
 Quadrupole moment (field-independent basis, Debye-Ang):
   XX=           -358.8369   YY=           -385.6475   ZZ=           -396.1487
   XY=            -24.6543   XZ=              8.7138   YZ=              2.4958

 Normal termination of Gaussian 09 at Wed Jul 31 13:38:56 2019.
