 Gaussian 09, Revision D.01,
 Gaussian 09:  ES64L-G09RevD.01 24-Apr-2013

 --------------------------
 # td=(NStates=1) B3LYP/SVP
 --------------------------

 --
 TD
 --
 Symbolic Z-matrix:
 Charge =  0 Multiplicity = 1

                         Standard orientation:
 ---------------------------------------------------------------------
 Center     Atomic      Atomic             Coordinates (Angstroms)
 Number     Number       Type             X           Y           Z
 ---------------------------------------------------------------------
      1          6           0       -5.166430   -1.881519    0.541070
      2          6           0       -4.812873    2.752115    1.464659
      3          6           0       -9.415186    3.277991   -0.026394
      4          6           0       -9.873236   -1.375893   -0.936988
      5          7           0       -5.185429    0.479377    0.815040
      6          6           0       -4.417826   -0.677032    0.836330
      7          6           0       -3.058472   -0.575787    1.324999
      8          6           0       -3.016175    0.881561    1.825224
      9          6           0       -4.401792    1.358499    1.319641
     10          6           0       -2.863307    0.957159    3.335471
     11          6           0       -2.016214   -0.832401    0.226503
     12          6           0       -0.565785   -0.815297    0.712948
     13          6           0        0.388641   -1.176865   -0.487749
     14          8           0        0.064871   -1.784342   -1.526453
     15          8           0        1.614570   -0.806772   -0.188399
     16          7           0       -7.060524    2.779901    0.493283
     17          6           0       -5.977002    3.396264    1.097534
     18          6           0       -6.222046    4.838919    1.060289
     19          6           0       -7.469530    4.961922    0.521960
     20          6           0       -8.006263    3.695455    0.328021
     21          6           0       -5.200425    5.854467    1.430503
     22          6           0       -8.141860    6.275639    0.269751
     23          6           0       -9.027539    6.605095   -0.623286
     24          7           0       -9.237866    0.916694   -0.433320
     25          6           0       -9.907449    2.112279   -0.528791
     26          6           0      -11.234251    1.942619   -1.030428
     27          6           0      -11.413464    0.565830   -1.267474
     28          6           0      -10.139088   -0.039966   -0.853460
     29          6           0      -12.164499    3.109113   -1.119527
     30          6           0      -12.588513   -0.078317   -1.806562
     31          6           0      -12.570510   -0.306362   -3.399626
     32          7           0       -7.481073   -1.206275   -0.201099
     33          6           0       -8.592944   -2.001278   -0.636011
     34          6           0       -8.186600   -3.367458   -0.720985
     35          6           0       -6.834699   -3.401037   -0.250257
     36          6           0       -6.427234   -2.009419    0.075645
     37          6           0       -9.005497   -4.580175   -1.111716
     38          6           0       -5.814754   -4.241603    0.094135
     39          8           0       -5.757776   -5.464137   -0.052160
     40          6           0       -4.550464   -3.334650    0.455801
     41          6           0       -4.062617   -3.784126    1.846791
     42          8           0       -4.162737   -3.268647    2.882258
     43          8           0       -3.198879   -4.885955    1.559346
     44          6           0       -2.740182   -5.592645    2.691675
     45          6           0        2.703244   -1.204504   -1.131634
     46          6           0        4.035989   -0.586364   -0.544570
     47          6           0        5.051578   -0.157763   -1.173684
     48          6           0        4.864158    0.221088   -2.676698
     49          6           0        6.308737    0.158163   -0.449652
     50          6           0        7.631704   -0.576533   -1.017940
     51          6           0        8.759555   -0.335419   -0.044215
     52          6           0       10.029385   -0.806926   -0.688778
     53          6           0       10.208576   -2.366145   -0.869252
     54          6           0       11.210950   -0.289526    0.123195
     55          6           0       12.618738   -0.532221   -0.557759
     56          6           0       13.820656    0.143223    0.218289
     57          6           0       15.212584   -0.109364   -0.404059
     58          6           0       15.594301   -1.562867   -0.619414
     59          6           0       16.323382    0.607090    0.365164
     60          6           0       17.656777    0.755137   -0.248360
     61          6           0       18.591860    1.681057    0.572680
     62          6           0       20.019597    1.724690    0.149222
     63          6           0       20.212056    2.515921   -1.270891
     64          6           0       20.895887    2.551340    1.168868
     65          1           0       -4.096818    3.502292    1.879161
     66          1           0      -10.011725    4.270001   -0.111871
     67          1           0      -10.591282   -2.245076   -1.009770
     68          1           0       -2.900230   -1.214296    2.160665
     69          1           0       -2.113637    1.309824    1.222514
     70          1           0       -1.814956    0.648171    3.487370
     71          1           0       -3.036644    1.905815    3.714289
     72          1           0       -3.590296    0.294257    3.969511
     73          1           0       -2.256631   -1.829016   -0.188366
     74          1           0       -2.084582   -0.172112   -0.712342
     75          1           0       -0.246766    0.185722    1.221685
     76          1           0       -0.277998   -1.422082    1.370727
     77          1           0       -4.423651    5.961377    0.808209
     78          1           0       -5.927563    6.615495    1.446451
     79          1           0       -4.779176    5.605188    2.356586
     80          1           0       -7.716346    7.142688    1.048232
     81          1           0       -9.497120    5.950078   -1.352594
     82          1           0       -9.573618    7.601468   -0.908282
     83          1           0      -12.664682    3.452849   -0.079458
     84          1           0      -11.560350    3.926153   -1.641909
     85          1           0      -13.072027    2.631856   -1.806280
     86          1           0      -12.729807   -1.072931   -1.326777
     87          1           0      -13.491696    0.401125   -1.733804
     88          1           0      -12.378024    0.676829   -3.921831
     89          1           0      -11.835734   -1.018919   -3.589205
     90          1           0      -13.583404   -0.554499   -3.720869
     91          1           0      -10.102143   -4.557189   -0.784723
     92          1           0       -8.844014   -4.677576   -2.318135
     93          1           0       -8.402407   -5.549034   -0.599919
     94          1           0       -3.780560   -3.510535   -0.281888
     95          1           0       -2.243850   -6.491929    2.368576
     96          1           0       -1.978390   -4.962429    3.374157
     97          1           0       -3.589036   -5.735290    3.183302
     98          1           0        2.511806   -2.321043   -1.180450
     99          1           0        2.566653   -0.828371   -2.310779
    100          1           0        4.125492   -1.008108    0.610649
    101          1           0        5.158266    1.394246   -3.045447
    102          1           0        5.532930   -0.367185   -3.304362
    103          1           0        3.898120    0.051059   -3.213392
    104          1           0        6.713979    1.328496   -0.334218
    105          1           0        6.196594   -0.147761    0.497424
    106          1           0        7.596136   -1.697971   -1.160348
    107          1           0        7.989757    0.013291   -2.094539
    108          1           0        8.843674    0.608950   -0.023069
    109          1           0        8.466727   -0.649194    0.885835
    110          1           0        9.932845   -0.427957   -1.692588
    111          1           0        9.249260   -2.783461   -1.178525
    112          1           0       11.037995   -2.607314   -1.480501
    113          1           0       10.426498   -2.994637    0.046809
    114          1           0       10.930401    0.594699    0.295279
    115          1           0       11.444878   -0.784887    1.215826
    116          1           0       12.670527   -1.776795   -0.588980
    117          1           0       12.637261   -0.052099   -1.661908
    118          1           0       13.387467    1.153110    0.335738
    119          1           0       13.683569   -0.286179    1.217095
    120          1           0       15.143361    0.291422   -1.356895
    121          1           0       15.042687   -2.229693   -1.466211
    122          1           0       16.638281   -1.666936   -1.011422
    123          1           0       15.672766   -2.297881    0.247236
    124          1           0       15.790285    1.580940    0.441928
    125          1           0       16.408482    0.323124    1.378017
    126          1           0       18.295637   -0.128549   -0.290196
    127          1           0       17.565051    0.931461   -1.375500
    128          1           0       18.167161    2.677115    0.515591
    129          1           0       18.324062    1.444462    1.603106
    130          1           0       20.617888    0.750962    0.025535
    131          1           0       19.689797    3.608115   -1.198057
    132          1           0       21.280156    2.452944   -1.301692
    133          1           0       19.906324    1.992712   -2.176064
    134          1           0       20.675874    1.790842    2.082086
    135          1           0       22.000594    2.663241    0.934656
    136          1           0       20.430615    3.635270    1.362484
    137          1           0       -7.278135    1.756261    0.647293
    138          1           0       -7.424493   -0.223081    0.103847
 ---------------------------------------------------------------------

 SCF Done:  E(RB3LYP) =  -2733.02656172     A.U. after   18 cycles

 Excitation energies and oscillator strengths:

 Excited State   1:      Singlet-A      2.0027 eV  619.07 nm  f=0.1647  <S**2>=0.000
     235 -> 237       -0.14885
     235 -> 238        0.27293
     236 -> 237        0.62057
     236 -> 238        0.12812
 This state for optimization and/or second-order correction.
 Total Energy, E(TD-HF/TD-KS) =  -2732.95296258
 Copying the excited state density for this state as the 1-particle RhoCI density.

 The electronic state is 1-A.
 Alpha  occ. eigenvalues --  -19.18628 -19.15430 -19.13937 -19.12177 -19.10411
 Alpha  occ. eigenvalues --  -14.36969 -14.36746 -14.33253 -14.29126 -10.31789
 Alpha  occ. eigenvalues --  -10.31277 -10.27400 -10.25856 -10.23901 -10.23852
 Alpha  occ. eigenvalues --  -10.23357 -10.23314 -10.23212 -10.22741 -10.22737
 Alpha  occ. eigenvalues --  -10.22210 -10.22105 -10.21846 -10.21127 -10.21111
 Alpha  occ. eigenvalues --  -10.21095 -10.21071 -10.21040 -10.20887 -10.20819
 Alpha  occ. eigenvalues --  -10.20691 -10.20629 -10.20562 -10.20510 -10.20425
 Alpha  occ. eigenvalues --  -10.20403 -10.20398 -10.20274 -10.20244 -10.20228
 Alpha  occ. eigenvalues --  -10.20219 -10.20168 -10.20107 -10.20079 -10.19844
 Alpha  occ. eigenvalues --  -10.19563 -10.19405 -10.18918 -10.18783 -10.18777
 Alpha  occ. eigenvalues --  -10.18584 -10.18541 -10.18532 -10.18502 -10.18379
 Alpha  occ. eigenvalues --  -10.18271 -10.18090 -10.18014 -10.18011 -10.17888
 Alpha  occ. eigenvalues --  -10.17792 -10.17451 -10.17442 -10.16045  -1.09424
 Alpha  occ. eigenvalues --   -1.09248  -1.01329  -1.00306  -0.99516  -0.98949
 Alpha  occ. eigenvalues --   -0.97192  -0.96366  -0.92510  -0.84075  -0.83878
 Alpha  occ. eigenvalues --   -0.83018  -0.82579  -0.82367  -0.81994  -0.80636
 Alpha  occ. eigenvalues --   -0.79770  -0.79570  -0.79126  -0.78555  -0.77885
 Alpha  occ. eigenvalues --   -0.76868  -0.76573  -0.74768  -0.74608  -0.74294
 Alpha  occ. eigenvalues --   -0.73224  -0.72870  -0.72286  -0.72197  -0.71243
 Alpha  occ. eigenvalues --   -0.70171  -0.68945  -0.68490  -0.67647  -0.67523
 Alpha  occ. eigenvalues --   -0.66821  -0.66635  -0.66243  -0.65677  -0.65614
 Alpha  occ. eigenvalues --   -0.63857  -0.63348  -0.62439  -0.62023  -0.61630
 Alpha  occ. eigenvalues --   -0.61132  -0.59050  -0.58241  -0.57896  -0.57735
 Alpha  occ. eigenvalues --   -0.56713  -0.56667  -0.56284  -0.55843  -0.55532
 Alpha  occ. eigenvalues --   -0.55321  -0.54823  -0.54359  -0.53827  -0.53160
 Alpha  occ. eigenvalues --   -0.52648  -0.52044  -0.51134  -0.50691  -0.50321
 Alpha  occ. eigenvalues --   -0.49872  -0.49284  -0.49146  -0.49095  -0.48604
 Alpha  occ. eigenvalues --   -0.48340  -0.47890  -0.47503  -0.47317  -0.46982
 Alpha  occ. eigenvalues --   -0.46670  -0.46390  -0.46130  -0.45918  -0.45849
 Alpha  occ. eigenvalues --   -0.45530  -0.45379  -0.45101  -0.44887  -0.44860
 Alpha  occ. eigenvalues --   -0.44499  -0.44285  -0.43950  -0.43794  -0.43365
 Alpha  occ. eigenvalues --   -0.43233  -0.43158  -0.42900  -0.42713  -0.42451
 Alpha  occ. eigenvalues --   -0.42121  -0.41918  -0.41870  -0.41552  -0.41233
 Alpha  occ. eigenvalues --   -0.41188  -0.41084  -0.41007  -0.40734  -0.40243
 Alpha  occ. eigenvalues --   -0.40048  -0.39873  -0.39730  -0.39541  -0.39266
 Alpha  occ. eigenvalues --   -0.38997  -0.38838  -0.38684  -0.38181  -0.37871
 Alpha  occ. eigenvalues --   -0.37851  -0.37758  -0.37697  -0.37358  -0.37267
 Alpha  occ. eigenvalues --   -0.37145  -0.37082  -0.36866  -0.36687  -0.36536
 Alpha  occ. eigenvalues --   -0.36311  -0.36267  -0.36134  -0.35918  -0.35661
 Alpha  occ. eigenvalues --   -0.35559  -0.35288  -0.35268  -0.34912  -0.34664
 Alpha  occ. eigenvalues --   -0.34465  -0.34359  -0.34242  -0.34173  -0.33721
 Alpha  occ. eigenvalues --   -0.33683  -0.33520  -0.33231  -0.32971  -0.32782
 Alpha  occ. eigenvalues --   -0.32215  -0.32100  -0.31875  -0.31801  -0.31559
 Alpha  occ. eigenvalues --   -0.31257  -0.31241  -0.30946  -0.30393  -0.29839
 Alpha  occ. eigenvalues --   -0.29675  -0.29405  -0.29043  -0.28861  -0.28490
 Alpha  occ. eigenvalues --   -0.27875  -0.27699  -0.26695  -0.26623  -0.25949
 Alpha  occ. eigenvalues --   -0.25533  -0.25315  -0.23628  -0.21771  -0.19668
 Alpha  occ. eigenvalues --   -0.18455
 Alpha virt. eigenvalues --   -0.10302  -0.07520  -0.04864  -0.01218  -0.01142
 Alpha virt. eigenvalues --   -0.00176   0.00217   0.00747   0.01825   0.03627
 Alpha virt. eigenvalues --    0.04103   0.04210   0.04326   0.04427   0.04621

 Mulliken charges:
               1
     1  C   -0.009194
     2  C   -0.075177
     3  C   -0.105624
     4  C   -0.106543
     5  N   -0.131369
     6  C   -0.051074
     7  C    0.038741
     8  C   -0.066719
     9  C   -0.023173
    10  C    0.085143
    11  C    0.019137
    12  C    0.113216
    13  C    0.168299
    14  O   -0.274184
    15  O   -0.292785
    16  N   -0.032077
    17  C    0.058840
    18  C   -0.162990
    19  C    0.012388
    20  C   -0.007980
    21  C    0.242083
    22  C   -0.022043
    23  C   -0.095281
    24  N   -0.263019
    25  C    0.122034
    26  C   -0.127776
    27  C   -0.057555
    28  C    0.145243
    29  C    0.007321
    30  C    0.070918
    31  C    0.009984
    32  N   -0.056483
    33  C    0.032356
    34  C   -0.096928
    35  C    0.068654
    36  C    0.063179
    37  C   -0.029274
    38  C   -0.012680
    39  O   -0.208043
    40  C   -0.098546
    41  C    0.218376
    42  O   -0.156731
    43  O   -0.359989
    44  C    0.225616
    45  C    0.160702
    46  C   -0.108489
    47  C   -0.030234
    48  C   -0.003140
    49  C    0.119034
    50  C   -0.132486
    51  C    0.209000
    52  C   -0.072268
    53  C    0.033793
    54  C    0.112729
    55  C   -0.101946
    56  C    0.047685
    57  C    0.056699
    58  C   -0.037900
    59  C    0.053060
    60  C    0.037162
    61  C    0.080599
    62  C   -0.124437
    63  C    0.006228
    64  C   -0.052283
    65  H   -0.033184
    66  H   -0.004257
    67  H   -0.003330
    68  H    0.002527
    69  H    0.022387
    70  H    0.014204
    71  H   -0.008453
    72  H    0.043799
    73  H    0.020843
    74  H    0.025227
    75  H    0.029097
    76  H   -0.048770
    77  H    0.002711
    78  H   -0.017883
    79  H    0.004744
    80  H    0.046534
    81  H    0.022516
    82  H    0.042825
    83  H    0.057174
    84  H    0.043026
    85  H    0.028757
    86  H   -0.001464
    87  H   -0.031231
    88  H    0.015604
    89  H    0.009853
    90  H    0.009155
    91  H    0.051816
    92  H    0.066389
    93  H    0.080382
    94  H    0.073288
    95  H    0.027676
    96  H    0.018099
    97  H   -0.011313
    98  H    0.050315
    99  H    0.059692
   100  H    0.025909
   101  H    0.036528
   102  H    0.019846
   103  H    0.015804
   104  H    0.030512
   105  H   -0.047028
   106  H    0.024521
   107  H    0.022708
   108  H   -0.088536
   109  H   -0.030980
   110  H   -0.020322
   111  H   -0.014669
   112  H    0.012839
   113  H   -0.001706
   114  H   -0.089738
   115  H    0.008026
   116  H    0.035079
   117  H    0.007225
   118  H   -0.003104
   119  H   -0.019541
   120  H   -0.036321
   121  H    0.015901
   122  H   -0.000884
   123  H    0.006141
   124  H   -0.016663
   125  H   -0.024295
   126  H   -0.014577
   127  H   -0.007217
   128  H   -0.025278
   129  H   -0.019256
   130  H    0.011330
   131  H    0.033249
   132  H   -0.002664
   133  H    0.009675
   134  H    0.026337
   135  H    0.031425
   136  H    0.028377
   137  H    0.174324
   138  H    0.146468
 Sum of Mulliken charges =   0.00000

 Dipole moment (field-independent basis, Debye):
    X=              3.6241    Y=              5.1041    Z=              1.3488  Tot=              6.4035
 Quadrupole moment (field-independent basis, Debye-Ang):
   XX=           -352.8328   YY=           -392.4962   ZZ=           -394.0622
   XY=            -27.0003   XZ=              3.2498   YZ=             -2.7554

 Normal termination of Gaussian 09 at Mon Aug  5 05:01:38 2019.
