 Gaussian 09, Revision D.01,
 Gaussian 09:  ES64L-G09RevD.01 24-Apr-2013

 --------------------------
 # td=(NStates=1) B3LYP/SVP
 --------------------------

 --
 TD
 --
 Symbolic Z-matrix:
 Charge =  0 Multiplicity = 1

                         Standard orientation:
 ---------------------------------------------------------------------
 Center     Atomic      Atomic             Coordinates (Angstroms)
 Number     Number       Type             X           Y           Z
 ---------------------------------------------------------------------
      1          6           0       -4.992838   -1.829353    0.481651
      2          6           0       -4.715618    2.934420    1.367937
      3          6           0       -9.374148    3.247116   -0.190317
      4          6           0       -9.758570   -1.504450   -0.866114
      5          7           0       -5.182055    0.474849    0.825106
      6          6           0       -4.479023   -0.631878    0.921281
      7          6           0       -3.036479   -0.454521    1.298048
      8          6           0       -3.049745    1.116693    1.821247
      9          6           0       -4.466664    1.576522    1.263506
     10          6           0       -2.916902    1.207417    3.315256
     11          6           0       -2.035714   -0.710525    0.179936
     12          6           0       -0.618362   -0.763065    0.627766
     13          6           0        0.349289   -1.041783   -0.454789
     14          8           0        0.058112   -1.475957   -1.568073
     15          8           0        1.628842   -0.614791   -0.177023
     16          7           0       -7.103739    2.768950    0.515418
     17          6           0       -6.061935    3.512467    0.994910
     18          6           0       -6.454434    4.857338    0.936970
     19          6           0       -7.761495    4.868592    0.553176
     20          6           0       -8.148566    3.618465    0.259370
     21          6           0       -5.488176    5.862014    1.354941
     22          6           0       -8.503469    6.146380    0.318994
     23          6           0       -9.417267    6.526542   -0.681219
     24          7           0       -9.233324    0.821453   -0.592273
     25          6           0       -9.945847    1.978248   -0.545011
     26          6           0      -11.255357    1.756472   -1.030317
     27          6           0      -11.438398    0.403480   -1.297893
     28          6           0      -10.161053   -0.131835   -0.961717
     29          6           0      -12.236688    2.829775   -1.307503
     30          6           0      -12.594406   -0.409008   -1.719125
     31          6           0      -12.503612   -0.801028   -3.207291
     32          7           0       -7.482259   -1.298619   -0.099296
     33          6           0       -8.522569   -2.064322   -0.461723
     34          6           0       -8.122246   -3.469884   -0.565361
     35          6           0       -6.828581   -3.392662   -0.034116
     36          6           0       -6.345095   -2.068473    0.181425
     37          6           0       -8.862406   -4.683835   -1.011250
     38          6           0       -5.652719   -4.204040    0.077901
     39          8           0       -5.443676   -5.406984    0.005559
     40          6           0       -4.542830   -3.256048    0.503041
     41          6           0       -3.856948   -3.719696    1.825004
     42          8           0       -4.228136   -3.410503    2.958961
     43          8           0       -2.933515   -4.752371    1.552802
     44          6           0       -2.356216   -5.459426    2.704597
     45          6           0        2.641338   -1.127758   -1.154203
     46          6           0        3.913159   -0.684743   -0.509478
     47          6           0        4.931389    0.009988   -1.075198
     48          6           0        4.867336    0.611900   -2.407235
     49          6           0        6.217252    0.298689   -0.346302
     50          6           0        7.446223   -0.513775   -0.919125
     51          6           0        8.905524   -0.172471   -0.212615
     52          6           0       10.108335   -0.872246   -0.896921
     53          6           0       10.051885   -2.403715   -0.942152
     54          6           0       11.331692   -0.264749   -0.161625
     55          6           0       12.697029   -0.703396   -0.730269
     56          6           0       13.823827    0.005050    0.166040
     57          6           0       15.267980   -0.233592   -0.410324
     58          6           0       15.722074   -1.721334   -0.397546
     59          6           0       16.220015    0.615029    0.376701
     60          6           0       17.750689    0.654851   -0.100397
     61          6           0       18.546138    1.762373    0.555630
     62          6           0       20.144066    1.645448    0.173252
     63          6           0       20.323607    2.002420   -1.220055
     64          6           0       20.852869    2.829086    1.133176
     65          1           0       -3.870931    3.409671    1.613484
     66          1           0      -10.115231    4.219955   -0.108621
     67          1           0      -10.498987   -2.097589   -1.366069
     68          1           0       -2.785586   -1.017577    2.364946
     69          1           0       -2.259158    1.797169    1.484946
     70          1           0       -1.986706    0.594204    3.580828
     71          1           0       -2.813965    2.225064    3.473183
     72          1           0       -3.790993    0.690885    3.569601
     73          1           0       -2.295465   -1.667755   -0.215457
     74          1           0       -2.330914   -0.090609   -0.612275
     75          1           0       -0.441235    0.182774    1.170544
     76          1           0       -0.366005   -1.687478    1.139057
     77          1           0       -4.628782    6.033944    0.506932
     78          1           0       -6.124602    6.833149    1.484020
     79          1           0       -5.011959    5.899360    2.349744
     80          1           0       -8.199643    6.926667    0.981562
     81          1           0       -9.595964    5.832831   -1.489609
     82          1           0       -9.567969    7.642151   -0.791150
     83          1           0      -12.608779    3.255230   -0.313191
     84          1           0      -11.664218    3.727703   -1.874185
     85          1           0      -13.136055    2.236485   -1.856240
     86          1           0      -12.617120   -1.273883   -0.979139
     87          1           0      -13.500345    0.211240   -1.707454
     88          1           0      -12.429595    0.231763   -3.872591
     89          1           0      -11.731213   -1.650456   -3.415893
     90          1           0      -13.527321   -1.060044   -3.687798
     91          1           0       -9.964301   -4.874391   -0.648920
     92          1           0       -8.966641   -4.492348   -2.204186
     93          1           0       -8.288034   -5.652793   -0.814562
     94          1           0       -3.553084   -3.489211   -0.167206
     95          1           0       -1.719409   -6.001752    2.432295
     96          1           0       -1.941043   -4.674857    3.270209
     97          1           0       -3.245936   -6.124532    3.201179
     98          1           0        2.578571   -2.153414   -1.487519
     99          1           0        2.620027   -0.606421   -1.985478
    100          1           0        4.261877   -1.020075    0.395461
    101          1           0        4.966426    1.652533   -2.510136
    102          1           0        5.486302    0.264995   -3.072969
    103          1           0        3.918673    0.699517   -2.982827
    104          1           0        6.539537    1.419066   -0.452381
    105          1           0        6.051791   -0.059012    0.753766
    106          1           0        7.172922   -1.559066   -0.546178
    107          1           0        7.618515   -0.236001   -2.035567
    108          1           0        9.053186    1.025827   -0.394614
    109          1           0        8.883803   -0.396423    1.004793
    110          1           0       10.310765   -0.551890   -1.689622
    111          1           0        8.969753   -2.792283   -1.513969
    112          1           0       10.732282   -2.681360   -1.866735
    113          1           0       10.115724   -2.783128    0.105831
    114          1           0       11.394286    0.841742   -0.150975
    115          1           0       11.462515   -0.658523    1.025035
    116          1           0       12.835489   -1.677492   -0.672870
    117          1           0       12.721635   -0.295963   -1.826200
    118          1           0       13.650715    1.167342    0.272488
    119          1           0       13.696856   -0.436826    1.313296
    120          1           0       15.373217    0.150704   -1.379502
    121          1           0       15.093087   -2.356290   -1.067956
    122          1           0       16.807606   -1.764000   -0.757334
    123          1           0       15.396482   -2.320869    0.607815
    124          1           0       15.987864    1.814834    0.219902
    125          1           0       16.019976    0.766647    1.573530
    126          1           0       18.306695   -0.235766   -0.132826
    127          1           0       17.777755    0.845004   -1.160051
    128          1           0       18.448870    2.756437    0.302218
    129          1           0       18.193468    1.977431    1.591134
    130          1           0       20.535182    0.606980    0.511736
    131          1           0       20.045326    3.006689   -1.484570
    132          1           0       21.298576    1.899497   -1.638436
    133          1           0       19.684404    1.527619   -1.848284
    134          1           0       20.863457    2.322598    2.146872
    135          1           0       22.033134    2.812656    0.737131
    136          1           0       20.457566    3.921331    0.964094
    137          1           0       -7.323242    1.749087    0.609169
    138          1           0       -7.751302   -0.319257   -0.143140
 ---------------------------------------------------------------------

 SCF Done:  E(RB3LYP) =  -2732.91586490     A.U. after   17 cycles

 Excitation energies and oscillator strengths:

 Excited State   1:      Singlet-A      2.0385 eV  608.20 nm  f=0.1749  <S**2>=0.000
     235 -> 237       -0.23042
     235 -> 238       -0.26139
     236 -> 237        0.58740
     236 -> 238       -0.17822
 This state for optimization and/or second-order correction.
 Total Energy, E(TD-HF/TD-KS) =  -2732.84094967
 Copying the excited state density for this state as the 1-particle RhoCI density.

 The electronic state is 1-A.
 Alpha  occ. eigenvalues --  -19.17210 -19.16788 -19.12562 -19.11875 -19.11278
 Alpha  occ. eigenvalues --  -14.37247 -14.36382 -14.32037 -14.29982 -10.31734
 Alpha  occ. eigenvalues --  -10.31098 -10.26883 -10.24503 -10.24001 -10.23813
 Alpha  occ. eigenvalues --  -10.23522 -10.23041 -10.23004 -10.22864 -10.22479
 Alpha  occ. eigenvalues --  -10.22448 -10.22177 -10.21695 -10.21621 -10.21509
 Alpha  occ. eigenvalues --  -10.21355 -10.21311 -10.21169 -10.21106 -10.21104
 Alpha  occ. eigenvalues --  -10.20972 -10.20914 -10.20875 -10.20751 -10.20537
 Alpha  occ. eigenvalues --  -10.20471 -10.20446 -10.20418 -10.20371 -10.20342
 Alpha  occ. eigenvalues --  -10.20300 -10.20237 -10.20220 -10.20025 -10.20011
 Alpha  occ. eigenvalues --  -10.19853 -10.19732 -10.19692 -10.19539 -10.19499
 Alpha  occ. eigenvalues --  -10.19257 -10.19002 -10.18894 -10.18527 -10.18491
 Alpha  occ. eigenvalues --  -10.18331 -10.18036 -10.17786 -10.17697 -10.17648
 Alpha  occ. eigenvalues --  -10.17364 -10.17329 -10.16797 -10.16097  -1.07410
 Alpha  occ. eigenvalues --   -1.06118  -1.01596  -0.99709  -0.98821  -0.98720
 Alpha  occ. eigenvalues --   -0.98531  -0.94217  -0.93855  -0.85907  -0.82841
 Alpha  occ. eigenvalues --   -0.82601  -0.81859  -0.81592  -0.81497  -0.80698
 Alpha  occ. eigenvalues --   -0.80324  -0.80031  -0.79197  -0.79149  -0.78105
 Alpha  occ. eigenvalues --   -0.76656  -0.75516  -0.75351  -0.74813  -0.74570
 Alpha  occ. eigenvalues --   -0.73602  -0.73235  -0.72913  -0.71952  -0.71447
 Alpha  occ. eigenvalues --   -0.71025  -0.69915  -0.68946  -0.68154  -0.67151
 Alpha  occ. eigenvalues --   -0.67114  -0.66286  -0.65906  -0.65436  -0.64282
 Alpha  occ. eigenvalues --   -0.63811  -0.63324  -0.62726  -0.61979  -0.61505
 Alpha  occ. eigenvalues --   -0.61269  -0.59229  -0.58697  -0.57921  -0.57019
 Alpha  occ. eigenvalues --   -0.56686  -0.56415  -0.56291  -0.56171  -0.55693
 Alpha  occ. eigenvalues --   -0.55170  -0.54477  -0.54118  -0.53983  -0.53336
 Alpha  occ. eigenvalues --   -0.52655  -0.52284  -0.51424  -0.51224  -0.50218
 Alpha  occ. eigenvalues --   -0.50083  -0.49240  -0.48325  -0.48030  -0.48020
 Alpha  occ. eigenvalues --   -0.47801  -0.47769  -0.47419  -0.47216  -0.46786
 Alpha  occ. eigenvalues --   -0.46550  -0.46232  -0.46095  -0.45667  -0.45499
 Alpha  occ. eigenvalues --   -0.45247  -0.45102  -0.44844  -0.44752  -0.44628
 Alpha  occ. eigenvalues --   -0.44423  -0.44384  -0.44113  -0.43831  -0.43721
 Alpha  occ. eigenvalues --   -0.43582  -0.43443  -0.43384  -0.43035  -0.42925
 Alpha  occ. eigenvalues --   -0.42342  -0.42181  -0.41932  -0.41246  -0.41155
 Alpha  occ. eigenvalues --   -0.41112  -0.40898  -0.40655  -0.40604  -0.40431
 Alpha  occ. eigenvalues --   -0.40348  -0.40257  -0.40144  -0.39793  -0.39425
 Alpha  occ. eigenvalues --   -0.39406  -0.38825  -0.38775  -0.38538  -0.38231
 Alpha  occ. eigenvalues --   -0.38167  -0.37979  -0.37874  -0.37554  -0.37443
 Alpha  occ. eigenvalues --   -0.37270  -0.37147  -0.36945  -0.36722  -0.36640
 Alpha  occ. eigenvalues --   -0.36325  -0.35934  -0.35767  -0.35708  -0.35442
 Alpha  occ. eigenvalues --   -0.35396  -0.35092  -0.35073  -0.34808  -0.34596
 Alpha  occ. eigenvalues --   -0.34494  -0.34318  -0.34199  -0.33977  -0.33816
 Alpha  occ. eigenvalues --   -0.33652  -0.33206  -0.33002  -0.32594  -0.32490
 Alpha  occ. eigenvalues --   -0.32267  -0.32093  -0.31249  -0.31147  -0.31095
 Alpha  occ. eigenvalues --   -0.30763  -0.30671  -0.30261  -0.30003  -0.29519
 Alpha  occ. eigenvalues --   -0.29260  -0.28484  -0.28483  -0.27567  -0.27516
 Alpha  occ. eigenvalues --   -0.27325  -0.26877  -0.26578  -0.25997  -0.25769
 Alpha  occ. eigenvalues --   -0.24666  -0.24605  -0.24449  -0.22442  -0.20466
 Alpha  occ. eigenvalues --   -0.19233
 Alpha virt. eigenvalues --   -0.10896  -0.08441  -0.04575  -0.02782  -0.01009
 Alpha virt. eigenvalues --   -0.00024   0.00065   0.00457   0.02064   0.02917
 Alpha virt. eigenvalues --    0.03349   0.04180   0.04492   0.04541   0.04854

 Mulliken charges:
               1
     1  C    0.123189
     2  C    0.008698
     3  C   -0.154943
     4  C   -0.037723
     5  N   -0.147873
     6  C   -0.084290
     7  C   -0.116770
     8  C   -0.143260
     9  C    0.016181
    10  C    0.132062
    11  C    0.149674
    12  C    0.115090
    13  C    0.147851
    14  O   -0.256053
    15  O   -0.351145
    16  N   -0.053380
    17  C    0.094363
    18  C   -0.094357
    19  C    0.058667
    20  C    0.043610
    21  C    0.025985
    22  C   -0.066586
    23  C   -0.032888
    24  N   -0.263785
    25  C    0.085727
    26  C   -0.151589
    27  C   -0.060147
    28  C   -0.004848
    29  C    0.027660
    30  C    0.086046
    31  C   -0.076214
    32  N   -0.020904
    33  C    0.047228
    34  C   -0.081825
    35  C   -0.030747
    36  C    0.069996
    37  C    0.004159
    38  C    0.100421
    39  O   -0.178229
    40  C   -0.122918
    41  C    0.222838
    42  O   -0.238261
    43  O   -0.364267
    44  C    0.321370
    45  C    0.448179
    46  C   -0.065176
    47  C   -0.126146
    48  C    0.134452
    49  C    0.031294
    50  C   -0.023860
    51  C   -0.062962
    52  C    0.163209
    53  C   -0.038434
    54  C   -0.085961
    55  C    0.093587
    56  C   -0.087324
    57  C    0.049058
    58  C   -0.018997
    59  C   -0.082201
    60  C    0.122781
    61  C    0.013490
    62  C   -0.144629
    63  C    0.149194
    64  C   -0.063216
    65  H   -0.076011
    66  H    0.035663
    67  H   -0.039491
    68  H    0.034659
    69  H   -0.011472
    70  H    0.021280
    71  H   -0.008380
    72  H    0.012977
    73  H   -0.020917
    74  H   -0.005263
    75  H    0.037561
    76  H    0.026066
    77  H    0.053427
    78  H    0.005592
    79  H    0.037355
    80  H    0.000307
    81  H    0.034525
    82  H    0.045685
    83  H    0.034951
    84  H    0.048492
    85  H    0.033271
    86  H    0.033053
    87  H   -0.009358
    88  H    0.028731
    89  H    0.048343
    90  H    0.019537
    91  H    0.052940
    92  H    0.052775
    93  H    0.065350
    94  H    0.083221
    95  H   -0.080700
    96  H    0.014507
    97  H    0.056759
    98  H    0.031175
    99  H   -0.067444
   100  H   -0.065500
   101  H   -0.016244
   102  H   -0.034358
   103  H   -0.009750
   104  H    0.014636
   105  H    0.011411
   106  H    0.023464
   107  H    0.026371
   108  H    0.009981
   109  H    0.023012
   110  H   -0.143156
   111  H    0.027124
   112  H    0.034668
   113  H    0.037568
   114  H    0.004227
   115  H   -0.003188
   116  H   -0.034455
   117  H    0.001304
   118  H    0.012245
   119  H    0.021611
   120  H   -0.024968
   121  H    0.008020
   122  H    0.032231
   123  H    0.021423
   124  H   -0.007083
   125  H    0.012608
   126  H   -0.018303
   127  H   -0.024618
   128  H   -0.043976
   129  H   -0.016784
   130  H    0.019289
   131  H   -0.021336
   132  H   -0.004327
   133  H   -0.042733
   134  H    0.033753
   135  H    0.015039
   136  H    0.046531
   137  H    0.172126
   138  H    0.118817
 Sum of Mulliken charges =   0.00000

 Dipole moment (field-independent basis, Debye):
    X=              1.2339    Y=              4.2478    Z=             -0.9585  Tot=              4.5260
 Quadrupole moment (field-independent basis, Debye-Ang):
   XX=           -351.1515   YY=           -379.8732   ZZ=           -396.0999
   XY=            -22.1712   XZ=             -5.9686   YZ=             -0.9679

 Normal termination of Gaussian 09 at Fri Aug  2 17:56:00 2019.
