 Gaussian 09, Revision D.01,
 Gaussian 09:  ES64L-G09RevD.01 24-Apr-2013

 --------------------------
 # td=(NStates=1) B3LYP/SVP
 --------------------------

 --
 TD
 --
 Symbolic Z-matrix:
 Charge =  0 Multiplicity = 1

                         Standard orientation:
 ---------------------------------------------------------------------
 Center     Atomic      Atomic             Coordinates (Angstroms)
 Number     Number       Type             X           Y           Z
 ---------------------------------------------------------------------
      1          6           0       -5.149893   -1.910585    0.597266
      2          6           0       -4.766789    2.840424    1.424268
      3          6           0       -9.326435    3.168525   -0.287019
      4          6           0       -9.734692   -1.567225   -1.139483
      5          7           0       -5.175966    0.453733    0.872823
      6          6           0       -4.499120   -0.698794    0.863518
      7          6           0       -3.013905   -0.434247    1.329754
      8          6           0       -3.123447    0.939613    1.929899
      9          6           0       -4.407103    1.465712    1.375980
     10          6           0       -2.965324    1.133945    3.406728
     11          6           0       -2.027073   -0.741228    0.286365
     12          6           0       -0.553008   -0.709983    0.673846
     13          6           0        0.439504   -0.868515   -0.379399
     14          8           0        0.130353   -1.209803   -1.625112
     15          8           0        1.723918   -0.725365   -0.086909
     16          7           0       -7.042162    2.718559    0.505591
     17          6           0       -5.995722    3.392943    1.070622
     18          6           0       -6.398401    4.750918    1.069266
     19          6           0       -7.697511    4.929174    0.644163
     20          6           0       -8.093965    3.518307    0.200910
     21          6           0       -5.569212    5.898446    1.598272
     22          6           0       -8.437913    6.086864    0.438966
     23          6           0       -9.379816    6.388933   -0.514600
     24          7           0       -9.157799    0.749720   -0.743381
     25          6           0       -9.886209    1.959437   -0.647555
     26          6           0      -11.209983    1.786816   -1.224000
     27          6           0      -11.287850    0.369744   -1.386226
     28          6           0      -10.057874   -0.267949   -0.985310
     29          6           0      -12.296896    2.801492   -1.320341
     30          6           0      -12.519221   -0.277414   -2.019306
     31          6           0      -12.446493   -0.508394   -3.470622
     32          7           0       -7.490187   -1.301275   -0.242489
     33          6           0       -8.485198   -2.170490   -0.724738
     34          6           0       -8.106555   -3.594516   -0.704854
     35          6           0       -6.770180   -3.422687   -0.153212
     36          6           0       -6.459741   -2.094838    0.121009
     37          6           0       -8.908390   -4.760998   -1.112089
     38          6           0       -5.613116   -4.250206    0.122234
     39          8           0       -5.554748   -5.469701   -0.030586
     40          6           0       -4.431503   -3.297543    0.635764
     41          6           0       -3.919684   -3.790213    1.914670
     42          8           0       -4.174127   -3.219111    3.023162
     43          8           0       -2.984668   -4.670211    1.681677
     44          6           0       -2.389688   -5.304038    2.915212
     45          6           0        2.613819   -0.976576   -1.107347
     46          6           0        4.032443   -0.799793   -0.459363
     47          6           0        4.929974    0.273196   -0.807872
     48          6           0        4.759475    1.071042   -2.041104
     49          6           0        6.236411    0.327539   -0.089060
     50          6           0        7.427135   -0.147071   -0.965801
     51          6           0        8.759624   -0.181343   -0.205123
     52          6           0       10.015495   -0.639056   -0.877753
     53          6           0       10.092240   -2.149331   -1.311598
     54          6           0       11.291042   -0.322113   -0.174026
     55          6           0       12.686500   -0.623869   -0.812037
     56          6           0       13.831007   -0.059695    0.148304
     57          6           0       15.267801   -0.291483   -0.433507
     58          6           0       15.648355   -1.747975   -0.451827
     59          6           0       16.286650    0.555832    0.370582
     60          6           0       17.662017    0.593896   -0.292614
     61          6           0       18.528927    1.547348    0.555975
     62          6           0       20.056072    1.641260    0.110817
     63          6           0       20.111837    2.300849   -1.377871
     64          6           0       20.990407    2.402343    1.099476
     65          1           0       -4.010872    3.388520    1.934019
     66          1           0      -10.263778    3.899959   -0.054575
     67          1           0      -10.527423   -2.250830   -1.509385
     68          1           0       -2.817668   -1.171507    2.083165
     69          1           0       -2.291258    1.403393    1.436371
     70          1           0       -2.012149    0.674683    3.525381
     71          1           0       -2.906466    2.067376    3.818776
     72          1           0       -3.655333    0.405525    3.852131
     73          1           0       -2.204881   -1.786056   -0.130182
     74          1           0       -1.991071    0.022252   -0.792663
     75          1           0       -0.412483    0.346754    1.136561
     76          1           0       -0.385302   -1.502268    1.527222
     77          1           0       -4.697964    6.203088    0.894004
     78          1           0       -6.305863    6.715175    1.754967
     79          1           0       -4.922567    5.502868    2.469102
     80          1           0       -8.457754    6.761347    1.346865
     81          1           0       -9.692201    5.777184   -1.364046
     82          1           0       -9.953972    7.421964   -0.379399
     83          1           0      -12.405166    3.282483   -0.384463
     84          1           0      -11.800168    3.556291   -1.926278
     85          1           0      -12.959576    2.261166   -1.684367
     86          1           0      -12.666364   -1.401107   -1.441115
     87          1           0      -13.443386    0.245643   -1.682411
     88          1           0      -12.479928    0.542333   -4.043837
     89          1           0      -11.527916   -0.680060   -3.849829
     90          1           0      -13.187482   -1.198316   -3.818898
     91          1           0       -9.642844   -4.924299   -0.253401
     92          1           0       -9.289388   -4.482536   -2.132068
     93          1           0       -8.239753   -5.587248   -1.221471
     94          1           0       -3.773285   -3.350014   -0.154303
     95          1           0       -1.663566   -6.094468    2.774853
     96          1           0       -1.843457   -4.392680    3.401813
     97          1           0       -3.269455   -5.638246    3.318777
     98          1           0        2.449639   -2.089422   -1.353354
     99          1           0        2.447841   -0.433647   -1.951102
    100          1           0        4.351706   -1.408333    0.405396
    101          1           0        4.842617    2.106645   -1.705650
    102          1           0        5.814133    0.810813   -2.646930
    103          1           0        3.728056    0.877379   -2.676771
    104          1           0        6.219048    1.498950    0.089896
    105          1           0        6.096727   -0.366247    0.898881
    106          1           0        7.024902   -1.306971   -1.231320
    107          1           0        7.307807    0.232021   -2.073085
    108          1           0        9.085180    0.861405    0.145302
    109          1           0        8.603899   -0.838361    0.733580
    110          1           0       10.107495   -0.009618   -1.822709
    111          1           0        9.250133   -2.226359   -1.890840
    112          1           0       11.022770   -2.435772   -1.976197
    113          1           0        9.937079   -2.772899   -0.498542
    114          1           0       11.420208    0.811773    0.076189
    115          1           0       11.380370   -0.867010    0.874601
    116          1           0       12.957884   -1.718303   -0.721373
    117          1           0       12.586943   -0.321901   -1.953714
    118          1           0       13.519815    0.766601    0.350806
    119          1           0       13.674096   -0.811817    1.108076
    120          1           0       15.336361    0.014016   -1.590283
    121          1           0       14.846785   -2.489096   -1.146035
    122          1           0       16.717417   -1.789729   -0.785000
    123          1           0       15.517260   -2.081491    0.691583
    124          1           0       15.735969    1.432987    0.446176
    125          1           0       16.636635    0.032031    1.284327
    126          1           0       17.948899   -0.325161   -0.152200
    127          1           0       17.585918    1.004806   -1.334133
    128          1           0       18.017569    2.576286    0.600685
    129          1           0       18.343408    1.357441    1.558624
    130          1           0       20.424334    0.645313    0.015321
    131          1           0       19.633308    3.076842   -1.509529
    132          1           0       21.167659    2.342242   -1.740477
    133          1           0       19.352409    1.597809   -1.895524
    134          1           0       21.020356    1.796545    1.927242
    135          1           0       22.077024    2.386346    0.721236
    136          1           0       20.591769    3.414812    1.196112
    137          1           0       -6.943446    1.651391    0.249133
    138          1           0       -7.633228   -0.230902   -0.184598
 ---------------------------------------------------------------------

 SCF Done:  E(RB3LYP) =  -2732.98334071     A.U. after   18 cycles

 Excitation energies and oscillator strengths:

 Excited State   1:      Singlet-A      2.0727 eV  598.17 nm  f=0.1457  <S**2>=0.000
     235 -> 237       -0.12729
     235 -> 238       -0.33742
     236 -> 237        0.59965
 This state for optimization and/or second-order correction.
 Total Energy, E(TD-HF/TD-KS) =  -2732.90716959
 Copying the excited state density for this state as the 1-particle RhoCI density.

 The electronic state is 1-A.
 Alpha  occ. eigenvalues --  -19.18991 -19.18821 -19.11649 -19.11416 -19.11383
 Alpha  occ. eigenvalues --  -14.37626 -14.36578 -14.32169 -14.29296 -10.32230
 Alpha  occ. eigenvalues --  -10.31544 -10.27210 -10.25762 -10.24579 -10.24106
 Alpha  occ. eigenvalues --  -10.23791 -10.23699 -10.22885 -10.22823 -10.22793
 Alpha  occ. eigenvalues --  -10.22482 -10.22186 -10.21832 -10.21555 -10.21486
 Alpha  occ. eigenvalues --  -10.21426 -10.20983 -10.20957 -10.20923 -10.20755
 Alpha  occ. eigenvalues --  -10.20727 -10.20476 -10.20431 -10.20356 -10.20344
 Alpha  occ. eigenvalues --  -10.20337 -10.20296 -10.20296 -10.20202 -10.20113
 Alpha  occ. eigenvalues --  -10.20094 -10.20079 -10.19928 -10.19772 -10.19619
 Alpha  occ. eigenvalues --  -10.19472 -10.19441 -10.19287 -10.19201 -10.19148
 Alpha  occ. eigenvalues --  -10.19120 -10.18666 -10.18475 -10.18386 -10.18136
 Alpha  occ. eigenvalues --  -10.18060 -10.17955 -10.17644 -10.17587 -10.17395
 Alpha  occ. eigenvalues --  -10.17324 -10.17275 -10.17194 -10.16544  -1.11237
 Alpha  occ. eigenvalues --   -1.09571  -1.01294  -0.98427  -0.97688  -0.97356
 Alpha  occ. eigenvalues --   -0.95575  -0.94555  -0.91683  -0.84378  -0.82729
 Alpha  occ. eigenvalues --   -0.82550  -0.82229  -0.82145  -0.81129  -0.81052
 Alpha  occ. eigenvalues --   -0.79977  -0.79727  -0.79355  -0.78881  -0.78548
 Alpha  occ. eigenvalues --   -0.76984  -0.76416  -0.76142  -0.75244  -0.75074
 Alpha  occ. eigenvalues --   -0.74059  -0.73727  -0.72736  -0.71936  -0.71040
 Alpha  occ. eigenvalues --   -0.69873  -0.69842  -0.68794  -0.68410  -0.68152
 Alpha  occ. eigenvalues --   -0.68006  -0.66884  -0.66188  -0.66028  -0.65558
 Alpha  occ. eigenvalues --   -0.64656  -0.63623  -0.62276  -0.61941  -0.61318
 Alpha  occ. eigenvalues --   -0.60875  -0.59551  -0.58352  -0.57989  -0.57521
 Alpha  occ. eigenvalues --   -0.56830  -0.56490  -0.56401  -0.55829  -0.54822
 Alpha  occ. eigenvalues --   -0.54786  -0.54120  -0.53699  -0.53629  -0.52941
 Alpha  occ. eigenvalues --   -0.52286  -0.51878  -0.51456  -0.51283  -0.50677
 Alpha  occ. eigenvalues --   -0.50313  -0.50179  -0.49695  -0.49275  -0.49137
 Alpha  occ. eigenvalues --   -0.48497  -0.48284  -0.47884  -0.47672  -0.47556
 Alpha  occ. eigenvalues --   -0.47106  -0.46765  -0.46457  -0.46026  -0.45842
 Alpha  occ. eigenvalues --   -0.45456  -0.45296  -0.45155  -0.44954  -0.44773
 Alpha  occ. eigenvalues --   -0.44740  -0.44548  -0.44255  -0.44052  -0.43629
 Alpha  occ. eigenvalues --   -0.43136  -0.42974  -0.42870  -0.42687  -0.42570
 Alpha  occ. eigenvalues --   -0.42269  -0.42218  -0.42111  -0.41768  -0.41722
 Alpha  occ. eigenvalues --   -0.41473  -0.41312  -0.41282  -0.41054  -0.40959
 Alpha  occ. eigenvalues --   -0.40585  -0.40516  -0.40253  -0.39900  -0.39730
 Alpha  occ. eigenvalues --   -0.39632  -0.39198  -0.38928  -0.38712  -0.38443
 Alpha  occ. eigenvalues --   -0.38262  -0.38253  -0.38058  -0.38013  -0.37710
 Alpha  occ. eigenvalues --   -0.37350  -0.37044  -0.36846  -0.36821  -0.36738
 Alpha  occ. eigenvalues --   -0.36692  -0.36464  -0.36404  -0.36103  -0.35769
 Alpha  occ. eigenvalues --   -0.35508  -0.35301  -0.35140  -0.34991  -0.34782
 Alpha  occ. eigenvalues --   -0.34475  -0.34324  -0.34249  -0.33966  -0.33749
 Alpha  occ. eigenvalues --   -0.33316  -0.33250  -0.32737  -0.32684  -0.32299
 Alpha  occ. eigenvalues --   -0.32156  -0.32020  -0.31538  -0.31060  -0.30575
 Alpha  occ. eigenvalues --   -0.30496  -0.30200  -0.30181  -0.30061  -0.29888
 Alpha  occ. eigenvalues --   -0.29400  -0.29333  -0.28285  -0.27865  -0.27192
 Alpha  occ. eigenvalues --   -0.27017  -0.26781  -0.26404  -0.25770  -0.25494
 Alpha  occ. eigenvalues --   -0.24275  -0.23922  -0.23328  -0.21353  -0.19440
 Alpha  occ. eigenvalues --   -0.19074
 Alpha virt. eigenvalues --   -0.10229  -0.07765  -0.04164  -0.02497  -0.02308
 Alpha virt. eigenvalues --   -0.01361  -0.00808   0.00609   0.02301   0.03068
 Alpha virt. eigenvalues --    0.03521   0.03789   0.04400   0.04533   0.04587

 Mulliken charges:
               1
     1  C   -0.019975
     2  C   -0.042987
     3  C   -0.135556
     4  C   -0.112453
     5  N   -0.183538
     6  C   -0.092119
     7  C    0.036107
     8  C   -0.000463
     9  C   -0.052916
    10  C    0.176243
    11  C   -0.057618
    12  C    0.012669
    13  C    0.204560
    14  O   -0.346146
    15  O   -0.245835
    16  N   -0.084692
    17  C    0.151056
    18  C   -0.132144
    19  C    0.062935
    20  C    0.111515
    21  C    0.075287
    22  C   -0.097708
    23  C   -0.074871
    24  N   -0.328400
    25  C    0.047309
    26  C   -0.198050
    27  C   -0.111459
    28  C    0.154939
    29  C    0.293355
    30  C   -0.033688
    31  C    0.102167
    32  N   -0.074216
    33  C    0.049008
    34  C   -0.142380
    35  C   -0.012714
    36  C    0.145331
    37  C    0.124749
    38  C   -0.010669
    39  O   -0.194434
    40  C    0.016943
    41  C    0.239652
    42  O   -0.300255
    43  O   -0.298578
    44  C    0.206797
    45  C    0.311167
    46  C   -0.088472
    47  C   -0.176358
    48  C    0.008009
    49  C    0.033271
    50  C   -0.071738
    51  C    0.059634
    52  C   -0.042738
    53  C    0.084841
    54  C   -0.046112
    55  C   -0.048803
    56  C    0.122440
    57  C   -0.085738
    58  C   -0.067513
    59  C    0.044204
    60  C    0.102747
    61  C    0.014684
    62  C   -0.083637
    63  C    0.094505
    64  C    0.072411
    65  H   -0.049392
    66  H    0.029917
    67  H   -0.014026
    68  H   -0.021993
    69  H   -0.031845
    70  H   -0.020083
    71  H   -0.001926
    72  H    0.025173
    73  H    0.032759
    74  H    0.038531
    75  H    0.043029
    76  H    0.050912
    77  H    0.031426
    78  H    0.026557
    79  H    0.026095
    80  H    0.033519
    81  H    0.036422
    82  H    0.041869
    83  H    0.014335
    84  H    0.009999
    85  H   -0.068854
    86  H    0.003618
    87  H    0.016934
    88  H   -0.006367
    89  H   -0.024765
    90  H    0.017492
    91  H    0.060834
    92  H    0.042006
    93  H    0.028625
    94  H    0.036061
    95  H    0.045610
    96  H    0.056412
    97  H    0.032649
    98  H    0.016708
    99  H   -0.025701
   100  H   -0.007576
   101  H    0.017923
   102  H    0.046256
   103  H    0.059856
   104  H    0.018773
   105  H    0.036055
   106  H    0.014574
   107  H    0.026311
   108  H    0.009675
   109  H    0.006433
   110  H   -0.016505
   111  H   -0.028470
   112  H    0.034987
   113  H   -0.014309
   114  H   -0.002612
   115  H   -0.008224
   116  H    0.009948
   117  H    0.015644
   118  H   -0.105331
   119  H    0.011504
   120  H    0.007686
   121  H    0.045090
   122  H    0.030921
   123  H    0.017308
   124  H   -0.018769
   125  H   -0.007199
   126  H   -0.050305
   127  H    0.015934
   128  H   -0.019828
   129  H   -0.046824
   130  H   -0.017226
   131  H   -0.070292
   132  H    0.021669
   133  H   -0.005805
   134  H   -0.012945
   135  H    0.007968
   136  H    0.016947
   137  H    0.190433
   138  H    0.174218
 Sum of Mulliken charges =   0.00000

 Dipole moment (field-independent basis, Debye):
    X=              2.6850    Y=              3.2416    Z=              1.9086  Tot=              4.6217
 Quadrupole moment (field-independent basis, Debye-Ang):
   XX=           -362.7265   YY=           -381.1082   ZZ=           -397.9442
   XY=            -20.0616   XZ=             11.1132   YZ=             -2.5808

 Normal termination of Gaussian 09 at Wed Jul 31 08:18:57 2019.
