 Gaussian 09, Revision D.01,
 Gaussian 09:  ES64L-G09RevD.01 24-Apr-2013

 --------------------------
 # td=(NStates=1) B3LYP/SVP
 --------------------------

 --
 TD
 --
 Symbolic Z-matrix:
 Charge =  0 Multiplicity = 1

                         Standard orientation:
 ---------------------------------------------------------------------
 Center     Atomic      Atomic             Coordinates (Angstroms)
 Number     Number       Type             X           Y           Z
 ---------------------------------------------------------------------
      1          6           0       -5.033753   -1.835163    0.514160
      2          6           0       -4.788567    2.859493    1.283064
      3          6           0       -9.499518    3.188502   -0.231844
      4          6           0       -9.789418   -1.622074   -0.779372
      5          7           0       -5.127448    0.577788    0.618736
      6          6           0       -4.457119   -0.584255    0.739126
      7          6           0       -3.005721   -0.434952    1.257774
      8          6           0       -3.044290    1.138422    1.576775
      9          6           0       -4.414754    1.593315    1.135110
     10          6           0       -2.855510    1.264554    3.165877
     11          6           0       -2.036254   -0.750694    0.106593
     12          6           0       -0.584724   -0.766209    0.452808
     13          6           0        0.345271   -1.106923   -0.591244
     14          8           0       -0.055915   -1.529896   -1.700063
     15          8           0        1.560853   -0.802110   -0.309596
     16          7           0       -7.068059    2.726950    0.297275
     17          6           0       -6.044136    3.394412    1.023101
     18          6           0       -6.400490    4.794150    1.005294
     19          6           0       -7.764221    4.909288    0.391213
     20          6           0       -8.166896    3.562081    0.119179
     21          6           0       -5.427204    5.864372    1.391222
     22          6           0       -8.337256    6.297548    0.370023
     23          6           0       -9.306079    6.750037   -0.515149
     24          7           0       -9.250156    0.756082   -0.458124
     25          6           0       -9.957863    1.951608   -0.457456
     26          6           0      -11.385343    1.741732   -0.874087
     27          6           0      -11.519931    0.356217   -0.992902
     28          6           0      -10.169886   -0.222827   -0.684794
     29          6           0      -12.387556    2.774209   -1.090626
     30          6           0      -12.749899   -0.527202   -1.434102
     31          6           0      -12.734751   -0.848423   -2.995203
     32          7           0       -7.462106   -1.308535   -0.223226
     33          6           0       -8.540940   -2.167854   -0.444776
     34          6           0       -8.087809   -3.518359   -0.483011
     35          6           0       -6.691698   -3.374036   -0.204517
     36          6           0       -6.390089   -1.927738   -0.025348
     37          6           0       -8.794186   -4.762341   -0.703454
     38          6           0       -5.635608   -4.240047    0.117637
     39          8           0       -5.451605   -5.434224    0.242068
     40          6           0       -4.358222   -3.237358    0.493043
     41          6           0       -3.844005   -3.648856    1.794357
     42          8           0       -4.063778   -3.165096    2.854323
     43          8           0       -2.765297   -4.574375    1.607537
     44          6           0       -2.177238   -5.198718    2.769754
     45          6           0        2.609415   -1.051316   -1.255140
     46          6           0        4.010186   -0.742900   -0.760562
     47          6           0        4.939821   -0.003970   -1.272934
     48          6           0        4.867055    0.627720   -2.687147
     49          6           0        6.227227    0.250336   -0.627463
     50          6           0        7.470281   -0.413897   -1.290621
     51          6           0        8.800839   -0.115874   -0.428593
     52          6           0       10.136974   -0.779052   -1.002221
     53          6           0        9.999341   -2.394488   -0.952567
     54          6           0       11.310882   -0.281859   -0.110990
     55          6           0       12.705952   -0.692734   -0.622754
     56          6           0       13.786885    0.011619    0.260724
     57          6           0       15.262001   -0.337316   -0.255722
     58          6           0       15.712053   -1.808889    0.022097
     59          6           0       16.294121    0.639664    0.448021
     60          6           0       17.694696    0.703093   -0.102921
     61          6           0       18.642039    1.657166    0.645994
     62          6           0       20.147460    1.793277    0.305299
     63          6           0       20.230632    2.293105   -1.106017
     64          6           0       20.824052    2.606618    1.271202
     65          1           0       -4.010498    3.587753    1.582532
     66          1           0      -10.264149    3.854519   -0.233303
     67          1           0      -10.693033   -2.167372   -1.216880
     68          1           0       -2.952176   -1.230854    1.941611
     69          1           0       -2.246767    1.826242    0.900830
     70          1           0       -1.993394    0.614226    3.385049
     71          1           0       -2.884047    2.236497    3.476549
     72          1           0       -3.604127    0.737930    3.651972
     73          1           0       -2.332413   -1.776357   -0.236475
     74          1           0       -2.417608   -0.200804   -0.850130
     75          1           0       -0.323600   -0.022621    0.959014
     76          1           0       -0.489400   -1.533889    1.238312
     77          1           0       -4.817956    6.162099    0.329557
     78          1           0       -5.925421    6.767655    1.974202
     79          1           0       -4.707254    5.415993    2.172143
     80          1           0       -8.102326    6.963783    1.116245
     81          1           0       -9.758577    5.955459   -1.318113
     82          1           0      -10.013265    7.639401   -0.654001
     83          1           0      -12.588375    3.508571   -0.201782
     84          1           0      -12.014702    3.459760   -2.020715
     85          1           0      -13.531739    2.333105   -1.417730
     86          1           0      -12.488638   -1.275884   -0.802381
     87          1           0      -13.639393   -0.083597   -1.202325
     88          1           0      -13.202345    0.129623   -3.637116
     89          1           0      -11.683975   -1.151207   -3.514748
     90          1           0      -13.656919   -1.496575   -3.091798
     91          1           0       -9.680207   -4.973785    0.101643
     92          1           0       -9.305927   -4.544809   -1.660623
     93          1           0       -8.036169   -5.401027   -0.769059
     94          1           0       -3.610332   -3.293893   -0.203961
     95          1           0       -1.334431   -5.716911    2.355508
     96          1           0       -1.843855   -4.427408    3.518565
     97          1           0       -2.983863   -5.739203    3.328254
     98          1           0        2.809027   -2.145495   -1.299098
     99          1           0        2.344323   -0.589644   -2.150918
    100          1           0        4.238112   -1.028478    0.283516
    101          1           0        5.326087    1.673029   -2.867394
    102          1           0        5.703944    0.004127   -3.377857
    103          1           0        3.792373    0.340166   -3.167352
    104          1           0        6.429038    1.466000   -0.487201
    105          1           0        6.167993   -0.123286    0.504417
    106          1           0        7.377766   -1.440164   -1.282555
    107          1           0        7.547678   -0.108663   -2.304329
    108          1           0        8.992278    1.061754   -0.494965
    109          1           0        8.572644   -0.421997    0.661924
    110          1           0       10.407945   -0.360661   -1.973941
    111          1           0        9.038597   -2.748997   -1.420018
    112          1           0       10.741843   -2.673647   -1.789920
    113          1           0       10.117443   -2.742857   -0.016865
    114          1           0       11.337294    0.875083    0.368651
    115          1           0       11.078777   -0.829035    0.985292
    116          1           0       12.852003   -1.844496   -0.358053
    117          1           0       12.863560   -0.429686   -1.629736
    118          1           0       13.692808    1.132639    0.117898
    119          1           0       13.882072   -0.370133    1.388514
    120          1           0       15.176401   -0.252040   -1.370784
    121          1           0       15.028580   -2.487362   -0.372936
    122          1           0       16.641859   -2.230427   -0.362714
    123          1           0       15.730161   -1.998482    1.285938
    124          1           0       16.063824    1.736148    0.352097
    125          1           0       16.284646    0.398206    1.593634
    126          1           0       18.241915   -0.257984   -0.310346
    127          1           0       17.648863    0.936447   -1.125606
    128          1           0       17.847081    2.643859    0.470880
    129          1           0       18.433937    1.479932    1.637859
    130          1           0       20.556802    0.646482    0.181754
    131          1           0       19.419989    3.273508   -1.451003
    132          1           0       21.457760    2.688729   -1.405940
    133          1           0       19.885997    1.495939   -1.918260
    134          1           0       20.774036    2.318562    2.284767
    135          1           0       21.936350    2.951533    1.007763
    136          1           0       20.339107    3.587868    1.207724
    137          1           0       -7.023398    1.669552    0.221382
    138          1           0       -7.877788   -0.430117    0.130704
 ---------------------------------------------------------------------

 SCF Done:  E(RB3LYP) =  -2732.97710529     A.U. after   18 cycles

 Excitation energies and oscillator strengths:

 Excited State   1:      Singlet-A      1.9755 eV  627.61 nm  f=0.2079  <S**2>=0.000
     235 -> 237       -0.15128
     235 -> 238       -0.22808
     236 -> 237        0.64127
 This state for optimization and/or second-order correction.
 Total Energy, E(TD-HF/TD-KS) =  -2732.90450743
 Copying the excited state density for this state as the 1-particle RhoCI density.

 The electronic state is 1-A.
 Alpha  occ. eigenvalues --  -19.18770 -19.15330 -19.12729 -19.12453 -19.10410
 Alpha  occ. eigenvalues --  -14.37722 -14.36765 -14.31912 -14.30691 -10.30842
 Alpha  occ. eigenvalues --  -10.30699 -10.27937 -10.25443 -10.24655 -10.24387
 Alpha  occ. eigenvalues --  -10.23891 -10.23670 -10.23411 -10.22774 -10.22426
 Alpha  occ. eigenvalues --  -10.22369 -10.22318 -10.22138 -10.21984 -10.21933
 Alpha  occ. eigenvalues --  -10.21857 -10.21848 -10.21638 -10.21632 -10.21340
 Alpha  occ. eigenvalues --  -10.21324 -10.21277 -10.21239 -10.20810 -10.20792
 Alpha  occ. eigenvalues --  -10.20673 -10.20619 -10.20615 -10.20303 -10.20268
 Alpha  occ. eigenvalues --  -10.20143 -10.20117 -10.20109 -10.19851 -10.19814
 Alpha  occ. eigenvalues --  -10.19552 -10.19503 -10.19451 -10.19355 -10.19306
 Alpha  occ. eigenvalues --  -10.19284 -10.19262 -10.19206 -10.19119 -10.18862
 Alpha  occ. eigenvalues --  -10.18844 -10.18818 -10.18814 -10.18734 -10.18335
 Alpha  occ. eigenvalues --  -10.18007 -10.17973 -10.17767 -10.17376  -1.11300
 Alpha  occ. eigenvalues --   -1.07509  -1.02804  -1.01388  -0.99416  -0.98185
 Alpha  occ. eigenvalues --   -0.96090  -0.94347  -0.92846  -0.84093  -0.83271
 Alpha  occ. eigenvalues --   -0.82491  -0.81898  -0.81603  -0.80867  -0.80479
 Alpha  occ. eigenvalues --   -0.80000  -0.79725  -0.79074  -0.78957  -0.77977
 Alpha  occ. eigenvalues --   -0.76853  -0.76213  -0.75865  -0.75133  -0.74278
 Alpha  occ. eigenvalues --   -0.73500  -0.73274  -0.72730  -0.71625  -0.71010
 Alpha  occ. eigenvalues --   -0.70001  -0.68552  -0.68374  -0.67203  -0.67090
 Alpha  occ. eigenvalues --   -0.66956  -0.66687  -0.66501  -0.65845  -0.64900
 Alpha  occ. eigenvalues --   -0.64466  -0.63694  -0.62754  -0.61743  -0.61513
 Alpha  occ. eigenvalues --   -0.60762  -0.59070  -0.58507  -0.57915  -0.57609
 Alpha  occ. eigenvalues --   -0.56976  -0.56655  -0.55390  -0.55140  -0.54778
 Alpha  occ. eigenvalues --   -0.54542  -0.54168  -0.53917  -0.53638  -0.53146
 Alpha  occ. eigenvalues --   -0.52609  -0.52363  -0.52152  -0.51520  -0.51148
 Alpha  occ. eigenvalues --   -0.50360  -0.49033  -0.48585  -0.48194  -0.48100
 Alpha  occ. eigenvalues --   -0.47764  -0.47299  -0.46990  -0.46913  -0.46758
 Alpha  occ. eigenvalues --   -0.46604  -0.46435  -0.46216  -0.46048  -0.45768
 Alpha  occ. eigenvalues --   -0.45565  -0.45273  -0.45045  -0.44945  -0.44883
 Alpha  occ. eigenvalues --   -0.44662  -0.44455  -0.44136  -0.43705  -0.43460
 Alpha  occ. eigenvalues --   -0.43265  -0.43230  -0.42737  -0.42577  -0.42401
 Alpha  occ. eigenvalues --   -0.42280  -0.41963  -0.41786  -0.41570  -0.41296
 Alpha  occ. eigenvalues --   -0.41211  -0.41058  -0.40594  -0.40550  -0.40092
 Alpha  occ. eigenvalues --   -0.39993  -0.39823  -0.39741  -0.39629  -0.39284
 Alpha  occ. eigenvalues --   -0.39199  -0.39043  -0.38863  -0.38657  -0.38510
 Alpha  occ. eigenvalues --   -0.38372  -0.38120  -0.37808  -0.37598  -0.37518
 Alpha  occ. eigenvalues --   -0.37266  -0.37077  -0.37022  -0.36850  -0.36517
 Alpha  occ. eigenvalues --   -0.36386  -0.35970  -0.35634  -0.35590  -0.35509
 Alpha  occ. eigenvalues --   -0.35174  -0.35088  -0.35061  -0.34937  -0.34865
 Alpha  occ. eigenvalues --   -0.34753  -0.34522  -0.34351  -0.33994  -0.33810
 Alpha  occ. eigenvalues --   -0.33161  -0.33126  -0.32353  -0.32175  -0.31985
 Alpha  occ. eigenvalues --   -0.31938  -0.31666  -0.31585  -0.31287  -0.30958
 Alpha  occ. eigenvalues --   -0.30760  -0.30172  -0.30156  -0.29876  -0.29439
 Alpha  occ. eigenvalues --   -0.29078  -0.28704  -0.28630  -0.28006  -0.27841
 Alpha  occ. eigenvalues --   -0.27442  -0.26921  -0.26642  -0.26539  -0.26190
 Alpha  occ. eigenvalues --   -0.25286  -0.24633  -0.23039  -0.22907  -0.20216
 Alpha  occ. eigenvalues --   -0.19019
 Alpha virt. eigenvalues --   -0.11153  -0.07613  -0.04466  -0.02287  -0.00521
 Alpha virt. eigenvalues --    0.00048   0.00326   0.00813   0.02214   0.02998
 Alpha virt. eigenvalues --    0.03621   0.03996   0.04035   0.04179   0.04330

 Mulliken charges:
               1
     1  C   -0.066043
     2  C   -0.091820
     3  C   -0.050909
     4  C   -0.071661
     5  N   -0.160593
     6  C   -0.072579
     7  C    0.017998
     8  C   -0.092766
     9  C    0.037386
    10  C    0.146635
    11  C   -0.030395
    12  C    0.249127
    13  C    0.150195
    14  O   -0.290775
    15  O   -0.260282
    16  N   -0.134036
    17  C    0.138741
    18  C   -0.162595
    19  C    0.031139
    20  C    0.158863
    21  C   -0.008720
    22  C    0.007953
    23  C   -0.112755
    24  N   -0.264864
    25  C    0.087596
    26  C   -0.089813
    27  C   -0.118549
    28  C   -0.021616
    29  C   -0.048014
    30  C    0.164715
    31  C   -0.083807
    32  N    0.068195
    33  C    0.045709
    34  C   -0.093403
    35  C   -0.081820
    36  C    0.082791
    37  C    0.143875
    38  C    0.054058
    39  O   -0.169365
    40  C   -0.012378
    41  C    0.215091
    42  O   -0.192132
    43  O   -0.378030
    44  C    0.195181
    45  C    0.337718
    46  C   -0.128482
    47  C   -0.075688
    48  C   -0.041184
    49  C   -0.022690
    50  C    0.097331
    51  C   -0.046607
    52  C   -0.041090
    53  C    0.046508
    54  C   -0.096802
    55  C    0.065871
    56  C   -0.035546
    57  C   -0.073007
    58  C    0.013921
    59  C    0.011597
    60  C    0.064997
    61  C   -0.025156
    62  C   -0.015484
    63  C   -0.125643
    64  C    0.068990
    65  H   -0.015767
    66  H   -0.083994
    67  H    0.008175
    68  H   -0.010003
    69  H    0.038401
    70  H    0.008241
    71  H   -0.008542
    72  H   -0.005254
    73  H   -0.000785
    74  H    0.018731
    75  H   -0.077828
    76  H    0.006783
    77  H    0.072155
    78  H    0.044415
    79  H    0.039411
    80  H   -0.014686
    81  H    0.032528
    82  H    0.049946
    83  H    0.053360
    84  H    0.047891
    85  H    0.041671
    86  H   -0.011903
    87  H   -0.027040
    88  H    0.024983
    89  H    0.065944
    90  H    0.028263
    91  H    0.062233
    92  H    0.031214
    93  H    0.004190
    94  H    0.040700
    95  H    0.035560
    96  H    0.015211
    97  H    0.033219
    98  H    0.032780
    99  H    0.001531
   100  H   -0.011772
   101  H    0.043111
   102  H    0.035779
   103  H    0.040343
   104  H    0.025706
   105  H    0.002893
   106  H   -0.025860
   107  H   -0.012240
   108  H    0.010531
   109  H    0.013952
   110  H   -0.007044
   111  H    0.019009
   112  H    0.023974
   113  H    0.000671
   114  H    0.023889
   115  H   -0.002883
   116  H    0.033093
   117  H   -0.008882
   118  H    0.013389
   119  H    0.022486
   120  H   -0.009973
   121  H   -0.016552
   122  H    0.016485
   123  H    0.011032
   124  H   -0.006122
   125  H    0.008910
   126  H   -0.030990
   127  H   -0.035481
   128  H   -0.004907
   129  H   -0.032446
   130  H    0.021830
   131  H    0.027594
   132  H    0.029395
   133  H    0.038757
   134  H    0.002135
   135  H    0.015184
   136  H   -0.002451
   137  H    0.167176
   138  H    0.163465
 Sum of Mulliken charges =   0.00000

 Dipole moment (field-independent basis, Debye):
    X=              0.6438    Y=              3.2377    Z=              0.5300  Tot=              3.3434
 Quadrupole moment (field-independent basis, Debye-Ang):
   XX=           -330.1679   YY=           -392.8420   ZZ=           -396.6535
   XY=            -25.0971   XZ=              3.0244   YZ=              2.4680

 Normal termination of Gaussian 09 at Wed Jul 24 18:38:44 2019.
