 Gaussian 09, Revision D.01,
 Gaussian 09:  ES64L-G09RevD.01 24-Apr-2013

 --------------------------
 # td=(NStates=1) B3LYP/SVP
 --------------------------

 --
 TD
 --
 Symbolic Z-matrix:
 Charge =  0 Multiplicity = 1

                         Standard orientation:
 ---------------------------------------------------------------------
 Center     Atomic      Atomic             Coordinates (Angstroms)
 Number     Number       Type             X           Y           Z
 ---------------------------------------------------------------------
      1          6           0       -5.069823   -2.029712    0.448508
      2          6           0       -4.874495    2.695613    1.280596
      3          6           0       -9.487772    3.369058   -0.226008
      4          6           0       -9.845121   -1.478989   -0.910646
      5          7           0       -5.259683    0.408828    0.764305
      6          6           0       -4.577194   -0.737653    0.843858
      7          6           0       -3.039524   -0.533719    1.155380
      8          6           0       -3.140359    1.005787    1.746311
      9          6           0       -4.519549    1.474777    1.177439
     10          6           0       -2.951995    0.983537    3.268241
     11          6           0       -2.080160   -0.827865    0.037378
     12          6           0       -0.597193   -0.917536    0.557725
     13          6           0        0.419239   -1.110220   -0.602646
     14          8           0        0.146009   -1.733793   -1.603093
     15          8           0        1.714122   -0.615346   -0.270075
     16          7           0       -7.155168    2.780140    0.407407
     17          6           0       -6.056685    3.365421    0.975752
     18          6           0       -6.353543    4.824693    0.861448
     19          6           0       -7.688614    4.945703    0.508391
     20          6           0       -8.292537    3.728599    0.191154
     21          6           0       -5.353181    5.902073    1.306186
     22          6           0       -8.255391    6.293214    0.271195
     23          6           0       -9.338792    6.658790   -0.532308
     24          7           0       -9.292194    0.827922   -0.386337
     25          6           0      -10.038537    2.035694   -0.452636
     26          6           0      -11.339732    1.805496   -0.864666
     27          6           0      -11.447926    0.466310   -1.039459
     28          6           0      -10.114185   -0.042649   -0.789016
     29          6           0      -12.287098    2.934915   -1.048511
     30          6           0      -12.705306   -0.195985   -1.597426
     31          6           0      -12.541161   -0.544290   -3.147034
     32          7           0       -7.525241   -1.342424   -0.187877
     33          6           0       -8.596423   -2.001078   -0.485887
     34          6           0       -8.262459   -3.405355   -0.529627
     35          6           0       -6.955978   -3.464050   -0.068616
     36          6           0       -6.411841   -2.121126    0.029248
     37          6           0       -9.028108   -4.613452   -0.903852
     38          6           0       -5.765437   -4.332372    0.087490
     39          8           0       -5.709823   -5.504462    0.115324
     40          6           0       -4.458785   -3.350538    0.453774
     41          6           0       -3.838736   -3.807408    1.702709
     42          8           0       -4.100707   -3.311596    2.785698
     43          8           0       -2.844420   -4.718544    1.544041
     44          6           0       -2.194245   -5.279871    2.642384
     45          6           0        2.646367   -1.108381   -1.175834
     46          6           0        4.069800   -0.724014   -0.670975
     47          6           0        5.168240   -0.003650   -1.240356
     48          6           0        5.010401    0.504121   -2.588556
     49          6           0        6.326576    0.224391   -0.353043
     50          6           0        7.548617   -0.431786   -0.973920
     51          6           0        8.860792   -0.154418   -0.240294
     52          6           0       10.106609   -0.770347   -0.785681
     53          6           0       10.121161   -2.196208   -1.132246
     54          6           0       11.289188   -0.466544    0.140283
     55          6           0       12.753199   -0.669676   -0.426635
     56          6           0       13.921783   -0.002328    0.359548
     57          6           0       15.263907   -0.069766   -0.371941
     58          6           0       15.577402   -1.647085   -0.669749
     59          6           0       16.400786    0.624619    0.487912
     60          6           0       17.778146    0.898890   -0.069865
     61          6           0       18.682670    1.762860    0.681044
     62          6           0       20.080631    1.770018    0.306462
     63          6           0       20.253130    1.969568   -1.205496
     64          6           0       20.967123    2.793446    1.096371
     65          1           0       -4.071830    3.456789    1.827260
     66          1           0      -10.097407    4.182499   -0.356331
     67          1           0      -10.748286   -2.247654   -1.135001
     68          1           0       -2.753964   -1.043064    2.029706
     69          1           0       -2.211443    1.437203    1.398246
     70          1           0       -1.962462    0.819847    3.587009
     71          1           0       -3.255223    2.014235    3.815195
     72          1           0       -3.700709    0.440040    3.856478
     73          1           0       -2.412008   -1.773031   -0.393508
     74          1           0       -2.186851   -0.066885   -0.730488
     75          1           0       -0.238100    0.181706    0.844172
     76          1           0       -0.490544   -1.810073    1.211736
     77          1           0       -4.408969    5.702712    0.868727
     78          1           0       -5.464340    7.091271    0.967131
     79          1           0       -5.103819    5.920221    2.329860
     80          1           0       -7.845391    7.095324    0.952316
     81          1           0       -9.793903    6.130408   -1.396261
     82          1           0       -9.791729    7.762369   -0.518177
     83          1           0      -12.632454    3.725619   -0.394021
     84          1           0      -11.881282    3.556861   -1.783917
     85          1           0      -13.279666    2.669322   -1.441178
     86          1           0      -12.945961   -1.136277   -0.989083
     87          1           0      -13.484301    0.371632   -1.383398
     88          1           0      -12.370487    0.331886   -3.676502
     89          1           0      -11.707304   -1.214829   -3.176675
     90          1           0      -13.556506   -1.082610   -3.497425
     91          1           0      -10.078609   -4.724497   -0.458990
     92          1           0       -9.157270   -4.719232   -2.019132
     93          1           0       -8.412992   -5.508598   -0.539309
     94          1           0       -3.757165   -3.766825   -0.373365
     95          1           0       -1.549481   -6.103739    2.591358
     96          1           0       -1.533560   -4.644812    3.256877
     97          1           0       -2.972417   -5.774363    3.366887
     98          1           0        2.338883   -2.143969   -1.236237
     99          1           0        2.350536   -0.649154   -2.059812
    100          1           0        4.187707   -1.062314    0.426754
    101          1           0        5.687394    1.401666   -2.783866
    102          1           0        5.052706   -0.469361   -3.491849
    103          1           0        3.872678    0.511196   -2.796879
    104          1           0        6.401191    1.315744   -0.400433
    105          1           0        6.101833   -0.061444    0.816844
    106          1           0        7.307931   -1.428236   -1.102164
    107          1           0        7.642403   -0.005408   -2.115138
    108          1           0        8.878003    1.085221   -0.003475
    109          1           0        8.847055   -0.533153    0.788922
    110          1           0       10.300348   -0.145790   -1.744177
    111          1           0        9.508990   -2.524247   -1.939219
    112          1           0       11.119493   -2.779459   -1.240503
    113          1           0        9.627369   -2.635587   -0.301401
    114          1           0       11.280066    0.583378    0.442058
    115          1           0       11.149743   -1.118265    1.146585
    116          1           0       13.148598   -1.589806   -0.568278
    117          1           0       12.995717   -0.223925   -1.474287
    118          1           0       13.551418    1.114858    0.439812
    119          1           0       13.822057   -0.416849    1.382406
    120          1           0       15.084223    0.408085   -1.394785
    121          1           0       14.762936   -2.151022   -1.193730
    122          1           0       16.592692   -1.813834   -1.258512
    123          1           0       15.733072   -1.974143    0.228053
    124          1           0       15.877544    1.461328    0.757426
    125          1           0       16.387562   -0.066554    1.158508
    126          1           0       18.233032   -0.069823   -0.176324
    127          1           0       17.610285    1.206862   -1.293683
    128          1           0       18.329294    2.840800    0.735535
    129          1           0       18.546438    1.329975    1.805172
    130          1           0       20.444083    0.680113    0.416422
    131          1           0       19.739395    2.984586   -1.353669
    132          1           0       21.259216    2.244976   -1.531915
    133          1           0       19.917360    1.124562   -1.936618
    134          1           0       20.746131    2.676934    2.144090
    135          1           0       22.198983    2.645307    1.050554
    136          1           0       20.767624    3.814577    0.813136
    137          1           0       -7.386310    1.736276    0.329147
    138          1           0       -7.601978   -0.226033    0.034518
 ---------------------------------------------------------------------

 SCF Done:  E(RB3LYP) =  -2733.03549776     A.U. after   17 cycles

 Excitation energies and oscillator strengths:

 Excited State   1:      Singlet-A      2.0492 eV  605.04 nm  f=0.1580  <S**2>=0.000
     235 -> 237       -0.11506
     235 -> 238       -0.30499
     236 -> 237        0.62070
 This state for optimization and/or second-order correction.
 Total Energy, E(TD-HF/TD-KS) =  -2732.96019172
 Copying the excited state density for this state as the 1-particle RhoCI density.

 The electronic state is 1-A.
 Alpha  occ. eigenvalues --  -19.18405 -19.17200 -19.13807 -19.13598 -19.11858
 Alpha  occ. eigenvalues --  -14.37587 -14.36812 -14.32406 -14.30241 -10.31991
 Alpha  occ. eigenvalues --  -10.31690 -10.28889 -10.24807 -10.24692 -10.23875
 Alpha  occ. eigenvalues --  -10.23852 -10.23537 -10.23492 -10.22922 -10.22407
 Alpha  occ. eigenvalues --  -10.22166 -10.22070 -10.21869 -10.21742 -10.21712
 Alpha  occ. eigenvalues --  -10.21705 -10.21418 -10.21256 -10.21215 -10.21141
 Alpha  occ. eigenvalues --  -10.20956 -10.20726 -10.20655 -10.20645 -10.20574
 Alpha  occ. eigenvalues --  -10.20130 -10.20122 -10.19899 -10.19820 -10.19725
 Alpha  occ. eigenvalues --  -10.19605 -10.19565 -10.19564 -10.19450 -10.19398
 Alpha  occ. eigenvalues --  -10.19326 -10.19258 -10.19147 -10.19136 -10.19035
 Alpha  occ. eigenvalues --  -10.18872 -10.18869 -10.18816 -10.18675 -10.18667
 Alpha  occ. eigenvalues --  -10.18646 -10.18230 -10.18224 -10.17887 -10.17713
 Alpha  occ. eigenvalues --  -10.17704 -10.17582 -10.17555 -10.16177  -1.09621
 Alpha  occ. eigenvalues --   -1.08882  -1.06044  -1.01663  -1.00367  -1.00044
 Alpha  occ. eigenvalues --   -0.96155  -0.95456  -0.93914  -0.85326  -0.83115
 Alpha  occ. eigenvalues --   -0.82519  -0.82367  -0.81528  -0.80698  -0.80563
 Alpha  occ. eigenvalues --   -0.80407  -0.80199  -0.79939  -0.78828  -0.77466
 Alpha  occ. eigenvalues --   -0.76478  -0.76008  -0.75677  -0.74805  -0.74270
 Alpha  occ. eigenvalues --   -0.73968  -0.72928  -0.71965  -0.71632  -0.70642
 Alpha  occ. eigenvalues --   -0.69842  -0.69534  -0.69246  -0.68402  -0.68128
 Alpha  occ. eigenvalues --   -0.68028  -0.66877  -0.66798  -0.66018  -0.65227
 Alpha  occ. eigenvalues --   -0.64176  -0.62907  -0.62660  -0.62134  -0.61583
 Alpha  occ. eigenvalues --   -0.61049  -0.59363  -0.59148  -0.58374  -0.57537
 Alpha  occ. eigenvalues --   -0.57315  -0.56650  -0.56147  -0.55993  -0.55383
 Alpha  occ. eigenvalues --   -0.55130  -0.54643  -0.54407  -0.53652  -0.53325
 Alpha  occ. eigenvalues --   -0.52894  -0.52028  -0.51742  -0.50789  -0.50753
 Alpha  occ. eigenvalues --   -0.49835  -0.49417  -0.49032  -0.48648  -0.48408
 Alpha  occ. eigenvalues --   -0.48045  -0.47963  -0.47889  -0.47610  -0.46932
 Alpha  occ. eigenvalues --   -0.46614  -0.46537  -0.46426  -0.46137  -0.45784
 Alpha  occ. eigenvalues --   -0.45562  -0.45451  -0.45104  -0.44707  -0.44475
 Alpha  occ. eigenvalues --   -0.44225  -0.44134  -0.43973  -0.43827  -0.43568
 Alpha  occ. eigenvalues --   -0.43278  -0.43190  -0.42961  -0.42888  -0.42851
 Alpha  occ. eigenvalues --   -0.42394  -0.42077  -0.41897  -0.41743  -0.41503
 Alpha  occ. eigenvalues --   -0.41355  -0.40954  -0.40796  -0.40638  -0.40614
 Alpha  occ. eigenvalues --   -0.40382  -0.40123  -0.40015  -0.39780  -0.39741
 Alpha  occ. eigenvalues --   -0.39406  -0.39307  -0.38780  -0.38754  -0.38535
 Alpha  occ. eigenvalues --   -0.38422  -0.38178  -0.38036  -0.37782  -0.37650
 Alpha  occ. eigenvalues --   -0.37497  -0.37301  -0.37255  -0.37201  -0.36695
 Alpha  occ. eigenvalues --   -0.36457  -0.36395  -0.36133  -0.35887  -0.35494
 Alpha  occ. eigenvalues --   -0.35418  -0.35267  -0.35188  -0.35105  -0.35011
 Alpha  occ. eigenvalues --   -0.34752  -0.34461  -0.34369  -0.34003  -0.33730
 Alpha  occ. eigenvalues --   -0.33673  -0.33391  -0.33320  -0.33292  -0.32898
 Alpha  occ. eigenvalues --   -0.32695  -0.32578  -0.32184  -0.31462  -0.30931
 Alpha  occ. eigenvalues --   -0.30564  -0.30411  -0.30357  -0.29940  -0.29761
 Alpha  occ. eigenvalues --   -0.29409  -0.29357  -0.28857  -0.28603  -0.28248
 Alpha  occ. eigenvalues --   -0.27631  -0.27412  -0.27175  -0.26634  -0.26450
 Alpha  occ. eigenvalues --   -0.25202  -0.23698  -0.23322  -0.22653  -0.20470
 Alpha  occ. eigenvalues --   -0.19028
 Alpha virt. eigenvalues --   -0.10316  -0.08657  -0.04342  -0.02452  -0.02148
 Alpha virt. eigenvalues --   -0.00905  -0.00878   0.00250   0.02092   0.03286
 Alpha virt. eigenvalues --    0.03717   0.04153   0.04325   0.04514   0.04848

 Mulliken charges:
               1
     1  C    0.047422
     2  C   -0.063959
     3  C   -0.040475
     4  C   -0.120481
     5  N   -0.156398
     6  C   -0.043333
     7  C   -0.040045
     8  C   -0.047626
     9  C    0.054966
    10  C    0.041786
    11  C    0.109119
    12  C    0.006614
    13  C    0.171748
    14  O   -0.225796
    15  O   -0.346106
    16  N   -0.180147
    17  C    0.087466
    18  C   -0.108505
    19  C    0.057532
    20  C    0.120913
    21  C    0.068976
    22  C   -0.035572
    23  C   -0.101032
    24  N   -0.208836
    25  C    0.069670
    26  C   -0.063547
    27  C   -0.158049
    28  C    0.011488
    29  C    0.129985
    30  C    0.118335
    31  C    0.032629
    32  N   -0.042385
    33  C    0.055041
    34  C   -0.136413
    35  C   -0.019891
    36  C    0.051172
    37  C    0.039581
    38  C    0.049035
    39  O   -0.117606
    40  C   -0.082295
    41  C    0.208579
    42  O   -0.226233
    43  O   -0.289052
    44  C    0.192503
    45  C    0.312049
    46  C   -0.119128
    47  C   -0.157345
    48  C    0.008987
    49  C    0.094384
    50  C    0.006768
    51  C    0.003671
    52  C   -0.040256
    53  C    0.072425
    54  C    0.039032
    55  C    0.038713
    56  C   -0.047891
    57  C   -0.140073
    58  C    0.036021
    59  C    0.182319
    60  C    0.025062
    61  C    0.021567
    62  C   -0.093916
    63  C   -0.002278
    64  C    0.024632
    65  H    0.021816
    66  H   -0.088944
    67  H    0.042116
    68  H   -0.015760
    69  H   -0.022658
    70  H    0.012765
    71  H   -0.002531
    72  H    0.019960
    73  H    0.012111
    74  H   -0.002411
    75  H    0.055061
    76  H    0.055840
    77  H    0.004612
    78  H    0.039632
    79  H    0.020498
    80  H    0.024951
    81  H    0.043425
    82  H    0.042629
    83  H    0.010286
    84  H   -0.013927
    85  H   -0.012664
    86  H   -0.004836
    87  H   -0.051652
    88  H    0.006697
    89  H    0.005651
    90  H    0.025871
    91  H    0.036696
    92  H    0.040308
    93  H    0.051978
    94  H    0.073037
    95  H    0.006690
    96  H    0.014284
    97  H    0.024998
    98  H    0.003413
    99  H   -0.032485
   100  H    0.002239
   101  H    0.046309
   102  H    0.038700
   103  H    0.031634
   104  H   -0.004567
   105  H    0.031338
   106  H   -0.016667
   107  H    0.014179
   108  H    0.011996
   109  H   -0.019630
   110  H   -0.010247
   111  H   -0.002796
   112  H    0.030056
   113  H   -0.027303
   114  H   -0.011870
   115  H    0.006020
   116  H   -0.043177
   117  H   -0.012983
   118  H    0.003630
   119  H   -0.002031
   120  H    0.001348
   121  H    0.029912
   122  H    0.020226
   123  H   -0.037567
   124  H   -0.030524
   125  H   -0.064227
   126  H   -0.025301
   127  H    0.009580
   128  H   -0.004101
   129  H    0.005125
   130  H   -0.004453
   131  H   -0.006013
   132  H   -0.002491
   133  H    0.037741
   134  H    0.002501
   135  H    0.027267
   136  H    0.007895
   137  H    0.168706
   138  H    0.216572
 Sum of Mulliken charges =   0.00000

 Dipole moment (field-independent basis, Debye):
    X=              1.3150    Y=              3.2775    Z=              0.1163  Tot=              3.5334
 Quadrupole moment (field-independent basis, Debye-Ang):
   XX=           -355.3494   YY=           -378.9997   ZZ=           -398.2665
   XY=            -23.9682   XZ=             18.6016   YZ=             -0.1129

 Normal termination of Gaussian 09 at Sun Aug  4 07:36:21 2019.
