 Gaussian 09, Revision D.01,
 Gaussian 09:  ES64L-G09RevD.01 24-Apr-2013

 --------------------------
 # td=(NStates=1) B3LYP/SVP
 --------------------------

 --
 TD
 --
 Symbolic Z-matrix:
 Charge =  0 Multiplicity = 1

                         Standard orientation:
 ---------------------------------------------------------------------
 Center     Atomic      Atomic             Coordinates (Angstroms)
 Number     Number       Type             X           Y           Z
 ---------------------------------------------------------------------
      1          6           0       -4.967920   -1.836339    0.549141
      2          6           0       -4.857383    2.843955    1.293085
      3          6           0       -9.569644    3.040566   -0.218937
      4          6           0       -9.736836   -1.726702   -0.978129
      5          7           0       -5.185594    0.451271    0.904421
      6          6           0       -4.419859   -0.630463    0.971031
      7          6           0       -2.986726   -0.317096    1.413223
      8          6           0       -3.064237    1.131332    1.870757
      9          6           0       -4.389734    1.562776    1.264348
     10          6           0       -2.994743    1.263571    3.354283
     11          6           0       -2.075620   -0.563646    0.277017
     12          6           0       -0.595229   -0.496656    0.574650
     13          6           0        0.342458   -0.766245   -0.573674
     14          8           0       -0.035614   -1.288416   -1.683304
     15          8           0        1.565774   -0.492441   -0.370683
     16          7           0       -7.122150    2.728049    0.530140
     17          6           0       -6.076611    3.396528    0.926404
     18          6           0       -6.552806    4.862590    0.939023
     19          6           0       -7.874276    4.911842    0.505994
     20          6           0       -8.301449    3.552218    0.198156
     21          6           0       -5.583214    5.959428    1.237340
     22          6           0       -8.554354    6.231100    0.304122
     23          6           0       -9.428906    6.451048   -0.720513
     24          7           0       -9.205549    0.666164   -0.473048
     25          6           0      -10.039152    1.812797   -0.379726
     26          6           0      -11.430207    1.524365   -0.950814
     27          6           0      -11.433263    0.150760   -1.332329
     28          6           0      -10.080957   -0.268819   -0.980697
     29          6           0      -12.524397    2.631249   -1.094470
     30          6           0      -12.582319   -0.631228   -1.788653
     31          6           0      -12.510611   -1.063944   -3.209012
     32          7           0       -7.394176   -1.313363   -0.104971
     33          6           0       -8.428962   -2.161413   -0.657084
     34          6           0       -7.896491   -3.529707   -0.657105
     35          6           0       -6.599493   -3.342297   -0.137251
     36          6           0       -6.236026   -2.021505    0.062951
     37          6           0       -8.669008   -4.797750   -1.068298
     38          6           0       -5.435356   -4.252474    0.161256
     39          8           0       -5.336737   -5.448680   -0.033692
     40          6           0       -4.275038   -3.190200    0.551253
     41          6           0       -3.626910   -3.606487    1.812688
     42          8           0       -3.915704   -3.068218    2.901473
     43          8           0       -2.798949   -4.583489    1.665824
     44          6           0       -2.239298   -5.194508    2.788792
     45          6           0        2.672431   -0.960724   -1.299460
     46          6           0        3.970042   -0.560679   -0.572325
     47          6           0        5.015746    0.281963   -1.084243
     48          6           0        4.924246    1.020190   -2.366372
     49          6           0        6.273737    0.269862   -0.359802
     50          6           0        7.505381   -0.390136   -1.001102
     51          6           0        8.681969   -0.386117   -0.039921
     52          6           0       10.044192   -0.814346   -0.591020
     53          6           0        9.990953   -2.414448   -0.817192
     54          6           0       11.165315   -0.276768    0.236396
     55          6           0       12.595758   -0.554208   -0.403099
     56          6           0       13.755210   -0.137603    0.453336
     57          6           0       15.191873   -0.220375   -0.214752
     58          6           0       15.545024   -1.742923   -0.425963
     59          6           0       16.231560    0.644357    0.486754
     60          6           0       17.682012    0.692807   -0.207743
     61          6           0       18.726408    1.663825    0.400184
     62          6           0       20.069742    1.636462   -0.072701
     63          6           0       20.093435    2.119808   -1.544122
     64          6           0       20.997918    2.421852    0.785005
     65          1           0       -4.092402    3.657307    1.612363
     66          1           0      -10.325328    3.791982   -0.492592
     67          1           0      -10.391896   -2.509693   -1.587296
     68          1           0       -2.732400   -1.079232    2.244060
     69          1           0       -2.242986    1.687325    1.231767
     70          1           0       -1.921005    0.919619    3.812781
     71          1           0       -3.280876    2.389322    3.583473
     72          1           0       -3.718294    0.754480    3.876299
     73          1           0       -2.308821   -1.409635   -0.511639
     74          1           0       -2.398872    0.150794   -0.717209
     75          1           0       -0.070289    0.439913    0.961834
     76          1           0       -0.498931   -1.172693    1.380714
     77          1           0       -4.867073    6.414315    0.317144
     78          1           0       -6.107340    6.946513    1.536727
     79          1           0       -4.672232    5.677369    2.070856
     80          1           0       -8.183199    6.967801    1.046470
     81          1           0       -9.573507    5.623463   -1.556033
     82          1           0      -10.011595    7.441694   -0.894694
     83          1           0      -12.376914    3.250166   -0.257950
     84          1           0      -12.438054    3.211114   -2.133476
     85          1           0      -13.717669    2.367589   -0.910432
     86          1           0      -12.683156   -1.556947   -1.178856
     87          1           0      -13.481642   -0.052075   -1.647839
     88          1           0      -12.567008   -0.167916   -3.833755
     89          1           0      -11.626019   -1.647023   -3.631744
     90          1           0      -13.402478   -1.839777   -3.297589
     91          1           0       -9.596496   -4.849663   -0.512904
     92          1           0       -9.138371   -4.604130   -2.122509
     93          1           0       -7.903303   -5.500883   -1.128416
     94          1           0       -3.724989   -3.355887   -0.349653
     95          1           0       -1.162098   -5.576774    2.425709
     96          1           0       -2.097741   -4.268356    3.566057
     97          1           0       -2.977151   -6.101068    3.069067
     98          1           0        2.393187   -1.979722   -1.333990
     99          1           0        2.721395   -0.626065   -2.403616
    100          1           0        4.003174   -1.178184    0.479430
    101          1           0        5.428632    2.106745   -2.434440
    102          1           0        5.548226    0.322063   -2.849234
    103          1           0        3.999118    1.156502   -2.926044
    104          1           0        6.525861    1.351892    0.031855
    105          1           0        6.142762   -0.120205    0.691038
    106          1           0        7.236264   -1.429410   -1.169060
    107          1           0        7.768176    0.143218   -1.910039
    108          1           0        8.812877    0.659578    0.264566
    109          1           0        8.247452   -1.276699    0.878209
    110          1           0        9.926229   -0.313698   -1.580198
    111          1           0        8.948475   -2.703389   -1.311643
    112          1           0       10.771578   -2.719634   -1.488218
    113          1           0        9.981748   -2.678140    0.302389
    114          1           0       10.983335    0.683121    0.549753
    115          1           0       11.305887   -0.872345    1.122376
    116          1           0       12.540599   -1.832119   -0.735069
    117          1           0       12.678252   -0.069054   -1.364965
    118          1           0       13.755870    0.920239    0.902166
    119          1           0       13.597558   -0.694038    1.431676
    120          1           0       14.952532    0.278875   -1.282780
    121          1           0       14.692702   -2.068049   -0.868912
    122          1           0       16.317506   -2.045001   -1.057235
    123          1           0       15.791706   -2.455230    0.518090
    124          1           0       15.784457    1.657398    0.670292
    125          1           0       16.519059    0.466581    1.510373
    126          1           0       18.052864   -0.370036   -0.257383
    127          1           0       17.318804    1.257289   -1.328715
    128          1           0       18.372873    2.699734    0.285630
    129          1           0       18.870574    1.342545    1.509495
    130          1           0       20.476913    0.570225   -0.091094
    131          1           0       19.510225    3.019009   -1.481436
    132          1           0       21.150570    2.256855   -2.163689
    133          1           0       19.617655    1.497056   -2.223825
    134          1           0       21.035854    1.984409    1.892817
    135          1           0       22.142999    2.165726    0.293174
    136          1           0       20.768660    3.442007    0.813577
    137          1           0       -7.119336    1.677350    0.414696
    138          1           0       -7.391273   -0.229985   -0.127517
 ---------------------------------------------------------------------

 SCF Done:  E(RB3LYP) =  -2733.03597229     A.U. after   17 cycles

 Excitation energies and oscillator strengths:

 Excited State   1:      Singlet-A      2.0464 eV  605.86 nm  f=0.1623  <S**2>=0.000
     235 -> 238       -0.30358
     236 -> 237        0.62701
 This state for optimization and/or second-order correction.
 Total Energy, E(TD-HF/TD-KS) =  -2732.96076841
 Copying the excited state density for this state as the 1-particle RhoCI density.

 The electronic state is 1-A.
 Alpha  occ. eigenvalues --  -19.18795 -19.18074 -19.13249 -19.11338 -19.09744
 Alpha  occ. eigenvalues --  -14.37483 -14.36182 -14.32099 -14.30339 -10.31518
 Alpha  occ. eigenvalues --  -10.30680 -10.28474 -10.27195 -10.26293 -10.24120
 Alpha  occ. eigenvalues --  -10.23817 -10.23760 -10.22679 -10.22644 -10.22640
 Alpha  occ. eigenvalues --  -10.22623 -10.22516 -10.21996 -10.21929 -10.21374
 Alpha  occ. eigenvalues --  -10.21351 -10.21307 -10.21175 -10.21171 -10.20947
 Alpha  occ. eigenvalues --  -10.20858 -10.20814 -10.20813 -10.20746 -10.20711
 Alpha  occ. eigenvalues --  -10.20697 -10.20677 -10.20635 -10.20479 -10.20461
 Alpha  occ. eigenvalues --  -10.20334 -10.20228 -10.20210 -10.20016 -10.19930
 Alpha  occ. eigenvalues --  -10.19919 -10.19840 -10.19745 -10.19614 -10.19598
 Alpha  occ. eigenvalues --  -10.19528 -10.19425 -10.19394 -10.19359 -10.18946
 Alpha  occ. eigenvalues --  -10.18826 -10.18717 -10.18636 -10.18584 -10.18533
 Alpha  occ. eigenvalues --  -10.18462 -10.18253 -10.17703 -10.17535  -1.12009
 Alpha  occ. eigenvalues --   -1.09871  -1.03107  -0.99273  -0.97178  -0.96330
 Alpha  occ. eigenvalues --   -0.95557  -0.93994  -0.91310  -0.84571  -0.83743
 Alpha  occ. eigenvalues --   -0.82632  -0.81969  -0.81650  -0.81373  -0.80215
 Alpha  occ. eigenvalues --   -0.80025  -0.79623  -0.79008  -0.78586  -0.77733
 Alpha  occ. eigenvalues --   -0.76818  -0.76404  -0.75253  -0.74608  -0.73992
 Alpha  occ. eigenvalues --   -0.73722  -0.73397  -0.72402  -0.71768  -0.70652
 Alpha  occ. eigenvalues --   -0.69694  -0.69066  -0.68721  -0.67943  -0.67822
 Alpha  occ. eigenvalues --   -0.67527  -0.67310  -0.66876  -0.65234  -0.64846
 Alpha  occ. eigenvalues --   -0.63673  -0.62511  -0.61542  -0.61062  -0.60693
 Alpha  occ. eigenvalues --   -0.60159  -0.59459  -0.58136  -0.57158  -0.56985
 Alpha  occ. eigenvalues --   -0.56371  -0.55869  -0.55710  -0.54912  -0.54881
 Alpha  occ. eigenvalues --   -0.54701  -0.54579  -0.54077  -0.53097  -0.52946
 Alpha  occ. eigenvalues --   -0.52654  -0.51847  -0.51767  -0.51065  -0.50643
 Alpha  occ. eigenvalues --   -0.49724  -0.49264  -0.49078  -0.48943  -0.48459
 Alpha  occ. eigenvalues --   -0.48061  -0.47775  -0.47469  -0.47182  -0.46828
 Alpha  occ. eigenvalues --   -0.46505  -0.46404  -0.46163  -0.45744  -0.45573
 Alpha  occ. eigenvalues --   -0.45245  -0.45149  -0.45031  -0.44679  -0.44449
 Alpha  occ. eigenvalues --   -0.44137  -0.43985  -0.43700  -0.43343  -0.43158
 Alpha  occ. eigenvalues --   -0.43138  -0.42845  -0.42772  -0.42696  -0.42571
 Alpha  occ. eigenvalues --   -0.42265  -0.42110  -0.41982  -0.41919  -0.41411
 Alpha  occ. eigenvalues --   -0.41270  -0.41144  -0.40845  -0.40145  -0.40074
 Alpha  occ. eigenvalues --   -0.39924  -0.39444  -0.39207  -0.39125  -0.38985
 Alpha  occ. eigenvalues --   -0.38779  -0.38681  -0.38502  -0.38253  -0.38040
 Alpha  occ. eigenvalues --   -0.37819  -0.37797  -0.37678  -0.37582  -0.37473
 Alpha  occ. eigenvalues --   -0.37223  -0.36956  -0.36940  -0.36829  -0.36508
 Alpha  occ. eigenvalues --   -0.36277  -0.36189  -0.35879  -0.35747  -0.35438
 Alpha  occ. eigenvalues --   -0.35289  -0.35027  -0.34983  -0.34771  -0.34639
 Alpha  occ. eigenvalues --   -0.34368  -0.34280  -0.33895  -0.33836  -0.33618
 Alpha  occ. eigenvalues --   -0.33374  -0.32940  -0.32899  -0.32564  -0.32515
 Alpha  occ. eigenvalues --   -0.32401  -0.32125  -0.32005  -0.31879  -0.31233
 Alpha  occ. eigenvalues --   -0.30846  -0.30511  -0.30369  -0.30233  -0.29564
 Alpha  occ. eigenvalues --   -0.29120  -0.28641  -0.28542  -0.27655  -0.27459
 Alpha  occ. eigenvalues --   -0.27413  -0.27021  -0.26425  -0.25699  -0.25658
 Alpha  occ. eigenvalues --   -0.24871  -0.24102  -0.23567  -0.22149  -0.19507
 Alpha  occ. eigenvalues --   -0.18689
 Alpha virt. eigenvalues --   -0.10017  -0.07502  -0.04044  -0.02896  -0.02024
 Alpha virt. eigenvalues --   -0.00482   0.00253   0.00677   0.02332   0.03031
 Alpha virt. eigenvalues --    0.03527   0.03795   0.03880   0.04157   0.04371

 Mulliken charges:
               1
     1  C    0.012967
     2  C   -0.056476
     3  C   -0.047852
     4  C   -0.102643
     5  N   -0.206727
     6  C   -0.097456
     7  C    0.007560
     8  C    0.021986
     9  C   -0.027182
    10  C    0.082426
    11  C   -0.101738
    12  C    0.102164
    13  C    0.157178
    14  O   -0.332640
    15  O   -0.269367
    16  N   -0.086082
    17  C    0.057757
    18  C   -0.079551
    19  C    0.018680
    20  C    0.085236
    21  C   -0.065255
    22  C   -0.007232
    23  C   -0.089522
    24  N   -0.288574
    25  C    0.080439
    26  C   -0.139432
    27  C   -0.097660
    28  C    0.049925
    29  C    0.010079
    30  C    0.132701
    31  C   -0.046713
    32  N   -0.123902
    33  C    0.102107
    34  C   -0.154854
    35  C   -0.076293
    36  C    0.131473
    37  C    0.152050
    38  C    0.066170
    39  O   -0.164196
    40  C   -0.018943
    41  C    0.199784
    42  O   -0.278184
    43  O   -0.223591
    44  C    0.063135
    45  C    0.258270
    46  C   -0.132198
    47  C   -0.090138
    48  C    0.045681
    49  C    0.018586
    50  C    0.068554
    51  C   -0.066976
    52  C   -0.068491
    53  C   -0.008178
    54  C    0.136040
    55  C   -0.052971
    56  C    0.015861
    57  C   -0.068786
    58  C    0.084427
    59  C    0.055895
    60  C   -0.052661
    61  C    0.027713
    62  C   -0.075076
    63  C    0.026264
    64  C    0.005149
    65  H   -0.003805
    66  H   -0.026570
    67  H    0.024795
    68  H    0.033186
    69  H    0.018457
    70  H    0.035320
    71  H    0.012474
    72  H    0.005148
    73  H    0.049966
    74  H    0.008142
    75  H    0.032020
    76  H    0.009231
    77  H    0.048592
    78  H    0.026032
    79  H    0.050947
    80  H    0.015251
    81  H    0.063051
    82  H    0.047911
    83  H    0.021693
    84  H    0.054308
    85  H    0.037525
    86  H    0.003186
    87  H   -0.011471
    88  H    0.014887
    89  H    0.025042
    90  H    0.017567
    91  H    0.030917
    92  H    0.022692
    93  H    0.035840
    94  H    0.048920
    95  H    0.056514
    96  H    0.073192
    97  H    0.076169
    98  H    0.010146
    99  H    0.044776
   100  H    0.032413
   101  H    0.042702
   102  H    0.024264
   103  H    0.032580
   104  H    0.002499
   105  H   -0.001200
   106  H    0.003377
   107  H    0.000318
   108  H   -0.006346
   109  H    0.006024
   110  H   -0.018741
   111  H    0.023246
   112  H    0.030192
   113  H    0.031461
   114  H   -0.030203
   115  H   -0.019059
   116  H    0.034700
   117  H   -0.012888
   118  H   -0.004283
   119  H   -0.005367
   120  H    0.012208
   121  H   -0.040952
   122  H   -0.010983
   123  H    0.015291
   124  H   -0.016457
   125  H   -0.023132
   126  H    0.022205
   127  H    0.012564
   128  H   -0.005634
   129  H   -0.002879
   130  H   -0.010476
   131  H   -0.014139
   132  H    0.016998
   133  H   -0.005600
   134  H    0.021423
   135  H    0.025766
   136  H   -0.000372
   137  H    0.161193
   138  H    0.186521
 Sum of Mulliken charges =   0.00000

 Dipole moment (field-independent basis, Debye):
    X=              4.2294    Y=              3.0562    Z=             -0.4686  Tot=              5.2391
 Quadrupole moment (field-independent basis, Debye-Ang):
   XX=           -359.8345   YY=           -382.5853   ZZ=           -398.6689
   XY=            -17.4591   XZ=             12.5561   YZ=             -1.9171

 Normal termination of Gaussian 09 at Fri Aug  2 21:00:59 2019.
