 Gaussian 09, Revision D.01,
 Gaussian 09:  ES64L-G09RevD.01 24-Apr-2013

 --------------------------
 # td=(NStates=1) B3LYP/SVP
 --------------------------

 --
 TD
 --
 Symbolic Z-matrix:
 Charge =  0 Multiplicity = 1

                         Standard orientation:
 ---------------------------------------------------------------------
 Center     Atomic      Atomic             Coordinates (Angstroms)
 Number     Number       Type             X           Y           Z
 ---------------------------------------------------------------------
      1          6           0       -5.106174   -1.919809    0.376094
      2          6           0       -4.772116    2.745638    1.440816
      3          6           0       -9.340676    3.297280   -0.211098
      4          6           0       -9.793430   -1.524638   -0.907957
      5          7           0       -5.204927    0.407942    0.948483
      6          6           0       -4.463600   -0.612931    0.822943
      7          6           0       -3.086991   -0.542184    1.249108
      8          6           0       -3.125629    0.818754    1.945448
      9          6           0       -4.468872    1.389176    1.457194
     10          6           0       -3.154511    0.809885    3.493590
     11          6           0       -2.036511   -0.509585    0.142572
     12          6           0       -0.544418   -0.603383    0.594010
     13          6           0        0.387903   -1.058245   -0.518943
     14          8           0        0.109854   -1.590418   -1.533108
     15          8           0        1.658126   -0.732654   -0.136301
     16          7           0       -7.028627    2.785984    0.419814
     17          6           0       -5.930359    3.463155    0.908466
     18          6           0       -6.233822    4.891567    1.024780
     19          6           0       -7.613484    4.991670    0.492360
     20          6           0       -8.047903    3.623849    0.125179
     21          6           0       -5.308879    5.892906    1.516354
     22          6           0       -8.220184    6.296476    0.298139
     23          6           0       -9.036769    6.678230   -0.707742
     24          7           0       -9.314743    0.790704   -0.402977
     25          6           0       -9.950751    2.006654   -0.484063
     26          6           0      -11.306632    1.850856   -1.087444
     27          6           0      -11.445378    0.415335   -1.177926
     28          6           0      -10.134730   -0.174568   -0.788592
     29          6           0      -12.311804    2.885216   -1.299192
     30          6           0      -12.696622   -0.270710   -1.591301
     31          6           0      -12.740524   -0.458962   -3.169505
     32          7           0       -7.510177   -1.263829   -0.228078
     33          6           0       -8.548096   -2.009244   -0.679422
     34          6           0       -8.125361   -3.413340   -0.714884
     35          6           0       -6.738406   -3.335324   -0.490388
     36          6           0       -6.407294   -2.053155   -0.152617
     37          6           0       -8.968720   -4.655452   -0.915541
     38          6           0       -5.654401   -4.236456   -0.185682
     39          8           0       -5.495322   -5.436930   -0.247459
     40          6           0       -4.493789   -3.204401    0.390128
     41          6           0       -3.827055   -3.820282    1.639067
     42          8           0       -4.139747   -3.502158    2.801133
     43          8           0       -2.914827   -4.765418    1.399546
     44          6           0       -2.453031   -5.420157    2.617212
     45          6           0        2.669091   -1.049842   -1.067141
     46          6           0        4.030721   -0.804904   -0.406874
     47          6           0        5.060826    0.006998   -0.862072
     48          6           0        4.971535    0.751638   -2.297425
     49          6           0        6.332468    0.170137   -0.160758
     50          6           0        7.516683   -0.591611   -0.695092
     51          6           0        8.793404   -0.205572   -0.032447
     52          6           0       10.067966   -0.880335   -0.572190
     53          6           0        9.883663   -2.451966   -0.771463
     54          6           0       11.354042   -0.543655    0.245613
     55          6           0       12.679870   -0.679143   -0.565953
     56          6           0       13.846386   -0.007415    0.163871
     57          6           0       15.254997   -0.249631   -0.294862
     58          6           0       15.639074   -1.733385   -0.315776
     59          6           0       16.228505    0.573924    0.397750
     60          6           0       17.702069    0.664435   -0.202537
     61          6           0       18.514918    1.782812    0.441110
     62          6           0       19.992280    1.867309   -0.040106
     63          6           0       20.147830    2.237415   -1.583512
     64          6           0       20.736145    2.944564    0.809625
     65          1           0       -3.894525    3.479679    1.656057
     66          1           0      -10.101350    4.262798    0.033827
     67          1           0      -10.632646   -2.276187   -1.232988
     68          1           0       -2.815270   -1.105350    2.152853
     69          1           0       -2.557919    1.599498    1.312761
     70          1           0       -2.153520    0.463196    3.990653
     71          1           0       -3.408569    1.729079    3.934389
     72          1           0       -3.951093    0.103473    3.576190
     73          1           0       -2.267940   -1.578386   -0.486275
     74          1           0       -2.249831    0.298670   -0.525407
     75          1           0       -0.228008    0.318039    1.119835
     76          1           0       -0.494087   -1.385739    1.551935
     77          1           0       -4.282168    6.068777    1.028732
     78          1           0       -5.940818    6.931958    1.825703
     79          1           0       -4.893209    5.434714    2.563116
     80          1           0       -8.137840    7.044268    1.163960
     81          1           0       -9.398670    6.181731   -1.537240
     82          1           0       -9.597071    7.647703   -0.524485
     83          1           0      -12.213249    3.575621   -0.486537
     84          1           0      -11.705754    3.755260   -2.025588
     85          1           0      -13.215578    2.768709   -1.680417
     86          1           0      -12.957430   -1.291526   -1.193520
     87          1           0      -13.536166    0.249726   -1.210748
     88          1           0      -12.856128    0.520705   -3.613601
     89          1           0      -11.844642   -0.841169   -3.668758
     90          1           0      -13.402118   -1.246040   -3.537443
     91          1           0       -9.902075   -4.521996   -0.266678
     92          1           0       -9.267384   -4.761682   -1.831969
     93          1           0       -8.470121   -5.569145   -0.989903
     94          1           0       -3.648900   -3.084291   -0.339798
     95          1           0       -1.241552   -5.820711    2.093527
     96          1           0       -2.391847   -4.590031    3.522529
     97          1           0       -3.194984   -6.368190    2.811606
     98          1           0        2.684059   -2.129059   -1.302924
     99          1           0        2.536230   -0.422861   -1.873774
    100          1           0        4.345571   -1.417038    0.547623
    101          1           0        4.950456    1.864341   -2.233037
    102          1           0        5.968258    0.646528   -3.194872
    103          1           0        3.922736    0.558892   -2.845475
    104          1           0        6.617546    1.268088   -0.159512
    105          1           0        6.207310   -0.051707    0.901875
    106          1           0        7.426697   -1.666531   -0.931301
    107          1           0        7.882417   -0.361872   -1.689716
    108          1           0        9.056713    0.889666   -0.049985
    109          1           0        8.965852   -0.452524    0.966537
    110          1           0       10.319019   -0.504456   -1.640708
    111          1           0        9.159038   -2.630574   -1.543024
    112          1           0       10.972377   -2.726015   -1.185225
    113          1           0        9.663258   -3.034667    0.150341
    114          1           0       11.280803    0.597117    0.491240
    115          1           0       11.256841   -1.268889    1.101637
    116          1           0       12.743604   -1.859261   -0.615873
    117          1           0       12.650507   -0.181972   -1.620958
    118          1           0       13.366077    0.975263    0.247944
    119          1           0       13.788661   -0.562500    1.062518
    120          1           0       15.376252    0.165861   -1.279290
    121          1           0       14.663463   -2.313027   -0.786254
    122          1           0       16.584023   -1.972998   -0.716240
    123          1           0       15.632241   -2.009855    0.762449
    124          1           0       15.820104    1.732303    0.347090
    125          1           0       16.268453    0.104592    1.281665
    126          1           0       18.210521   -0.469761   -0.145065
    127          1           0       17.448990    0.780978   -1.397786
    128          1           0       17.887942    2.697563    0.198243
    129          1           0       18.665639    1.428442    1.447737
    130          1           0       20.390194    0.886893    0.180477
    131          1           0       19.961256    3.432185   -1.818623
    132          1           0       21.097983    2.192660   -1.983574
    133          1           0       19.558943    1.540440   -2.240516
    134          1           0       20.862611    2.845321    1.908357
    135          1           0       21.899070    2.793362    0.396412
    136          1           0       20.670592    3.925019    0.510378
    137          1           0       -6.915391    1.929731    0.212641
    138          1           0       -7.670538   -0.251397    0.075522
 ---------------------------------------------------------------------

 SCF Done:  E(RB3LYP) =  -2732.98423087     A.U. after   17 cycles

 Excitation energies and oscillator strengths:

 Excited State   1:      Singlet-A      1.9734 eV  628.26 nm  f=0.1350  <S**2>=0.000
     235 -> 237       -0.20911
     235 -> 238       -0.28658
     236 -> 237        0.57393
     236 -> 238       -0.20625
 This state for optimization and/or second-order correction.
 Total Energy, E(TD-HF/TD-KS) =  -2732.91170832
 Copying the excited state density for this state as the 1-particle RhoCI density.

 The electronic state is 1-A.
 Alpha  occ. eigenvalues --  -19.18235 -19.17406 -19.13491 -19.13016 -19.11483
 Alpha  occ. eigenvalues --  -14.36876 -14.36656 -14.32439 -14.29724 -10.31969
 Alpha  occ. eigenvalues --  -10.31509 -10.28406 -10.28143 -10.24545 -10.24499
 Alpha  occ. eigenvalues --  -10.24243 -10.23541 -10.23155 -10.22944 -10.22780
 Alpha  occ. eigenvalues --  -10.22738 -10.22372 -10.22372 -10.22231 -10.22121
 Alpha  occ. eigenvalues --  -10.21643 -10.21570 -10.21493 -10.21467 -10.21448
 Alpha  occ. eigenvalues --  -10.21292 -10.21079 -10.20809 -10.20647 -10.20382
 Alpha  occ. eigenvalues --  -10.20345 -10.20316 -10.20192 -10.20138 -10.19960
 Alpha  occ. eigenvalues --  -10.19854 -10.19641 -10.19520 -10.19452 -10.19419
 Alpha  occ. eigenvalues --  -10.19385 -10.19381 -10.19378 -10.19208 -10.19034
 Alpha  occ. eigenvalues --  -10.18888 -10.18865 -10.18822 -10.18745 -10.18546
 Alpha  occ. eigenvalues --  -10.18542 -10.18487 -10.18440 -10.18352 -10.17733
 Alpha  occ. eigenvalues --  -10.17666 -10.17601 -10.17546 -10.17475  -1.10475
 Alpha  occ. eigenvalues --   -1.09208  -1.03112  -1.02548  -0.99521  -0.99167
 Alpha  occ. eigenvalues --   -0.98459  -0.98285  -0.93070  -0.85779  -0.83078
 Alpha  occ. eigenvalues --   -0.82529  -0.82234  -0.81899  -0.80881  -0.80369
 Alpha  occ. eigenvalues --   -0.80115  -0.79545  -0.79319  -0.78625  -0.78021
 Alpha  occ. eigenvalues --   -0.77023  -0.76249  -0.75777  -0.75079  -0.74395
 Alpha  occ. eigenvalues --   -0.73560  -0.72839  -0.71802  -0.71588  -0.71078
 Alpha  occ. eigenvalues --   -0.70490  -0.68922  -0.68211  -0.67261  -0.67031
 Alpha  occ. eigenvalues --   -0.66984  -0.66814  -0.66668  -0.65957  -0.65340
 Alpha  occ. eigenvalues --   -0.64507  -0.63711  -0.62944  -0.62036  -0.61829
 Alpha  occ. eigenvalues --   -0.61348  -0.59778  -0.58736  -0.58065  -0.57425
 Alpha  occ. eigenvalues --   -0.56603  -0.56529  -0.56113  -0.55878  -0.55339
 Alpha  occ. eigenvalues --   -0.54850  -0.54426  -0.54174  -0.53669  -0.53381
 Alpha  occ. eigenvalues --   -0.53003  -0.52397  -0.51526  -0.51181  -0.50540
 Alpha  occ. eigenvalues --   -0.50191  -0.49900  -0.49703  -0.49244  -0.48119
 Alpha  occ. eigenvalues --   -0.48021  -0.47673  -0.47616  -0.47381  -0.47136
 Alpha  occ. eigenvalues --   -0.47000  -0.46773  -0.46368  -0.46044  -0.45975
 Alpha  occ. eigenvalues --   -0.45648  -0.45637  -0.45283  -0.44773  -0.44660
 Alpha  occ. eigenvalues --   -0.44578  -0.44235  -0.44199  -0.43920  -0.43580
 Alpha  occ. eigenvalues --   -0.43322  -0.43195  -0.43023  -0.42757  -0.42627
 Alpha  occ. eigenvalues --   -0.42416  -0.42271  -0.41797  -0.41474  -0.41257
 Alpha  occ. eigenvalues --   -0.41076  -0.40846  -0.40723  -0.40601  -0.40308
 Alpha  occ. eigenvalues --   -0.40149  -0.39930  -0.39701  -0.39428  -0.39188
 Alpha  occ. eigenvalues --   -0.38975  -0.38930  -0.38660  -0.38588  -0.38408
 Alpha  occ. eigenvalues --   -0.38312  -0.38163  -0.37953  -0.37687  -0.37626
 Alpha  occ. eigenvalues --   -0.37331  -0.37165  -0.36984  -0.36840  -0.36571
 Alpha  occ. eigenvalues --   -0.36469  -0.36240  -0.36048  -0.35942  -0.35848
 Alpha  occ. eigenvalues --   -0.35709  -0.35647  -0.35540  -0.35239  -0.34791
 Alpha  occ. eigenvalues --   -0.34670  -0.34100  -0.33915  -0.33883  -0.33862
 Alpha  occ. eigenvalues --   -0.33441  -0.33404  -0.32824  -0.32814  -0.32338
 Alpha  occ. eigenvalues --   -0.31913  -0.31637  -0.31400  -0.31241  -0.31118
 Alpha  occ. eigenvalues --   -0.31081  -0.30911  -0.30321  -0.30274  -0.29801
 Alpha  occ. eigenvalues --   -0.29503  -0.29270  -0.29225  -0.28825  -0.28510
 Alpha  occ. eigenvalues --   -0.27804  -0.27183  -0.26510  -0.25900  -0.25475
 Alpha  occ. eigenvalues --   -0.25026  -0.24648  -0.23635  -0.21141  -0.19862
 Alpha  occ. eigenvalues --   -0.18522
 Alpha virt. eigenvalues --   -0.10232  -0.08309  -0.04783  -0.02073  -0.01250
 Alpha virt. eigenvalues --   -0.00640  -0.00519  -0.00032   0.02008   0.02997
 Alpha virt. eigenvalues --    0.03344   0.03432   0.03662   0.04006   0.04387

 Mulliken charges:
               1
     1  C   -0.001853
     2  C   -0.058600
     3  C   -0.131509
     4  C   -0.142706
     5  N   -0.058473
     6  C   -0.078506
     7  C   -0.011022
     8  C   -0.086436
     9  C   -0.082744
    10  C    0.118049
    11  C    0.020450
    12  C   -0.015888
    13  C    0.190645
    14  O   -0.184379
    15  O   -0.324844
    16  N    0.072602
    17  C    0.007551
    18  C   -0.069046
    19  C    0.003984
    20  C    0.091488
    21  C   -0.034593
    22  C   -0.074482
    23  C   -0.031539
    24  N   -0.220790
    25  C    0.058493
    26  C   -0.148030
    27  C   -0.095431
    28  C    0.060657
    29  C    0.173742
    30  C    0.061282
    31  C    0.011566
    32  N   -0.048832
    33  C    0.101922
    34  C   -0.163233
    35  C   -0.009597
    36  C    0.066230
    37  C    0.233945
    38  C    0.080869
    39  O   -0.154734
    40  C   -0.055537
    41  C    0.190489
    42  O   -0.277886
    43  O   -0.271339
    44  C    0.033361
    45  C    0.358857
    46  C   -0.144580
    47  C   -0.097678
    48  C   -0.069413
    49  C    0.126514
    50  C    0.048253
    51  C    0.078654
    52  C   -0.161772
    53  C   -0.007979
    54  C   -0.007460
    55  C   -0.067122
    56  C    0.078156
    57  C    0.013002
    58  C    0.004445
    59  C    0.046553
    60  C   -0.116829
    61  C    0.105888
    62  C   -0.062420
    63  C   -0.001562
    64  C    0.021226
    65  H    0.002561
    66  H    0.053425
    67  H    0.011000
    68  H    0.012370
    69  H    0.000276
    70  H    0.032438
    71  H    0.002829
    72  H    0.025970
    73  H    0.046139
    74  H    0.009803
    75  H    0.034144
    76  H    0.056502
    77  H    0.057348
    78  H    0.050488
    79  H    0.038398
    80  H    0.034395
    81  H    0.003941
    82  H    0.023472
    83  H   -0.003164
    84  H    0.004055
    85  H   -0.014351
    86  H   -0.006262
    87  H   -0.008537
    88  H    0.008104
    89  H   -0.000859
    90  H    0.001166
    91  H    0.042510
    92  H   -0.036082
    93  H   -0.002026
    94  H    0.053264
    95  H    0.057730
    96  H    0.099037
    97  H    0.085085
    98  H    0.027784
    99  H   -0.025037
   100  H    0.016379
   101  H    0.027099
   102  H    0.051398
   103  H    0.031311
   104  H    0.001088
   105  H   -0.005375
   106  H   -0.004507
   107  H   -0.021844
   108  H   -0.008015
   109  H   -0.038930
   110  H   -0.010221
   111  H    0.016105
   112  H    0.019425
   113  H    0.019735
   114  H    0.003595
   115  H    0.017698
   116  H    0.024029
   117  H    0.012748
   118  H   -0.004932
   119  H   -0.034004
   120  H   -0.046664
   121  H    0.031653
   122  H    0.014867
   123  H   -0.004270
   124  H    0.009656
   125  H   -0.052886
   126  H    0.008502
   127  H    0.012817
   128  H    0.012561
   129  H   -0.005001
   130  H   -0.009137
   131  H    0.017707
   132  H   -0.012592
   133  H    0.021467
   134  H    0.021933
   135  H   -0.007821
   136  H   -0.008911
   137  H    0.041213
   138  H    0.174178
 Sum of Mulliken charges =   0.00000

 Dipole moment (field-independent basis, Debye):
    X=              2.0045    Y=              4.0655    Z=              0.6530  Tot=              4.5796
 Quadrupole moment (field-independent basis, Debye-Ang):
   XX=           -351.8319   YY=           -386.0892   ZZ=           -398.9595
   XY=            -16.3855   XZ=             10.2418   YZ=              1.6166

 Normal termination of Gaussian 09 at Wed Jul 31 16:40:55 2019.
