 Gaussian 09, Revision D.01,
 Gaussian 09:  ES64L-G09RevD.01 24-Apr-2013

 --------------------------
 # td=(NStates=1) B3LYP/SVP
 --------------------------

 --
 TD
 --
 Symbolic Z-matrix:
 Charge =  0 Multiplicity = 1

                         Standard orientation:
 ---------------------------------------------------------------------
 Center     Atomic      Atomic             Coordinates (Angstroms)
 Number     Number       Type             X           Y           Z
 ---------------------------------------------------------------------
      1          6           0       -5.140291   -1.913553    0.526146
      2          6           0       -4.687967    2.780128    1.408528
      3          6           0       -9.309402    3.321017   -0.275799
      4          6           0       -9.905028   -1.532602   -0.830195
      5          7           0       -5.238311    0.464642    0.782127
      6          6           0       -4.519428   -0.698158    0.774006
      7          6           0       -3.012107   -0.503179    1.211122
      8          6           0       -3.036399    0.870835    1.727976
      9          6           0       -4.439566    1.427008    1.244622
     10          6           0       -2.907497    1.004454    3.285183
     11          6           0       -2.032620   -0.741305    0.092073
     12          6           0       -0.617053   -0.653647    0.543670
     13          6           0        0.398259   -0.766941   -0.570349
     14          8           0        0.142383   -1.097557   -1.680034
     15          8           0        1.656574   -0.689338   -0.096026
     16          7           0       -6.971444    2.702885    0.437104
     17          6           0       -5.922832    3.310587    1.008272
     18          6           0       -6.259347    4.718023    1.063901
     19          6           0       -7.490578    4.967842    0.369194
     20          6           0       -8.051147    3.633475    0.139777
     21          6           0       -5.325875    5.883561    1.427618
     22          6           0       -8.144979    6.164336    0.155239
     23          6           0       -9.137818    6.484196   -0.756659
     24          7           0       -9.294595    0.832414   -0.408874
     25          6           0       -9.892839    2.014945   -0.468510
     26          6           0      -11.401821    1.792895   -0.839380
     27          6           0      -11.482712    0.421450   -1.019989
     28          6           0      -10.191512   -0.108708   -0.694963
     29          6           0      -12.388392    3.037561   -1.081519
     30          6           0      -12.642885   -0.288974   -1.542880
     31          6           0      -12.594489   -0.571331   -3.038046
     32          7           0       -7.584410   -1.290519   -0.080167
     33          6           0       -8.596897   -2.030710   -0.596828
     34          6           0       -8.260679   -3.424561   -0.649691
     35          6           0       -6.883841   -3.399925   -0.283544
     36          6           0       -6.556429   -2.156734    0.105514
     37          6           0       -8.966615   -4.616615   -0.875378
     38          6           0       -5.742278   -4.306257   -0.169710
     39          8           0       -5.547572   -5.514672   -0.337580
     40          6           0       -4.559779   -3.272960    0.401183
     41          6           0       -3.889787   -3.834293    1.605738
     42          8           0       -4.170274   -3.425913    2.706680
     43          8           0       -2.978087   -4.865345    1.493740
     44          6           0       -2.548542   -5.449543    2.694675
     45          6           0        2.654949   -0.918586   -1.008908
     46          6           0        3.957122   -0.662744   -0.325122
     47          6           0        4.941940    0.157628   -0.899048
     48          6           0        4.887275    0.945546   -2.132133
     49          6           0        6.341618    0.207022   -0.138124
     50          6           0        7.533069   -0.402475   -0.920526
     51          6           0        8.830136   -0.326330   -0.122270
     52          6           0       10.091295   -0.642169   -0.888431
     53          6           0       10.044552   -2.131133   -1.609529
     54          6           0       11.382426   -0.428085    0.062460
     55          6           0       12.692539   -0.571851   -0.673638
     56          6           0       13.815745   -0.095439    0.276239
     57          6           0       15.163040   -0.185032   -0.324036
     58          6           0       15.622567   -1.662602   -0.509823
     59          6           0       16.305889    0.567035    0.453922
     60          6           0       17.668525    0.709969   -0.219509
     61          6           0       18.615904    1.576368    0.687031
     62          6           0       20.131850    1.556811    0.181018
     63          6           0       20.275859    1.963547   -1.208862
     64          6           0       20.806914    2.522799    1.079068
     65          1           0       -3.855057    3.555096    1.745380
     66          1           0       -9.916834    4.167356   -0.328906
     67          1           0      -10.679478   -2.271188   -1.114987
     68          1           0       -2.793944   -1.190423    2.193910
     69          1           0       -2.187310    1.519219    1.313602
     70          1           0       -1.865789    0.780779    3.750603
     71          1           0       -3.192265    2.067779    3.464038
     72          1           0       -3.693938    0.438805    3.669824
     73          1           0       -2.270739   -1.901291   -0.230231
     74          1           0       -2.165449   -0.024471   -0.771048
     75          1           0       -0.141142    0.334828    1.063311
     76          1           0       -0.162270   -1.332102    1.240300
     77          1           0       -4.393756    5.603463    0.895907
     78          1           0       -5.795158    6.981194    1.067466
     79          1           0       -5.074487    5.769880    2.499683
     80          1           0       -7.919255    6.991531    0.931591
     81          1           0       -9.855275    5.842680   -1.601181
     82          1           0       -9.444843    7.375436   -0.632718
     83          1           0      -12.667121    3.636327   -0.276736
     84          1           0      -12.064424    3.727307   -1.779538
     85          1           0      -13.203796    2.671570   -1.286743
     86          1           0      -13.134625   -1.305703   -1.009034
     87          1           0      -13.615737    0.181212   -1.535300
     88          1           0      -12.623944    0.294613   -3.754004
     89          1           0      -11.736706   -0.821854   -3.383781
     90          1           0      -13.347807   -1.380208   -3.148420
     91          1           0       -9.693025   -4.698444   -0.193936
     92          1           0       -9.480917   -4.819777   -1.872353
     93          1           0       -8.448324   -5.586201   -0.821235
     94          1           0       -3.689418   -3.416049   -0.309344
     95          1           0       -1.693352   -6.206577    2.292164
     96          1           0       -2.201030   -4.563841    3.473258
     97          1           0       -3.362202   -6.131728    3.044053
     98          1           0        2.827672   -1.925909   -1.372247
     99          1           0        2.553593   -0.277061   -1.794458
    100          1           0        4.241730   -1.399999    0.474379
    101          1           0        5.072307    2.051057   -2.097438
    102          1           0        5.830977    0.610535   -2.766872
    103          1           0        3.959189    0.779597   -2.839050
    104          1           0        6.483285    1.250511   -0.009749
    105          1           0        6.300237   -0.243111    0.819453
    106          1           0        7.183478   -1.396198   -1.112018
    107          1           0        7.648328    0.253034   -1.756800
    108          1           0        8.958874    0.522468    0.650451
    109          1           0        8.845200   -0.966117    0.807393
    110          1           0       10.257318    0.191913   -1.898695
    111          1           0        9.269577   -2.258728   -2.351591
    112          1           0       11.011685   -2.450653   -2.110038
    113          1           0        9.682218   -3.070196   -0.749384
    114          1           0       11.216601    0.534767    0.615769
    115          1           0       11.415512   -1.232770    0.918765
    116          1           0       12.728656   -1.658940   -0.851135
    117          1           0       12.742508   -0.091694   -1.669952
    118          1           0       13.628141    0.998444    0.354106
    119          1           0       13.618049   -0.748212    1.224845
    120          1           0       15.200800    0.038690   -1.347791
    121          1           0       15.141991   -2.210151   -1.088187
    122          1           0       16.790264   -1.660428   -0.713035
    123          1           0       15.707861   -2.263086    0.488015
    124          1           0       15.934297    1.647012    0.526970
    125          1           0       16.507996    0.242834    1.386750
    126          1           0       17.976453   -0.406900   -0.200675
    127          1           0       17.753925    1.276549   -1.085780
    128          1           0       18.287349    2.521692    0.622263
    129          1           0       18.574108    1.096345    1.712457
    130          1           0       20.589099    0.512968    0.508381
    131          1           0       20.040239    3.144963   -1.546459
    132          1           0       21.376634    1.767987   -1.597867
    133          1           0       19.622845    1.567608   -1.984744
    134          1           0       20.812826    2.418830    2.159495
    135          1           0       21.880878    2.627921    0.830698
    136          1           0       20.483784    3.700938    0.973329
    137          1           0       -7.081035    1.731262    0.342239
    138          1           0       -7.641152   -0.195929    0.022382
 ---------------------------------------------------------------------

 SCF Done:  E(RB3LYP) =  -2732.99938577     A.U. after   16 cycles

 Excitation energies and oscillator strengths:

 Excited State   1:      Singlet-A      2.0732 eV  598.02 nm  f=0.1446  <S**2>=0.000
     235 -> 238       -0.32648
     236 -> 237        0.62052
 This state for optimization and/or second-order correction.
 Total Energy, E(TD-HF/TD-KS) =  -2732.92319548
 Copying the excited state density for this state as the 1-particle RhoCI density.

 The electronic state is 1-A.
 Alpha  occ. eigenvalues --  -19.17193 -19.16471 -19.12925 -19.11908 -19.10960
 Alpha  occ. eigenvalues --  -14.37385 -14.37105 -14.32770 -14.30919 -10.30559
 Alpha  occ. eigenvalues --  -10.30439 -10.28828 -10.25399 -10.24670 -10.24275
 Alpha  occ. eigenvalues --  -10.23519 -10.23415 -10.23251 -10.23207 -10.22779
 Alpha  occ. eigenvalues --  -10.22543 -10.22115 -10.21873 -10.21854 -10.21778
 Alpha  occ. eigenvalues --  -10.21591 -10.21410 -10.21363 -10.21136 -10.21060
 Alpha  occ. eigenvalues --  -10.20891 -10.20804 -10.20754 -10.20681 -10.20584
 Alpha  occ. eigenvalues --  -10.20571 -10.20534 -10.20471 -10.20352 -10.20129
 Alpha  occ. eigenvalues --  -10.19988 -10.19987 -10.19859 -10.19824 -10.19611
 Alpha  occ. eigenvalues --  -10.19318 -10.18955 -10.18833 -10.18815 -10.18802
 Alpha  occ. eigenvalues --  -10.18758 -10.18707 -10.18439 -10.18245 -10.18050
 Alpha  occ. eigenvalues --  -10.18043 -10.18034 -10.17936 -10.17535 -10.17519
 Alpha  occ. eigenvalues --  -10.17286 -10.17197 -10.16972 -10.16721  -1.10866
 Alpha  occ. eigenvalues --   -1.08387  -1.01805  -1.01695  -0.99500  -0.99335
 Alpha  occ. eigenvalues --   -0.97915  -0.95002  -0.94607  -0.84546  -0.83000
 Alpha  occ. eigenvalues --   -0.82143  -0.82033  -0.81695  -0.81490  -0.80853
 Alpha  occ. eigenvalues --   -0.80771  -0.80065  -0.79456  -0.78630  -0.77854
 Alpha  occ. eigenvalues --   -0.76840  -0.76406  -0.75956  -0.75242  -0.74775
 Alpha  occ. eigenvalues --   -0.74035  -0.73500  -0.72403  -0.71537  -0.71297
 Alpha  occ. eigenvalues --   -0.70601  -0.70141  -0.68778  -0.67685  -0.67209
 Alpha  occ. eigenvalues --   -0.67059  -0.66650  -0.66464  -0.65939  -0.65244
 Alpha  occ. eigenvalues --   -0.64647  -0.63356  -0.62750  -0.62353  -0.62061
 Alpha  occ. eigenvalues --   -0.60655  -0.58880  -0.58276  -0.57931  -0.57236
 Alpha  occ. eigenvalues --   -0.57001  -0.56481  -0.56000  -0.55830  -0.55759
 Alpha  occ. eigenvalues --   -0.54970  -0.54714  -0.54199  -0.53479  -0.53044
 Alpha  occ. eigenvalues --   -0.52916  -0.52137  -0.51778  -0.50964  -0.50322
 Alpha  occ. eigenvalues --   -0.50270  -0.49391  -0.48915  -0.48714  -0.48468
 Alpha  occ. eigenvalues --   -0.48164  -0.47765  -0.47586  -0.47177  -0.46979
 Alpha  occ. eigenvalues --   -0.46446  -0.46157  -0.46143  -0.45967  -0.45890
 Alpha  occ. eigenvalues --   -0.45676  -0.45473  -0.45381  -0.44893  -0.44854
 Alpha  occ. eigenvalues --   -0.44693  -0.44446  -0.44154  -0.43956  -0.43896
 Alpha  occ. eigenvalues --   -0.43119  -0.42890  -0.42807  -0.42722  -0.42548
 Alpha  occ. eigenvalues --   -0.42461  -0.42235  -0.42020  -0.41840  -0.41778
 Alpha  occ. eigenvalues --   -0.41267  -0.41075  -0.40993  -0.40960  -0.40745
 Alpha  occ. eigenvalues --   -0.40617  -0.40496  -0.40377  -0.40181  -0.39713
 Alpha  occ. eigenvalues --   -0.39613  -0.39435  -0.39099  -0.38856  -0.38704
 Alpha  occ. eigenvalues --   -0.38628  -0.38138  -0.37994  -0.37870  -0.37549
 Alpha  occ. eigenvalues --   -0.37505  -0.37149  -0.37128  -0.36962  -0.36912
 Alpha  occ. eigenvalues --   -0.36826  -0.36432  -0.36075  -0.35875  -0.35792
 Alpha  occ. eigenvalues --   -0.35511  -0.35306  -0.35080  -0.35023  -0.34430
 Alpha  occ. eigenvalues --   -0.34279  -0.34263  -0.33749  -0.33738  -0.33422
 Alpha  occ. eigenvalues --   -0.33060  -0.32871  -0.32857  -0.32366  -0.32250
 Alpha  occ. eigenvalues --   -0.31969  -0.31795  -0.31635  -0.31418  -0.31026
 Alpha  occ. eigenvalues --   -0.30930  -0.30779  -0.30490  -0.30069  -0.29121
 Alpha  occ. eigenvalues --   -0.29099  -0.28897  -0.28444  -0.28209  -0.27982
 Alpha  occ. eigenvalues --   -0.27195  -0.26857  -0.26778  -0.26211  -0.26115
 Alpha  occ. eigenvalues --   -0.25004  -0.23896  -0.23591  -0.23528  -0.19984
 Alpha  occ. eigenvalues --   -0.19616
 Alpha virt. eigenvalues --   -0.10784  -0.08329  -0.04690  -0.02882  -0.00360
 Alpha virt. eigenvalues --   -0.00268   0.00560   0.01244   0.02175   0.03179
 Alpha virt. eigenvalues --    0.03494   0.04108   0.04413   0.04487   0.04715

 Mulliken charges:
               1
     1  C    0.147925
     2  C   -0.143242
     3  C   -0.035504
     4  C   -0.081087
     5  N   -0.175446
     6  C   -0.082549
     7  C   -0.040468
     8  C   -0.097675
     9  C    0.021863
    10  C    0.074152
    11  C    0.099739
    12  C   -0.009230
    13  C    0.136387
    14  O   -0.211801
    15  O   -0.297807
    16  N   -0.064369
    17  C    0.147523
    18  C   -0.182074
    19  C    0.097943
    20  C    0.109622
    21  C    0.046278
    22  C   -0.151464
    23  C    0.000928
    24  N   -0.183763
    25  C    0.020106
    26  C   -0.158613
    27  C   -0.031080
    28  C    0.057640
    29  C    0.288870
    30  C   -0.032818
    31  C    0.083967
    32  N   -0.054445
    33  C    0.074518
    34  C   -0.098468
    35  C   -0.004529
    36  C    0.017932
    37  C    0.113416
    38  C    0.109784
    39  O   -0.176174
    40  C   -0.129326
    41  C    0.178522
    42  O   -0.236059
    43  O   -0.306488
    44  C    0.110333
    45  C    0.354840
    46  C   -0.135691
    47  C   -0.127385
    48  C    0.000805
    49  C    0.061140
    50  C    0.109497
    51  C    0.010142
    52  C   -0.103066
    53  C   -0.048723
    54  C   -0.017537
    55  C    0.006827
    56  C    0.067588
    57  C    0.009529
    58  C    0.038893
    59  C    0.059401
    60  C    0.026475
    61  C    0.020632
    62  C   -0.042556
    63  C   -0.037934
    64  C    0.009961
    65  H    0.029123
    66  H   -0.054539
    67  H    0.001307
    68  H    0.050093
    69  H   -0.000475
    70  H    0.038850
    71  H   -0.004543
    72  H    0.009612
    73  H    0.043698
    74  H    0.028817
    75  H    0.035034
    76  H    0.018070
    77  H    0.037216
    78  H    0.060658
    79  H    0.030043
    80  H    0.036868
    81  H    0.074215
    82  H   -0.033224
    83  H   -0.014369
    84  H   -0.005543
    85  H   -0.089713
    86  H    0.013215
    87  H   -0.009179
    88  H   -0.000900
    89  H   -0.056786
    90  H    0.013071
    91  H   -0.008184
    92  H    0.022813
    93  H    0.027747
    94  H    0.056577
    95  H    0.043760
    96  H    0.064750
    97  H    0.038524
    98  H    0.013813
    99  H   -0.044275
   100  H    0.007286
   101  H    0.030659
   102  H    0.032405
   103  H    0.037649
   104  H   -0.013407
   105  H   -0.019731
   106  H    0.006903
   107  H   -0.004164
   108  H   -0.011732
   109  H   -0.024657
   110  H    0.011044
   111  H    0.019274
   112  H    0.033183
   113  H    0.014831
   114  H    0.001779
   115  H    0.007281
   116  H    0.004853
   117  H   -0.004046
   118  H   -0.004978
   119  H    0.011031
   120  H   -0.031753
   121  H   -0.055312
   122  H    0.003532
   123  H   -0.013188
   124  H   -0.020132
   125  H   -0.039100
   126  H    0.009294
   127  H   -0.014281
   128  H   -0.034640
   129  H    0.000504
   130  H    0.019694
   131  H    0.016023
   132  H    0.025436
   133  H    0.014554
   134  H    0.000677
   135  H   -0.009096
   136  H    0.001491
   137  H    0.109372
   138  H    0.199516
 Sum of Mulliken charges =   0.00000

 Dipole moment (field-independent basis, Debye):
    X=              0.1151    Y=              5.2173    Z=              0.2213  Tot=              5.2232
 Quadrupole moment (field-independent basis, Debye-Ang):
   XX=           -336.1772   YY=           -380.8004   ZZ=           -398.5892
   XY=            -26.0979   XZ=              7.8454   YZ=             -1.2653

 Normal termination of Gaussian 09 at Sun Aug  4 07:18:31 2019.
