 Gaussian 09, Revision D.01,
 Gaussian 09:  ES64L-G09RevD.01 24-Apr-2013

 --------------------------
 # td=(NStates=1) B3LYP/SVP
 --------------------------

 --
 TD
 --
 Symbolic Z-matrix:
 Charge =  0 Multiplicity = 1

                         Standard orientation:
 ---------------------------------------------------------------------
 Center     Atomic      Atomic             Coordinates (Angstroms)
 Number     Number       Type             X           Y           Z
 ---------------------------------------------------------------------
      1          6           0       -5.044869   -1.955573    0.516873
      2          6           0       -4.865615    2.730804    1.495855
      3          6           0       -9.354242    3.208123   -0.190510
      4          6           0       -9.816410   -1.592898   -0.875841
      5          7           0       -5.205152    0.427961    0.925472
      6          6           0       -4.536274   -0.723555    0.866787
      7          6           0       -2.991434   -0.565452    1.229754
      8          6           0       -3.063937    0.924695    1.849633
      9          6           0       -4.435601    1.465030    1.354376
     10          6           0       -2.987146    1.004719    3.324246
     11          6           0       -2.063084   -0.772689   -0.001915
     12          6           0       -0.583903   -0.674520    0.522510
     13          6           0        0.381111   -0.793707   -0.653577
     14          8           0        0.100900   -1.227899   -1.782887
     15          8           0        1.590394   -0.563298   -0.310792
     16          7           0       -7.079849    2.656935    0.492658
     17          6           0       -5.962735    3.354347    1.023653
     18          6           0       -6.420936    4.729555    1.122152
     19          6           0       -7.572771    4.908412    0.548846
     20          6           0       -8.159141    3.556764    0.109465
     21          6           0       -5.544388    5.777054    1.664756
     22          6           0       -8.306337    6.192551    0.401987
     23          6           0       -9.034248    6.572512   -0.650925
     24          7           0       -9.257516    0.731452   -0.488550
     25          6           0       -9.882763    1.927846   -0.580195
     26          6           0      -11.301463    1.659359   -0.961388
     27          6           0      -11.375971    0.310952   -1.220077
     28          6           0      -10.155195   -0.239231   -0.873056
     29          6           0      -12.328416    2.765448   -1.317663
     30          6           0      -12.690748   -0.375663   -1.791870
     31          6           0      -12.619070   -0.539773   -3.304523
     32          7           0       -7.494153   -1.347448   -0.234968
     33          6           0       -8.538669   -2.066715   -0.638306
     34          6           0       -8.237339   -3.527863   -0.620340
     35          6           0       -6.768900   -3.467332   -0.113586
     36          6           0       -6.445241   -2.123243   -0.009377
     37          6           0       -8.878317   -4.797480   -1.036379
     38          6           0       -5.617592   -4.322901    0.079490
     39          8           0       -5.464052   -5.523506    0.077069
     40          6           0       -4.413305   -3.332068    0.436463
     41          6           0       -3.838196   -3.751441    1.773412
     42          8           0       -4.166954   -3.336581    2.865744
     43          8           0       -2.869321   -4.714553    1.680274
     44          6           0       -2.373387   -5.334253    2.880997
     45          6           0        2.719370   -0.747334   -1.364567
     46          6           0        4.010837   -0.686549   -0.634399
     47          6           0        4.953830    0.289079   -0.856766
     48          6           0        4.749926    1.658447   -1.830848
     49          6           0        6.279854    0.248131   -0.030979
     50          6           0        7.550185   -0.079452   -0.851586
     51          6           0        8.810978   -0.188991   -0.089320
     52          6           0        9.980989   -0.469558   -1.016593
     53          6           0       10.153753   -1.921306   -1.798933
     54          6           0       11.403055   -0.391472   -0.011182
     55          6           0       12.742307   -0.472825   -0.705451
     56          6           0       13.851496   -0.206595    0.333786
     57          6           0       15.233974   -0.294586   -0.307180
     58          6           0       15.623477   -1.700610   -0.682551
     59          6           0       16.283331    0.456333    0.537082
     60          6           0       17.675342    0.566328   -0.016919
     61          6           0       18.619001    1.382469    0.703509
     62          6           0       20.042069    1.431924    0.079280
     63          6           0       20.171675    2.063071   -1.263681
     64          6           0       20.939952    2.258518    1.122422
     65          1           0       -4.258828    3.379346    2.081275
     66          1           0      -10.183312    3.978977   -0.462516
     67          1           0      -10.599262   -2.127600   -1.062356
     68          1           0       -2.625857   -1.324393    1.951301
     69          1           0       -2.340990    1.686334    1.447576
     70          1           0       -2.070709    0.707457    3.547726
     71          1           0       -3.090738    2.081314    3.576867
     72          1           0       -3.793006    0.496034    3.642471
     73          1           0       -2.244916   -1.822174   -0.423313
     74          1           0       -2.318391    0.008320   -0.753107
     75          1           0       -0.400601    0.316605    1.119694
     76          1           0       -0.401060   -1.542909    1.189731
     77          1           0       -4.595576    5.908468    1.021527
     78          1           0       -5.977682    6.668192    1.753689
     79          1           0       -5.425408    5.638437    2.702045
     80          1           0       -8.207275    6.997730    1.386295
     81          1           0       -9.189769    6.015855   -1.618147
     82          1           0       -9.651300    7.498142   -0.521148
     83          1           0      -12.550481    3.375248   -0.475631
     84          1           0      -11.826936    3.466703   -1.993847
     85          1           0      -13.328370    2.507010   -1.514642
     86          1           0      -12.721859   -1.415822   -1.353527
     87          1           0      -13.611676    0.041055   -1.471231
     88          1           0      -12.609280    0.460329   -3.941160
     89          1           0      -11.794494   -1.085117   -3.611423
     90          1           0      -13.475874   -0.964275   -3.721615
     91          1           0       -9.775071   -4.789693   -0.360564
     92          1           0       -9.236585   -4.801715   -2.071158
     93          1           0       -8.152267   -5.546183   -1.009265
     94          1           0       -3.768379   -3.478403   -0.414652
     95          1           0       -1.734460   -6.283746    2.665391
     96          1           0       -1.987240   -4.423767    3.418565
     97          1           0       -3.201901   -5.650163    3.634158
     98          1           0        2.354867   -1.732138   -1.902137
     99          1           0        2.535726   -0.028354   -2.262454
    100          1           0        4.334920   -1.545963    0.154438
    101          1           0        4.751220    2.593129   -1.082411
    102          1           0        5.545983    1.548510   -2.795402
    103          1           0        3.659224    1.801456   -2.110998
    104          1           0        6.173444    1.397339    0.395181
    105          1           0        6.150783   -0.517324    0.845365
    106          1           0        7.504768   -1.130537   -1.645371
    107          1           0        7.615429    0.701573   -1.555911
    108          1           0        8.768375    0.764481    0.372114
    109          1           0        8.708878   -1.092779    0.732942
    110          1           0       10.126058    0.414912   -1.850811
    111          1           0        9.179592   -1.935174   -2.531793
    112          1           0       10.901764   -2.038278   -2.465890
    113          1           0        9.863988   -2.672637   -1.075389
    114          1           0       11.225277    0.588083    0.765811
    115          1           0       11.311611   -1.215598    0.842948
    116          1           0       12.896262   -1.363138   -1.306823
    117          1           0       12.787793    0.548829   -1.612570
    118          1           0       13.696464    0.755210    0.736966
    119          1           0       13.896864   -0.987054    1.303273
    120          1           0       14.996773    0.199236   -1.455209
    121          1           0       14.992548   -2.229765   -1.526231
    122          1           0       16.545350   -1.855729   -1.254118
    123          1           0       15.842431   -2.154203    0.374533
    124          1           0       15.976728    1.542218    0.752555
    125          1           0       16.182861   -0.158629    1.420223
    126          1           0       17.899748   -0.558559   -0.306157
    127          1           0       17.445652    0.890519   -1.091246
    128          1           0       18.165478    2.456082    0.514410
    129          1           0       18.730002    1.018979    1.871886
    130          1           0       20.749325    0.445906    0.084503
    131          1           0       19.629825    3.091036   -1.307381
    132          1           0       21.118638    2.200390   -1.572948
    133          1           0       19.658089    1.304200   -1.886597
    134          1           0       21.454928    1.622021    2.162979
    135          1           0       21.912667    2.581458    0.687239
    136          1           0       20.364618    3.198881    1.169869
    137          1           0       -7.061836    1.703582    0.213308
    138          1           0       -7.527807   -0.444405   -0.320374
 ---------------------------------------------------------------------

 SCF Done:  E(RB3LYP) =  -2732.96919868     A.U. after   17 cycles

 Excitation energies and oscillator strengths:

 Excited State   1:      Singlet-A      2.1917 eV  565.71 nm  f=0.1040  <S**2>=0.000
     235 -> 237       -0.11399
     235 -> 238       -0.35455
     236 -> 237        0.58860
     236 -> 238       -0.11128
 This state for optimization and/or second-order correction.
 Total Energy, E(TD-HF/TD-KS) =  -2732.88865659
 Copying the excited state density for this state as the 1-particle RhoCI density.

 The electronic state is 1-A.
 Alpha  occ. eigenvalues --  -19.16979 -19.16387 -19.11759 -19.11555 -19.10038
 Alpha  occ. eigenvalues --  -14.36855 -14.35922 -14.31442 -14.29092 -10.31082
 Alpha  occ. eigenvalues --  -10.29981 -10.27436 -10.26440 -10.25048 -10.24228
 Alpha  occ. eigenvalues --  -10.23649 -10.23582 -10.23536 -10.23464 -10.22797
 Alpha  occ. eigenvalues --  -10.22617 -10.22546 -10.22415 -10.22246 -10.22233
 Alpha  occ. eigenvalues --  -10.21942 -10.21240 -10.20986 -10.20900 -10.20819
 Alpha  occ. eigenvalues --  -10.20810 -10.20757 -10.20719 -10.20551 -10.20424
 Alpha  occ. eigenvalues --  -10.20206 -10.20178 -10.20164 -10.19970 -10.19921
 Alpha  occ. eigenvalues --  -10.19903 -10.19899 -10.19841 -10.19742 -10.19700
 Alpha  occ. eigenvalues --  -10.19611 -10.19596 -10.19589 -10.19497 -10.19338
 Alpha  occ. eigenvalues --  -10.19316 -10.19306 -10.19139 -10.18858 -10.18787
 Alpha  occ. eigenvalues --  -10.18347 -10.18332 -10.18325 -10.18211 -10.18186
 Alpha  occ. eigenvalues --  -10.17739 -10.17576 -10.17507 -10.16461  -1.08884
 Alpha  occ. eigenvalues --   -1.07857  -1.02434  -1.00819  -0.99016  -0.97088
 Alpha  occ. eigenvalues --   -0.95688  -0.93477  -0.92922  -0.84490  -0.82708
 Alpha  occ. eigenvalues --   -0.82421  -0.81794  -0.81713  -0.80380  -0.80227
 Alpha  occ. eigenvalues --   -0.80070  -0.79537  -0.79211  -0.78163  -0.77520
 Alpha  occ. eigenvalues --   -0.76762  -0.76280  -0.75974  -0.74709  -0.74278
 Alpha  occ. eigenvalues --   -0.73654  -0.73178  -0.72387  -0.71737  -0.71171
 Alpha  occ. eigenvalues --   -0.70444  -0.69649  -0.68675  -0.67831  -0.67537
 Alpha  occ. eigenvalues --   -0.67378  -0.66577  -0.66387  -0.65680  -0.64693
 Alpha  occ. eigenvalues --   -0.64304  -0.63644  -0.62127  -0.61695  -0.60882
 Alpha  occ. eigenvalues --   -0.59922  -0.58067  -0.57913  -0.57833  -0.56710
 Alpha  occ. eigenvalues --   -0.56493  -0.55773  -0.55707  -0.54911  -0.54845
 Alpha  occ. eigenvalues --   -0.54497  -0.53941  -0.53216  -0.53168  -0.52706
 Alpha  occ. eigenvalues --   -0.52014  -0.51648  -0.51443  -0.50865  -0.50147
 Alpha  occ. eigenvalues --   -0.49468  -0.49004  -0.48499  -0.48340  -0.47908
 Alpha  occ. eigenvalues --   -0.47803  -0.47590  -0.47407  -0.47188  -0.46798
 Alpha  occ. eigenvalues --   -0.46403  -0.46003  -0.45912  -0.45779  -0.45693
 Alpha  occ. eigenvalues --   -0.45636  -0.45498  -0.44940  -0.44874  -0.44430
 Alpha  occ. eigenvalues --   -0.44289  -0.44038  -0.43832  -0.43818  -0.43741
 Alpha  occ. eigenvalues --   -0.43257  -0.43099  -0.43014  -0.42756  -0.42637
 Alpha  occ. eigenvalues --   -0.42629  -0.42184  -0.41921  -0.41753  -0.41576
 Alpha  occ. eigenvalues --   -0.41465  -0.41226  -0.41089  -0.40880  -0.40624
 Alpha  occ. eigenvalues --   -0.40342  -0.39856  -0.39604  -0.39347  -0.39258
 Alpha  occ. eigenvalues --   -0.38950  -0.38719  -0.38663  -0.38485  -0.38184
 Alpha  occ. eigenvalues --   -0.38144  -0.37877  -0.37756  -0.37518  -0.37379
 Alpha  occ. eigenvalues --   -0.37268  -0.37163  -0.36981  -0.36610  -0.36334
 Alpha  occ. eigenvalues --   -0.36313  -0.36137  -0.35718  -0.35549  -0.35164
 Alpha  occ. eigenvalues --   -0.35083  -0.34751  -0.34638  -0.34508  -0.34356
 Alpha  occ. eigenvalues --   -0.34157  -0.34076  -0.33937  -0.33816  -0.33651
 Alpha  occ. eigenvalues --   -0.33198  -0.32967  -0.32567  -0.32326  -0.32218
 Alpha  occ. eigenvalues --   -0.31968  -0.31841  -0.31351  -0.31315  -0.30897
 Alpha  occ. eigenvalues --   -0.30857  -0.30101  -0.29416  -0.29241  -0.28936
 Alpha  occ. eigenvalues --   -0.28799  -0.28622  -0.28533  -0.27340  -0.27202
 Alpha  occ. eigenvalues --   -0.26886  -0.26710  -0.25887  -0.25665  -0.25218
 Alpha  occ. eigenvalues --   -0.24923  -0.24821  -0.24599  -0.22171  -0.19917
 Alpha  occ. eigenvalues --   -0.19077
 Alpha virt. eigenvalues --   -0.09665  -0.08018  -0.03884  -0.01734  -0.01688
 Alpha virt. eigenvalues --    0.00318   0.01032   0.01410   0.02729   0.02909
 Alpha virt. eigenvalues --    0.03214   0.03570   0.03659   0.03794   0.04431

 Mulliken charges:
               1
     1  C    0.016163
     2  C   -0.050917
     3  C   -0.072574
     4  C    0.034995
     5  N   -0.159482
     6  C   -0.054253
     7  C   -0.069430
     8  C   -0.075347
     9  C   -0.000477
    10  C    0.220040
    11  C    0.049367
    12  C   -0.010863
    13  C    0.168187
    14  O   -0.296769
    15  O   -0.284433
    16  N   -0.151293
    17  C    0.130734
    18  C   -0.156642
    19  C    0.054228
    20  C    0.176823
    21  C    0.214868
    22  C   -0.102072
    23  C   -0.047835
    24  N   -0.243065
    25  C   -0.035785
    26  C   -0.149413
    27  C   -0.071625
    28  C    0.014851
    29  C    0.148403
    30  C    0.090400
    31  C    0.040443
    32  N    0.174431
    33  C    0.069688
    34  C   -0.142977
    35  C   -0.069105
    36  C    0.027180
    37  C    0.140257
    38  C    0.024463
    39  O   -0.171733
    40  C    0.015153
    41  C    0.208718
    42  O   -0.229231
    43  O   -0.319024
    44  C    0.143637
    45  C    0.172756
    46  C   -0.050966
    47  C   -0.138667
    48  C   -0.049482
    49  C    0.006008
    50  C   -0.019258
    51  C    0.081741
    52  C   -0.133625
    53  C    0.050217
    54  C   -0.060137
    55  C    0.002680
    56  C    0.059304
    57  C   -0.146237
    58  C    0.003030
    59  C    0.044780
    60  C   -0.016454
    61  C    0.073009
    62  C   -0.164331
    63  C    0.078916
    64  C   -0.025718
    65  H   -0.046888
    66  H    0.000429
    67  H   -0.129936
    68  H    0.004717
    69  H   -0.011764
    70  H   -0.027499
    71  H   -0.005038
    72  H   -0.001091
    73  H    0.035467
    74  H    0.014108
    75  H    0.043678
    76  H    0.038858
    77  H    0.049779
    78  H   -0.059770
    79  H   -0.003187
    80  H    0.051155
    81  H    0.046194
    82  H    0.032924
    83  H   -0.012208
    84  H    0.022891
    85  H   -0.010601
    86  H   -0.005521
    87  H   -0.009183
    88  H    0.010560
    89  H   -0.006308
    90  H   -0.011435
    91  H    0.045656
    92  H    0.024318
    93  H    0.029671
    94  H    0.049951
    95  H    0.066865
    96  H    0.027688
    97  H    0.036555
    98  H    0.057818
    99  H    0.048873
   100  H    0.037719
   101  H    0.047851
   102  H    0.085640
   103  H    0.032804
   104  H    0.033545
   105  H    0.020449
   106  H    0.015274
   107  H   -0.020049
   108  H   -0.008103
   109  H    0.019521
   110  H    0.018616
   111  H    0.004488
   112  H    0.011607
   113  H    0.018544
   114  H    0.007976
   115  H    0.008353
   116  H    0.010598
   117  H    0.011026
   118  H   -0.014460
   119  H    0.009256
   120  H   -0.012560
   121  H    0.025291
   122  H    0.008371
   123  H    0.011769
   124  H   -0.002504
   125  H   -0.016818
   126  H   -0.009110
   127  H   -0.003071
   128  H    0.012794
   129  H    0.034008
   130  H    0.014685
   131  H    0.009953
   132  H   -0.015667
   133  H    0.017935
   134  H    0.034560
   135  H   -0.004313
   136  H   -0.000255
   137  H    0.128969
   138  H    0.051325
 Sum of Mulliken charges =   0.00000

 Dipole moment (field-independent basis, Debye):
    X=              2.5075    Y=              5.4778    Z=             -0.6343  Tot=              6.0577
 Quadrupole moment (field-independent basis, Debye-Ang):
   XX=           -338.3756   YY=           -378.9998   ZZ=           -396.4477
   XY=            -29.8482   XZ=              4.1439   YZ=              3.1999

 Normal termination of Gaussian 09 at Wed Jul 31 17:23:42 2019.
