 Gaussian 09, Revision D.01,
 Gaussian 09:  ES64L-G09RevD.01 24-Apr-2013

 ------------------------------
 #n B3LYP/6-31G(d,p) Opt nosymm
 ------------------------------

 --------------
 AlQ3S0Geom.com
 --------------
 Symbolic Z-matrix:
 Charge =  0 Multiplicity = 1

 SCF Done:  E(RB3LYP) =  -1672.31495584     A.U. after   17 cycles
 SCF Done:  E(RB3LYP) =  -1672.35365163     A.U. after   14 cycles
 SCF Done:  E(RB3LYP) =  -1672.37915311     A.U. after   14 cycles
 SCF Done:  E(RB3LYP) =  -1672.38293585     A.U. after   12 cycles
 SCF Done:  E(RB3LYP) =  -1672.38467625     A.U. after   13 cycles
 SCF Done:  E(RB3LYP) =  -1672.38485307     A.U. after   11 cycles
 SCF Done:  E(RB3LYP) =  -1672.38490357     A.U. after   11 cycles
 SCF Done:  E(RB3LYP) =  -1672.38492463     A.U. after   10 cycles
 SCF Done:  E(RB3LYP) =  -1672.38493232     A.U. after   10 cycles
 SCF Done:  E(RB3LYP) =  -1672.38493319     A.U. after    7 cycles
 SCF Done:  E(RB3LYP) =  -1672.38493374     A.U. after    8 cycles
 SCF Done:  E(RB3LYP) =  -1672.38493398     A.U. after    8 cycles
 SCF Done:  E(RB3LYP) =  -1672.38493405     A.U. after    7 cycles
 Optimization completed.
    -- Stationary point found.

                          Input orientation:
 ---------------------------------------------------------------------
 Center     Atomic      Atomic             Coordinates (Angstroms)
 Number     Number       Type             X           Y           Z
 ---------------------------------------------------------------------
      1         13           0       -0.617746   -1.111817    0.334460
      2          8           0        0.709534   -2.389911    0.158501
      3          8           0       -2.021754   -2.099933   -0.357871
      4          8           0       -0.986832   -1.361818    2.131162
      5          6           0       -0.259619   -0.699356    2.997335
      6          6           0       -0.367611   -0.806249    4.383616
      7          6           0        0.473380   -0.051906    5.227053
      8          6           0        1.432826    0.819624    4.741160
      9          6           0        1.579310    0.967820    3.340911
     10          6           0        0.725810    0.212525    2.484875
     11          6           0        2.516373    1.816377    2.699986
     12          6           0        2.564960    1.878843    1.322707
     13          6           0        1.673300    1.096404    0.560482
     14          7           0        0.780537    0.293126    1.124694
     15          6           0        1.337439   -2.457583   -0.990057
     16          6           0        2.320970   -3.392386   -1.311991
     17          6           0        2.929233   -3.381923   -2.583790
     18          6           0        2.594735   -2.464455   -3.564828
     19          6           0        1.604387   -1.491879   -3.286306
     20          6           0        0.992351   -1.494392   -1.998961
     21          6           0        1.157064   -0.495614   -4.189769
     22          6           0        0.183134    0.401907   -3.803803
     23          6           0       -0.358014    0.322907   -2.504136
     24          7           0        0.037615   -0.593412   -1.629696
     25          6           0       -3.169903   -1.488942   -0.520476
     26          6           0       -4.341558   -2.092258   -0.976760
     27          6           0       -5.527789   -1.342185   -1.109980
     28          6           0       -5.598084    0.006032   -0.804182
     29          6           0       -3.231813   -0.087112   -0.210463
     30          6           0       -4.434812    0.666259   -0.340441
     31          6           0       -4.356374    2.036677    0.012629
     32          6           0       -3.162843    2.571175    0.451863
     33          6           0       -2.023589    1.745094    0.541322
     34          7           0       -2.057474    0.458904    0.216813
     35          1           0       -4.324003   -3.149524   -1.217946
     36          1           0       -6.421005   -1.849926   -1.464378
     37          1           0       -6.525576    0.559413   -0.910734
     38          1           0       -5.244676    2.658406   -0.063682
     39          1           0       -3.083848    3.616280    0.730906
     40          1           0       -1.072084    2.138725    0.882418
     41          1           0       -1.102871   -1.486947    4.798714
     42          1           0        0.361576   -0.166998    6.301996
     43          1           0        2.071580    1.384279    5.412739
     44          1           0        3.195552    2.412663    3.303800
     45          1           0        3.277804    2.518673    0.813957
     46          1           0        1.688782    1.125722   -0.523768
     47          1           0        2.600712   -4.131711   -0.569418
     48          1           0        3.688152   -4.129873   -2.797872
     49          1           0        3.074309   -2.481753   -4.538256
     50          1           0       -1.124033    1.016370   -2.173975
     51          1           0        1.586194   -0.449114   -5.187340
     52          1           0       -0.175496    1.168301   -4.482321
 ---------------------------------------------------------------------

 Alpha  occ. eigenvalues --  -56.04179 -19.10955 -19.10952 -19.10950 -14.37044
 Alpha  occ. eigenvalues --  -14.37041 -14.37040 -10.24412 -10.24410 -10.24409
 Alpha  occ. eigenvalues --  -10.23654 -10.23648 -10.23646 -10.22527 -10.22523
 Alpha  occ. eigenvalues --  -10.22520 -10.22072 -10.22069 -10.22068 -10.21206
 Alpha  occ. eigenvalues --  -10.21203 -10.21200 -10.20946 -10.20941 -10.20940
 Alpha  occ. eigenvalues --  -10.19115 -10.19111 -10.19110 -10.18091 -10.18087
 Alpha  occ. eigenvalues --  -10.18087 -10.17295 -10.17290 -10.17289  -4.11375
 Alpha  occ. eigenvalues --   -2.66818  -2.66747  -2.66747  -1.01095  -1.00070
 Alpha  occ. eigenvalues --   -1.00063  -0.96221  -0.95901  -0.95896  -0.84481
 Alpha  occ. eigenvalues --   -0.84262  -0.84259  -0.80923  -0.80907  -0.80905
 Alpha  occ. eigenvalues --   -0.75691  -0.75685  -0.75682  -0.72166  -0.71869
 Alpha  occ. eigenvalues --   -0.71865  -0.65215  -0.65034  -0.65032  -0.64047
 Alpha  occ. eigenvalues --   -0.64016  -0.64013  -0.59300  -0.58896  -0.58893
 Alpha  occ. eigenvalues --   -0.54541  -0.53476  -0.53473  -0.52601  -0.51855
 Alpha  occ. eigenvalues --   -0.51853  -0.51583  -0.50757  -0.50754  -0.47416
 Alpha  occ. eigenvalues --   -0.46118  -0.46115  -0.45250  -0.44774  -0.44618
 Alpha  occ. eigenvalues --   -0.44615  -0.43713  -0.43710  -0.43562  -0.43144
 Alpha  occ. eigenvalues --   -0.43139  -0.42313  -0.41823  -0.41819  -0.41324
 Alpha  occ. eigenvalues --   -0.41114  -0.41109  -0.38255  -0.37305  -0.37302
 Alpha  occ. eigenvalues --   -0.37067  -0.36231  -0.36230  -0.35818  -0.35815
 Alpha  occ. eigenvalues --   -0.35813  -0.34043  -0.33490  -0.33486  -0.32500
 Alpha  occ. eigenvalues --   -0.31056  -0.31049  -0.29448  -0.28827  -0.28826
 Alpha  occ. eigenvalues --   -0.28265  -0.27175  -0.27170  -0.25567  -0.25307
 Alpha  occ. eigenvalues --   -0.25304  -0.19225  -0.19220  -0.19161
 Alpha virt. eigenvalues --   -0.06244  -0.06242  -0.05871  -0.02358  -0.01618
 Alpha virt. eigenvalues --   -0.01614   0.03169   0.03677   0.03681   0.08352
 Alpha virt. eigenvalues --    0.08974   0.08977   0.08984   0.09286   0.09289

 Mulliken charges:
               1
     1  Al   1.022350
     2  O   -0.638050
     3  O   -0.637943
     4  O   -0.638044
     5  C    0.448221
     6  C   -0.149188
     7  C   -0.078057
     8  C   -0.167601
     9  C    0.161297
    10  C    0.185806
    11  C   -0.092429
    12  C   -0.124990
    13  C    0.102640
    14  N   -0.571419
    15  C    0.448128
    16  C   -0.149167
    17  C   -0.078128
    18  C   -0.167478
    19  C    0.161346
    20  C    0.186018
    21  C   -0.092472
    22  C   -0.124877
    23  C    0.102586
    24  N   -0.571679
    25  C    0.448167
    26  C   -0.149131
    27  C   -0.078144
    28  C   -0.167528
    29  C    0.186016
    30  C    0.161285
    31  C   -0.092393
    32  C   -0.125022
    33  C    0.102458
    34  N   -0.571397
    35  H    0.097280
    36  H    0.086900
    37  H    0.076809
    38  H    0.104862
    39  H    0.100734
    40  H    0.116294
    41  H    0.097284
    42  H    0.086906
    43  H    0.076844
    44  H    0.104889
    45  H    0.100771
    46  H    0.116391
    47  H    0.097271
    48  H    0.086900
    49  H    0.076811
    50  H    0.116281
    51  H    0.104874
    52  H    0.100717
 Sum of Mulliken charges =   0.00000

 Dipole moment (field-independent basis, Debye):
    X=              1.2845    Y=              7.2953    Z=             -2.6988  Tot=              7.8839
 Quadrupole moment (field-independent basis, Debye-Ang):
   XX=           -178.8662   YY=           -193.4822   ZZ=           -179.0142
   XY=             -5.9406   XZ=              2.1166   YZ=              5.4760

 Normal termination of Gaussian 09 at Wed Jan 23 17:32:08 2019.
