 Gaussian 16, Revision A.03,
 Gaussian 16:  ES64L-G16RevA.03 25-Dec-2016

 --------------------------
 # td=(NStates=1) B3LYP/SVP
 --------------------------

 --
 TD
 --
 Symbolic Z-matrix:
 Charge =  0 Multiplicity = 1

                         Standard orientation:
 ---------------------------------------------------------------------
 Center     Atomic      Atomic             Coordinates (Angstroms)
 Number     Number       Type             X           Y           Z
 ---------------------------------------------------------------------
      1          8           0       -3.176864   -1.545780   -2.823592
      2          8           0        2.788771    3.445260    2.934032
      3          8           0        3.793956    1.686719    4.109259
      4          8           0        7.794762   -1.657994   -0.744489
      5          8           0        6.551037   -3.283799   -1.675031
      6          8           0       -2.814529    1.629663    1.103875
      7          7           0       -0.302322   -2.428518    1.052920
      8          7           0       -2.746224   -1.163991   -0.604487
      9          7           0        1.147351    0.011711   -0.753596
     10          7           0       -1.080774    1.382718   -0.450161
     11          6           0       -3.388805   -1.240412    0.779858
     12          6           0       -2.685251   -2.296432    1.681070
     13          6           0       -1.285334   -1.964126    1.902011
     14          6           0       -0.627591   -1.074267    2.811098
     15          6           0        0.795064   -1.104375    2.512855
     16          6           0        0.950711   -1.939931    1.379471
     17          6           0       -4.717296   -1.780289    0.209058
     18          6           0        1.706779   -0.243211    3.219497
     19          6           0       -4.927393   -1.974218   -1.118534
     20          6           0        2.038841   -1.927179    0.418827
     21          6           0        2.083771   -0.975577   -0.552925
     22          6           0       -3.574001   -1.618197   -1.654501
     23          6           0        3.010175   -0.794642   -1.642576
     24          6           0       -1.284225   -0.367456    3.843650
     25          6           0       -5.768920   -2.039189    1.369485
     26          6           0        2.671461    0.325684   -2.349658
     27          6           0        1.682808    1.230266    2.786952
     28          6           0        1.356964    0.826033   -1.749077
     29          6           0        4.209853   -1.684268   -1.868467
     30          6           0       -5.914861   -2.549821   -1.965939
     31          6           0        5.451735   -1.309159   -1.088007
     32          6           0        3.238161    0.942048   -3.590711
     33          6           0        0.668361    1.984634   -2.161798
     34          6           0        2.953796    2.106574    3.366936
     35          6           0       -0.565722    2.227768   -1.488897
     36          6           0       -7.040617   -3.160913   -1.527655
     37          6           0        6.577286   -2.218936   -1.254303
     38          6           0       -1.250255    3.506236   -1.344738
     39          6           0       -2.170939    3.412220   -0.394896
     40          6           0       -2.025265    2.076160    0.198243
     41          6           0       -0.851160    4.711694   -2.156239
     42          6           0       -3.142131    4.414987    0.211479
     43          6           0       -1.748670    5.663392   -2.434775
     44          1           0       -3.442900   -0.329084    1.233710
     45          1           0       -2.733619   -3.296642    1.279223
     46          1           0       -3.398072   -2.349143    2.748013
     47          1           0       -0.529188   -2.700032    0.096217
     48          1           0       -2.141416   -0.360808   -0.618628
     49          1           0        1.460377   -0.246033    4.290415
     50          1           0        2.958096   -0.710159    3.186839
     51          1           0        2.851830   -2.851927    0.588602
     52          1           0       -2.064910   -0.866313    4.213315
     53          1           0       -0.523608   -0.194781    4.679783
     54          1           0       -1.799878    0.540930    3.471147
     55          1           0       -5.564802   -1.588934    2.347145
     56          1           0       -5.827494   -3.132193    1.596395
     57          1           0       -6.701376   -1.893684    0.941400
     58          1           0        1.770518    1.500267    1.779557
     59          1           0        0.815886    1.864820    3.107391
     60          1           0        0.211055    0.072213   -0.369785
     61          1           0        4.459249   -1.782912   -3.032317
     62          1           0        3.933959   -2.691081   -1.599609
     63          1           0       -5.633718   -2.662661   -3.127172
     64          1           0        5.125898   -1.393796   -0.031071
     65          1           0        5.680588   -0.274657   -1.443268
     66          1           0        3.887496    0.244467   -4.092458
     67          1           0        3.770369    1.932371   -3.266351
     68          1           0        2.334099    1.448614   -4.370819
     69          1           0        1.305596    2.722219   -2.841009
     70          1           0       -7.389605   -3.120729   -0.519119
     71          1           0       -7.615126   -3.629040   -2.273419
     72          1           0        3.736921    3.693037    3.246773
     73          1           0        0.262457    4.783513   -2.653628
     74          1           0       -4.037666    4.385889   -0.396889
     75          1           0       -3.661404    4.070886    1.044017
     76          1           0       -2.781290    5.391664    0.402124
     77          1           0        8.442026   -2.445707   -0.713093
     78          1           0       -1.413919    6.528164   -2.925503
     79          1           0       -2.933688    5.544696   -2.003842
 ---------------------------------------------------------------------

 SCF Done:  E(RB3LYP) =  -1947.83505899     A.U. after   19 cycles

 Excitation energies and oscillator strengths:

 Excited State   1:      Singlet-A      1.1178 eV 1109.15 nm  f=0.0002  <S**2>=0.000
     155 ->156         0.70357
 This state for optimization and/or second-order correction.
 Total Energy, E(TD-HF/TD-DFT) =  -1947.79397937
 Copying the excited state density for this state as the 1-particle RhoCI density.

 The electronic state is 1-A.
 Alpha  occ. eigenvalues --  -19.18828 -19.17400 -19.14970 -19.14534 -19.11095
 Alpha  occ. eigenvalues --  -19.07845 -14.38818 -14.36827 -14.30894 -14.30807
 Alpha  occ. eigenvalues --  -10.32773 -10.32640 -10.27622 -10.27321 -10.26472
 Alpha  occ. eigenvalues --  -10.26449 -10.26350 -10.24736 -10.23970 -10.23238
 Alpha  occ. eigenvalues --  -10.23143 -10.22922 -10.22476 -10.22434 -10.22088
 Alpha  occ. eigenvalues --  -10.21379 -10.21173 -10.21036 -10.21031 -10.20928
 Alpha  occ. eigenvalues --  -10.20923 -10.20814 -10.20471 -10.20467 -10.20438
 Alpha  occ. eigenvalues --  -10.19990 -10.18842 -10.18491 -10.18413 -10.18036
 Alpha  occ. eigenvalues --  -10.17872 -10.16919 -10.16469  -1.11558  -1.08752
 Alpha  occ. eigenvalues --   -1.02619  -1.01138  -1.00749  -1.00078  -0.99009
 Alpha  occ. eigenvalues --   -0.96532  -0.92699  -0.89466  -0.85068  -0.83118
 Alpha  occ. eigenvalues --   -0.81150  -0.80881  -0.80182  -0.80081  -0.79064
 Alpha  occ. eigenvalues --   -0.77034  -0.75608  -0.75544  -0.74239  -0.73301
 Alpha  occ. eigenvalues --   -0.71416  -0.71097  -0.69963  -0.69409  -0.68257
 Alpha  occ. eigenvalues --   -0.66504  -0.65865  -0.63567  -0.60793  -0.60198
 Alpha  occ. eigenvalues --   -0.60008  -0.58777  -0.57859  -0.56657  -0.56263
 Alpha  occ. eigenvalues --   -0.55468  -0.54969  -0.54254  -0.53277  -0.52826
 Alpha  occ. eigenvalues --   -0.52495  -0.52094  -0.51391  -0.50923  -0.49664
 Alpha  occ. eigenvalues --   -0.49418  -0.49206  -0.48584  -0.47994  -0.47816
 Alpha  occ. eigenvalues --   -0.47553  -0.47327  -0.47151  -0.46461  -0.46215
 Alpha  occ. eigenvalues --   -0.45159  -0.45106  -0.44336  -0.44152  -0.44004
 Alpha  occ. eigenvalues --   -0.43808  -0.43366  -0.43102  -0.42720  -0.42423
 Alpha  occ. eigenvalues --   -0.42240  -0.41973  -0.41799  -0.41319  -0.41016
 Alpha  occ. eigenvalues --   -0.40704  -0.40392  -0.40295  -0.39856  -0.39695
 Alpha  occ. eigenvalues --   -0.39376  -0.39133  -0.38934  -0.38894  -0.38532
 Alpha  occ. eigenvalues --   -0.38222  -0.37623  -0.37334  -0.37233  -0.36386
 Alpha  occ. eigenvalues --   -0.36075  -0.35607  -0.35074  -0.34915  -0.34380
 Alpha  occ. eigenvalues --   -0.34048  -0.33322  -0.33205  -0.32628  -0.32186
 Alpha  occ. eigenvalues --   -0.31305  -0.30697  -0.30178  -0.29200  -0.28527
 Alpha  occ. eigenvalues --   -0.28155  -0.27642  -0.25578  -0.24355  -0.23687
 Alpha  occ. eigenvalues --   -0.23117  -0.23009  -0.22810  -0.22245  -0.19666
 Alpha virt. eigenvalues --   -0.12998  -0.07666  -0.04498  -0.01925  -0.00592
 Alpha virt. eigenvalues --    0.00046   0.00520   0.01129   0.02252   0.02642
 Alpha virt. eigenvalues --    0.03298   0.03579   0.04185   0.04341   0.04645

 Mulliken charges:
               1
     1  O   -0.254150
     2  O   -0.244001
     3  O   -0.196257
     4  O   -0.283828
     5  O   -0.137055
     6  O   -0.282990
     7  N   -0.070148
     8  N   -0.268502
     9  N    0.021374
    10  N   -0.355973
    11  C    0.141863
    12  C    0.131292
    13  C   -0.049622
    14  C   -0.156131
    15  C   -0.030592
    16  C   -0.047198
    17  C   -0.205997
    18  C    0.031687
    19  C    0.020163
    20  C   -0.169901
    21  C    0.170668
    22  C    0.151424
    23  C   -0.074508
    24  C    0.174141
    25  C    0.090348
    26  C   -0.117896
    27  C    0.014288
    28  C    0.036343
    29  C    0.045197
    30  C   -0.065201
    31  C    0.041724
    32  C    0.010737
    33  C   -0.117396
    34  C    0.131196
    35  C    0.161251
    36  C    0.005430
    37  C    0.122683
    38  C   -0.001161
    39  C   -0.172315
    40  C    0.177468
    41  C   -0.054583
    42  C    0.179901
    43  C   -0.039630
    44  H    0.014797
    45  H   -0.022781
    46  H    0.024256
    47  H    0.121757
    48  H    0.135911
    49  H    0.011868
    50  H    0.029622
    51  H    0.072228
    52  H   -0.051798
    53  H    0.002153
    54  H    0.029275
    55  H    0.022879
    56  H    0.017323
    57  H    0.009077
    58  H    0.002668
    59  H    0.047585
    60  H    0.163269
    61  H    0.034607
    62  H    0.003754
    63  H    0.044931
    64  H    0.051044
    65  H    0.043795
    66  H    0.032131
    67  H    0.050349
    68  H    0.066865
    69  H    0.046120
    70  H    0.001744
    71  H    0.009311
    72  H    0.186106
    73  H    0.035367
    74  H    0.013536
    75  H   -0.018706
    76  H    0.028420
    77  H    0.198408
    78  H    0.010300
    79  H    0.067688
 Sum of Mulliken charges =  -0.00000

 Dipole moment (field-independent basis, Debye):
    X=              3.5825    Y=              2.4241    Z=             -0.8178  Tot=              4.4022
 Quadrupole moment (field-independent basis, Debye-Ang):
   XX=           -239.1494   YY=           -238.8854   ZZ=           -265.3956
   XY=              3.3624   XZ=            -22.2087   YZ=            -14.6392

 Normal termination of Gaussian 16 at Wed Jul 24 05:59:00 2019.
