 Gaussian 16, Revision A.03,
 Gaussian 16:  ES64L-G16RevA.03 25-Dec-2016

 --------------------------
 # td=(NStates=1) B3LYP/SVP
 --------------------------

 --
 TD
 --
 Symbolic Z-matrix:
 Charge =  0 Multiplicity = 1

                         Standard orientation:
 ---------------------------------------------------------------------
 Center     Atomic      Atomic             Coordinates (Angstroms)
 Number     Number       Type             X           Y           Z
 ---------------------------------------------------------------------
      1          8           0        5.116454   -0.116159   -3.420811
      2          8           0       -2.881367   -3.072321    3.308733
      3          8           0       -3.360764   -0.859376    3.169546
      4          8           0       -1.530048    7.061558    1.508287
      5          8           0       -0.510567    7.018968   -0.472160
      6          8           0       -1.783240   -3.808821    0.237759
      7          7           0        2.289970    0.902509    0.661978
      8          7           0        4.331984   -0.597990   -1.259385
      9          7           0       -1.888499    0.673514   -0.333881
     10          7           0       -2.583810   -1.779018   -0.424270
     11          6           0        4.667226   -1.234273   -0.056550
     12          6           0        4.298012   -0.366881    1.245865
     13          6           0        2.910807    0.024827    1.544065
     14          6           0        1.971193   -0.549104    2.321624
     15          6           0        0.711559   -0.012455    1.920908
     16          6           0        0.952778    1.085724    0.966925
     17          6           0        6.157662   -1.325592   -0.124986
     18          6           0       -0.641207   -0.199140    2.608847
     19          6           0        6.571449   -0.789955   -1.413820
     20          6           0        0.089973    2.009814    0.297410
     21          6           0       -1.096846    1.816301   -0.254658
     22          6           0        5.274762   -0.476284   -2.233540
     23          6           0       -1.935930    2.909407   -0.917089
     24          6           0        2.044216   -1.580316    3.367447
     25          6           0        7.053814   -2.003521    0.758747
     26          6           0       -3.059644    2.369197   -1.378346
     27          6           0       -1.112714   -1.621194    2.679206
     28          6           0       -2.991308    0.988998   -1.057795
     29          6           0       -1.534663    4.360615   -0.963711
     30          6           0        7.800349   -0.743885   -2.128365
     31          6           0       -1.741604    4.983991    0.378976
     32          6           0       -4.197357    2.937077   -2.099897
     33          6           0       -3.976248   -0.040261   -1.361301
     34          6           0       -2.562046   -1.767657    3.040553
     35          6           0       -3.730060   -1.399535   -1.192412
     36          6           0        9.087774   -0.899443   -1.645633
     37          6           0       -1.196635    6.459474    0.406042
     38          6           0       -4.493113   -2.595654   -1.627152
     39          6           0       -3.929694   -3.674692   -0.947005
     40          6           0       -2.626318   -3.148002   -0.293644
     41          6           0       -5.668911   -2.541714   -2.387932
     42          6           0       -3.986596   -5.172969   -1.264595
     43          6           0       -6.509401   -3.509130   -2.784167
     44          1           0        4.326964   -2.343326   -0.111530
     45          1           0        5.113618    0.614895    1.285216
     46          1           0        4.752301   -0.871847    2.228832
     47          1           0        2.605294    1.414236   -0.014483
     48          1           0        3.368891   -0.709856   -1.579330
     49          1           0       -0.562344    0.013384    3.569254
     50          1           0       -1.376357    0.443025    2.031495
     51          1           0        0.571695    2.936496    0.058785
     52          1           0        3.178124   -1.742353    3.636249
     53          1           0        1.485347   -1.263393    4.285055
     54          1           0        1.723391   -2.746589    2.828105
     55          1           0        6.537389   -2.790893    1.448726
     56          1           0        7.336586   -1.222838    1.514696
     57          1           0        7.926437   -2.616842    0.309510
     58          1           0       -1.133752   -2.125582    1.611778
     59          1           0       -0.528773   -2.326760    3.271842
     60          1           0       -1.548119   -0.272826   -0.302857
     61          1           0       -2.295852    4.999655   -1.700976
     62          1           0       -0.412698    4.394794   -1.139660
     63          1           0        7.590575   -0.319309   -3.151869
     64          1           0       -1.185868    4.534822    1.188358
     65          1           0       -2.652252    5.164895    0.485263
     66          1           0       -3.889544    4.082729   -2.350824
     67          1           0       -5.117430    2.824851   -1.481860
     68          1           0       -4.349916    2.252233   -3.112190
     69          1           0       -4.829962    0.404604   -2.010773
     70          1           0        9.300439   -0.753031   -0.593327
     71          1           0        9.889365   -0.826979   -2.166454
     72          1           0       -3.754505   -2.871685    3.665970
     73          1           0       -6.000024   -1.506646   -2.651389
     74          1           0       -4.817407   -5.786197   -0.789164
     75          1           0       -3.919003   -5.252536   -2.378943
     76          1           0       -3.054001   -5.896943   -0.805812
     77          1           0       -1.346887    8.100652    1.281134
     78          1           0       -7.398166   -3.329890   -3.386726
     79          1           0       -6.592520   -4.551432   -2.558143
 ---------------------------------------------------------------------

 SCF Done:  E(RB3LYP) =  -1947.81363527     A.U. after   16 cycles

 Excitation energies and oscillator strengths:

 Excited State   1:      Singlet-A      2.0438 eV  606.64 nm  f=0.2083  <S**2>=0.000
     152 ->156        -0.16691
     154 ->156         0.30587
     155 ->156         0.60855
 This state for optimization and/or second-order correction.
 Total Energy, E(TD-HF/TD-DFT) =  -1947.73852758
 Copying the excited state density for this state as the 1-particle RhoCI density.

 The electronic state is 1-A.
 Alpha  occ. eigenvalues --  -19.20897 -19.16113 -19.13144 -19.10924 -19.10726
 Alpha  occ. eigenvalues --  -19.09623 -14.37544 -14.36984 -14.36096 -14.28423
 Alpha  occ. eigenvalues --  -10.32927 -10.29841 -10.29183 -10.26425 -10.25614
 Alpha  occ. eigenvalues --  -10.25473 -10.25000 -10.24467 -10.24005 -10.23290
 Alpha  occ. eigenvalues --  -10.23179 -10.23171 -10.23045 -10.22785 -10.22307
 Alpha  occ. eigenvalues --  -10.22193 -10.22152 -10.21935 -10.20953 -10.20705
 Alpha  occ. eigenvalues --  -10.20703 -10.20486 -10.20347 -10.20328 -10.20311
 Alpha  occ. eigenvalues --  -10.20235 -10.20127 -10.19454 -10.19082 -10.18932
 Alpha  occ. eigenvalues --  -10.18380 -10.17872 -10.17708  -1.11565  -1.07888
 Alpha  occ. eigenvalues --   -1.01878  -1.01690  -0.99697  -0.99649  -0.99062
 Alpha  occ. eigenvalues --   -0.98456  -0.95366  -0.89986  -0.84806  -0.83045
 Alpha  occ. eigenvalues --   -0.82306  -0.81967  -0.80567  -0.80108  -0.78943
 Alpha  occ. eigenvalues --   -0.77515  -0.76493  -0.75311  -0.73838  -0.72654
 Alpha  occ. eigenvalues --   -0.71210  -0.70896  -0.70318  -0.69305  -0.68916
 Alpha  occ. eigenvalues --   -0.67039  -0.66189  -0.63768  -0.62760  -0.60900
 Alpha  occ. eigenvalues --   -0.60693  -0.59309  -0.57754  -0.57364  -0.56726
 Alpha  occ. eigenvalues --   -0.56205  -0.55777  -0.54730  -0.53992  -0.53248
 Alpha  occ. eigenvalues --   -0.52728  -0.51964  -0.51532  -0.50899  -0.50335
 Alpha  occ. eigenvalues --   -0.49633  -0.49376  -0.48901  -0.48195  -0.47515
 Alpha  occ. eigenvalues --   -0.47099  -0.47004  -0.46774  -0.46484  -0.46031
 Alpha  occ. eigenvalues --   -0.45288  -0.44904  -0.44791  -0.44163  -0.43958
 Alpha  occ. eigenvalues --   -0.43830  -0.43261  -0.43099  -0.42825  -0.42712
 Alpha  occ. eigenvalues --   -0.42400  -0.41845  -0.41685  -0.41370  -0.41060
 Alpha  occ. eigenvalues --   -0.40993  -0.40475  -0.40113  -0.39551  -0.39468
 Alpha  occ. eigenvalues --   -0.39409  -0.39134  -0.38850  -0.38799  -0.38452
 Alpha  occ. eigenvalues --   -0.38031  -0.37646  -0.37573  -0.37153  -0.36519
 Alpha  occ. eigenvalues --   -0.36147  -0.35916  -0.35563  -0.34836  -0.34348
 Alpha  occ. eigenvalues --   -0.33331  -0.32978  -0.32783  -0.32170  -0.31654
 Alpha  occ. eigenvalues --   -0.30765  -0.30484  -0.28935  -0.28666  -0.27420
 Alpha  occ. eigenvalues --   -0.27247  -0.26982  -0.26356  -0.25829  -0.24825
 Alpha  occ. eigenvalues --   -0.23813  -0.23175  -0.22439  -0.21664  -0.19975
 Alpha virt. eigenvalues --   -0.11293  -0.07258  -0.06749  -0.01333  -0.00804
 Alpha virt. eigenvalues --    0.00101   0.00479   0.01013   0.01691   0.01988
 Alpha virt. eigenvalues --    0.02488   0.03661   0.04082   0.04454   0.04908

 Mulliken charges:
               1
     1  O   -0.255252
     2  O   -0.180083
     3  O   -0.247532
     4  O   -0.184696
     5  O   -0.270824
     6  O   -0.190875
     7  N   -0.009582
     8  N   -0.150112
     9  N   -0.018057
    10  N   -0.347313
    11  C    0.160850
    12  C    0.004604
    13  C    0.011623
    14  C   -0.095406
    15  C   -0.127693
    16  C    0.011526
    17  C   -0.211396
    18  C    0.198175
    19  C   -0.085386
    20  C   -0.114588
    21  C    0.160273
    22  C    0.160674
    23  C   -0.089713
    24  C    0.002836
    25  C    0.033050
    26  C   -0.087689
    27  C   -0.066275
    28  C    0.025635
    29  C    0.033255
    30  C   -0.038169
    31  C    0.132380
    32  C    0.021451
    33  C   -0.107962
    34  C    0.126549
    35  C    0.137065
    36  C    0.036977
    37  C    0.095506
    38  C    0.095146
    39  C   -0.159027
    40  C    0.147622
    41  C   -0.015134
    42  C   -0.030726
    43  C   -0.044023
    44  H    0.048281
    45  H    0.031529
    46  H    0.023649
    47  H    0.045067
    48  H    0.123694
    49  H   -0.041132
    50  H    0.026084
    51  H   -0.023674
    52  H    0.011348
    53  H    0.047272
    54  H    0.075473
    55  H    0.018298
    56  H    0.042192
    57  H    0.066712
    58  H    0.079823
    59  H    0.020572
    60  H    0.146448
    61  H    0.048221
    62  H    0.033051
    63  H    0.034411
    64  H    0.048033
    65  H   -0.047340
    66  H    0.039688
    67  H    0.053578
    68  H    0.063473
    69  H   -0.005144
    70  H    0.017633
    71  H   -0.032317
    72  H    0.153812
    73  H   -0.006806
    74  H    0.036259
    75  H    0.048166
    76  H    0.053751
    77  H    0.232505
    78  H    0.012861
    79  H    0.006845
 Sum of Mulliken charges =  -0.00000

 Dipole moment (field-independent basis, Debye):
    X=             -0.2719    Y=              3.2329    Z=              2.6594  Tot=              4.1950
 Quadrupole moment (field-independent basis, Debye-Ang):
   XX=           -229.4592   YY=           -239.7957   ZZ=           -265.7954
   XY=            -17.5207   XZ=             37.2838   YZ=              6.6045

 Normal termination of Gaussian 16 at Sun Sep 29 14:09:07 2019.
