 Gaussian 16, Revision A.03,
 Gaussian 16:  ES64L-G16RevA.03 25-Dec-2016

 --------------------------
 # td=(NStates=1) B3LYP/SVP
 --------------------------

 --
 TD
 --
 Symbolic Z-matrix:
 Charge =  0 Multiplicity = 1

                         Standard orientation:
 ---------------------------------------------------------------------
 Center     Atomic      Atomic             Coordinates (Angstroms)
 Number     Number       Type             X           Y           Z
 ---------------------------------------------------------------------
      1          8           0       -3.129547   -1.104281   -2.903491
      2          8           0        2.739776    3.141238    3.047206
      3          8           0        3.368200    1.556884    4.552184
      4          8           0        7.792459   -1.693753   -0.559326
      5          8           0        6.738312   -2.825022   -2.224084
      6          8           0       -2.740129    1.304378    1.433192
      7          7           0       -0.190021   -2.572759    0.876982
      8          7           0       -2.555433   -1.209626   -0.696264
      9          7           0        1.147840    0.119684   -0.736645
     10          7           0       -1.034327    1.348674   -0.197175
     11          6           0       -3.401377   -1.353525    0.563726
     12          6           0       -2.579390   -2.396386    1.590117
     13          6           0       -1.205885   -2.198607    1.780109
     14          6           0       -0.592740   -1.292062    2.742687
     15          6           0        0.868549   -1.144424    2.464438
     16          6           0        0.966760   -1.912234    1.224013
     17          6           0       -4.710142   -1.915936    0.105778
     18          6           0        1.722739   -0.373147    3.147559
     19          6           0       -4.725956   -2.025335   -1.318170
     20          6           0        2.138706   -1.873368    0.310249
     21          6           0        2.209109   -0.829115   -0.646471
     22          6           0       -3.443563   -1.431384   -1.779829
     23          6           0        3.139316   -0.470396   -1.688005
     24          6           0       -1.332510   -0.753359    3.939436
     25          6           0       -5.721264   -2.264763    1.156953
     26          6           0        2.642907    0.621131   -2.389448
     27          6           0        1.770756    1.095101    2.797032
     28          6           0        1.362218    0.982771   -1.756976
     29          6           0        4.395176   -1.267632   -1.967246
     30          6           0       -5.798346   -2.444721   -2.114530
     31          6           0        5.653833   -1.085851   -1.039927
     32          6           0        3.329725    1.319960   -3.628366
     33          6           0        0.476398    2.049040   -1.937355
     34          6           0        2.718246    1.952573    3.607414
     35          6           0       -0.638172    2.297640   -1.189461
     36          6           0       -6.790645   -3.248239   -1.867053
     37          6           0        6.759761   -1.992619   -1.341434
     38          6           0       -1.439048    3.525631   -1.183165
     39          6           0       -2.402907    3.232125   -0.112716
     40          6           0       -2.055200    1.867052    0.524800
     41          6           0       -1.407057    4.552279   -2.105079
     42          6           0       -3.462841    4.133076    0.357705
     43          6           0       -1.971348    5.771694   -2.169114
     44          1           0       -3.442205   -0.439940    1.076778
     45          1           0       -2.762112   -3.402341    1.015910
     46          1           0       -3.275657   -2.220696    2.497980
     47          1           0       -0.256157   -3.099028   -0.091534
     48          1           0       -2.066486   -0.210977   -0.582123
     49          1           0        1.433437   -0.387431    4.257539
     50          1           0        2.903247   -0.710064    3.034713
     51          1           0        3.014021   -2.392413    0.416806
     52          1           0       -2.188418   -1.415225    4.369919
     53          1           0       -0.721049   -0.379968    4.802221
     54          1           0       -1.897686    0.030295    3.405144
     55          1           0       -5.584937   -1.572560    2.003572
     56          1           0       -5.846758   -3.195575    1.410308
     57          1           0       -6.776749   -1.816889    0.728568
     58          1           0        1.864933    1.334921    1.828140
     59          1           0        0.673214    1.420603    2.842699
     60          1           0        0.303765    0.164139   -0.036269
     61          1           0        4.709024   -1.187548   -2.995549
     62          1           0        4.244184   -2.292062   -1.933175
     63          1           0       -5.748257   -1.939665   -3.132937
     64          1           0        5.254244   -1.176784    0.085757
     65          1           0        6.033677   -0.058318   -1.375333
     66          1           0        3.960965    0.616038   -4.081225
     67          1           0        3.635100    2.404665   -3.407759
     68          1           0        2.556789    1.456388   -4.413256
     69          1           0        0.736544    3.018019   -2.653984
     70          1           0       -7.041895   -3.699454   -0.931696
     71          1           0       -7.478303   -3.514521   -2.675211
     72          1           0        3.319618    3.726191    3.489287
     73          1           0       -0.942135    4.201833   -3.255048
     74          1           0       -4.149024    4.674634   -0.454473
     75          1           0       -3.952654    3.446488    1.052042
     76          1           0       -3.132576    4.836117    1.118862
     77          1           0        8.486908   -2.302900   -0.857820
     78          1           0       -1.752737    6.361690   -3.056657
     79          1           0       -2.697693    6.123180   -1.461949
 ---------------------------------------------------------------------

 SCF Done:  E(RB3LYP) =  -1947.84025040     A.U. after   23 cycles

 Excitation energies and oscillator strengths:

 Excited State   1:      Singlet-A      0.6328 eV 1959.43 nm  f=0.0004  <S**2>=0.000
     155 ->156         0.70309
 This state for optimization and/or second-order correction.
 Total Energy, E(TD-HF/TD-DFT) =  -1947.81699704
 Copying the excited state density for this state as the 1-particle RhoCI density.

 The electronic state is 1-A.
 Alpha  occ. eigenvalues --  -19.20547 -19.18961 -19.14399 -19.12418 -19.11634
 Alpha  occ. eigenvalues --  -19.07207 -14.38016 -14.37930 -14.30785 -14.30707
 Alpha  occ. eigenvalues --  -10.33565 -10.31884 -10.28354 -10.27605 -10.26071
 Alpha  occ. eigenvalues --  -10.25540 -10.25220 -10.23925 -10.23655 -10.23542
 Alpha  occ. eigenvalues --  -10.23419 -10.22478 -10.22361 -10.22343 -10.22052
 Alpha  occ. eigenvalues --  -10.21841 -10.21380 -10.21177 -10.20564 -10.20411
 Alpha  occ. eigenvalues --  -10.20106 -10.19931 -10.19876 -10.19719 -10.19440
 Alpha  occ. eigenvalues --  -10.19122 -10.18617 -10.18341 -10.18135 -10.18088
 Alpha  occ. eigenvalues --  -10.18069 -10.17919 -10.17138  -1.12495  -1.11316
 Alpha  occ. eigenvalues --   -1.02864  -1.01229  -1.00643  -0.99620  -0.99293
 Alpha  occ. eigenvalues --   -0.95179  -0.91994  -0.88216  -0.83780  -0.82280
 Alpha  occ. eigenvalues --   -0.81563  -0.81401  -0.79747  -0.79418  -0.78104
 Alpha  occ. eigenvalues --   -0.76709  -0.75870  -0.75625  -0.74645  -0.73018
 Alpha  occ. eigenvalues --   -0.71325  -0.70711  -0.70346  -0.69575  -0.67700
 Alpha  occ. eigenvalues --   -0.66662  -0.65561  -0.62500  -0.61833  -0.61339
 Alpha  occ. eigenvalues --   -0.61086  -0.59327  -0.58533  -0.57253  -0.56911
 Alpha  occ. eigenvalues --   -0.55004  -0.53912  -0.53718  -0.52982  -0.52507
 Alpha  occ. eigenvalues --   -0.51635  -0.51344  -0.51044  -0.50391  -0.50339
 Alpha  occ. eigenvalues --   -0.50110  -0.49684  -0.48597  -0.48279  -0.47881
 Alpha  occ. eigenvalues --   -0.47695  -0.47189  -0.46393  -0.45859  -0.45559
 Alpha  occ. eigenvalues --   -0.44971  -0.44858  -0.44625  -0.44385  -0.43590
 Alpha  occ. eigenvalues --   -0.43497  -0.43380  -0.43163  -0.42889  -0.42732
 Alpha  occ. eigenvalues --   -0.41867  -0.41718  -0.41304  -0.40970  -0.40789
 Alpha  occ. eigenvalues --   -0.40535  -0.40156  -0.40098  -0.39904  -0.39510
 Alpha  occ. eigenvalues --   -0.39225  -0.38943  -0.38663  -0.38292  -0.37927
 Alpha  occ. eigenvalues --   -0.37775  -0.37606  -0.37417  -0.36679  -0.36308
 Alpha  occ. eigenvalues --   -0.35428  -0.35061  -0.34813  -0.34481  -0.34281
 Alpha  occ. eigenvalues --   -0.33717  -0.32922  -0.32818  -0.32049  -0.31439
 Alpha  occ. eigenvalues --   -0.30606  -0.29980  -0.29735  -0.28845  -0.28458
 Alpha  occ. eigenvalues --   -0.28212  -0.27657  -0.25461  -0.24195  -0.22943
 Alpha  occ. eigenvalues --   -0.22554  -0.22357  -0.22104  -0.21704  -0.18254
 Alpha virt. eigenvalues --   -0.13412  -0.08400  -0.04297  -0.02482  -0.01583
 Alpha virt. eigenvalues --    0.00689   0.01007   0.02076   0.02401   0.03014
 Alpha virt. eigenvalues --    0.03619   0.03810   0.04005   0.04817   0.05015

 Mulliken charges:
               1
     1  O   -0.225547
     2  O   -0.122548
     3  O   -0.222749
     4  O   -0.149816
     5  O   -0.227642
     6  O   -0.280068
     7  N   -0.097967
     8  N   -0.282310
     9  N   -0.143615
    10  N   -0.379750
    11  C    0.027956
    12  C    0.104604
    13  C    0.018277
    14  C   -0.154381
    15  C    0.003666
    16  C   -0.032300
    17  C   -0.159338
    18  C    0.037339
    19  C   -0.020569
    20  C   -0.018970
    21  C    0.075526
    22  C    0.133240
    23  C   -0.038732
    24  C    0.031751
    25  C    0.117569
    26  C   -0.146119
    27  C   -0.007262
    28  C    0.156674
    29  C    0.118625
    30  C   -0.033349
    31  C   -0.061899
    32  C    0.132894
    33  C   -0.135914
    34  C    0.135657
    35  C    0.102997
    36  C   -0.029409
    37  C    0.127515
    38  C    0.126389
    39  C   -0.201691
    40  C    0.229179
    41  C   -0.136030
    42  C    0.062543
    43  C   -0.021358
    44  H    0.038733
    45  H   -0.011648
    46  H    0.007841
    47  H    0.167723
    48  H    0.193673
    49  H    0.023639
    50  H    0.009300
    51  H   -0.031710
    52  H    0.023126
    53  H    0.018655
    54  H    0.042547
    55  H    0.020503
    56  H    0.006241
    57  H    0.037233
    58  H   -0.033913
    59  H    0.039432
    60  H    0.244735
    61  H   -0.004636
    62  H   -0.008338
    63  H    0.012769
    64  H    0.076135
    65  H    0.058888
    66  H    0.009305
    67  H    0.054205
    68  H    0.022270
    69  H    0.026895
    70  H   -0.005946
    71  H    0.016758
    72  H    0.157437
    73  H    0.042372
    74  H    0.066365
    75  H    0.014294
    76  H    0.030103
    77  H    0.178943
    78  H    0.029053
    79  H    0.013948
 Sum of Mulliken charges =  -0.00000

 Dipole moment (field-independent basis, Debye):
    X=              4.8397    Y=              3.5198    Z=             -0.8752  Tot=              6.0479
 Quadrupole moment (field-independent basis, Debye-Ang):
   XX=           -227.0683   YY=           -232.2953   ZZ=           -272.7570
   XY=              1.4213   XZ=            -22.6309   YZ=            -10.2604

 Normal termination of Gaussian 16 at Sun Jul 28 17:27:24 2019.
