 Gaussian 16, Revision A.03,
 Gaussian 16:  ES64L-G16RevA.03 25-Dec-2016

 --------------------------
 # td=(NStates=1) B3LYP/SVP
 --------------------------

 --
 TD
 --
 Symbolic Z-matrix:
 Charge =  0 Multiplicity = 1

                         Standard orientation:
 ---------------------------------------------------------------------
 Center     Atomic      Atomic             Coordinates (Angstroms)
 Number     Number       Type             X           Y           Z
 ---------------------------------------------------------------------
      1          8           0       -3.343414   -1.257113   -2.806673
      2          8           0        3.551169    3.138026    2.692725
      3          8           0        3.627991    1.629437    4.528002
      4          8           0        7.745053   -1.405905   -0.816274
      5          8           0        6.755472   -3.127558   -1.927660
      6          8           0       -2.538626    1.699101    1.407325
      7          7           0       -0.221090   -2.261743    1.044755
      8          7           0       -2.688881   -1.371657   -0.612790
      9          7           0        1.159250    0.072050   -0.621122
     10          7           0       -0.960647    1.526630   -0.130879
     11          6           0       -3.351410   -1.340200    0.771115
     12          6           0       -2.629781   -2.332211    1.768559
     13          6           0       -1.217403   -1.937539    1.977007
     14          6           0       -0.596743   -1.029756    2.896811
     15          6           0        0.839460   -0.975623    2.612534
     16          6           0        1.023199   -1.802144    1.439035
     17          6           0       -4.763282   -1.851557    0.363866
     18          6           0        1.931264   -0.237123    3.252770
     19          6           0       -4.872650   -2.053587   -0.951669
     20          6           0        2.075431   -1.769386    0.582370
     21          6           0        2.141459   -0.906038   -0.544340
     22          6           0       -3.613493   -1.522719   -1.659136
     23          6           0        2.906908   -0.840126   -1.815176
     24          6           0       -1.337379   -0.262371    3.978143
     25          6           0       -5.794072   -2.061037    1.400931
     26          6           0        2.443925    0.216127   -2.524440
     27          6           0        2.076195    1.216681    2.663319
     28          6           0        1.289559    0.854682   -1.823062
     29          6           0        4.115732   -1.780911   -1.986986
     30          6           0       -5.926969   -2.519784   -1.933973
     31          6           0        5.463749   -1.125985   -1.428436
     32          6           0        2.998584    0.688896   -3.883139
     33          6           0        0.522384    1.983579   -2.059320
     34          6           0        3.162417    1.997427    3.421269
     35          6           0       -0.584775    2.220014   -1.295381
     36          6           0       -7.091415   -3.135843   -1.594279
     37          6           0        6.694257   -2.033165   -1.392394
     38          6           0       -1.513364    3.462765   -1.391462
     39          6           0       -2.274899    3.348184   -0.355519
     40          6           0       -1.969095    2.130826    0.426804
     41          6           0       -1.388528    4.399432   -2.508203
     42          6           0       -3.374940    4.196590    0.201697
     43          6           0       -2.117376    5.542610   -2.527762
     44          1           0       -3.473084   -0.343204    1.165989
     45          1           0       -2.760106   -3.439795    1.300587
     46          1           0       -3.228188   -2.365669    2.643379
     47          1           0       -0.400071   -2.824080    0.263840
     48          1           0       -2.030282   -0.520368   -0.781633
     49          1           0        1.827653   -0.194135    4.377146
     50          1           0        2.767788   -0.655526    2.991577
     51          1           0        2.708968   -2.772858    0.307375
     52          1           0       -1.970258   -1.044792    4.568225
     53          1           0       -0.773548    0.119780    4.726463
     54          1           0       -1.997316    0.495787    3.597041
     55          1           0       -5.684057   -1.447479    2.306471
     56          1           0       -5.725197   -3.259498    1.719901
     57          1           0       -6.834020   -2.017177    1.083203
     58          1           0        2.359263    1.081796    1.514006
     59          1           0        1.129969    1.877257    2.946762
     60          1           0        0.386023    0.468871   -0.053017
     61          1           0        4.140017   -2.182225   -3.208774
     62          1           0        3.943256   -2.783222   -1.640279
     63          1           0       -5.491019   -2.267732   -2.992357
     64          1           0        5.352072   -0.686954   -0.324713
     65          1           0        5.746006   -0.242269   -2.192825
     66          1           0        3.661328    0.100488   -4.410552
     67          1           0        3.540707    1.631071   -3.494461
     68          1           0        2.112329    1.253746   -4.461982
     69          1           0        0.831344    2.513638   -3.045704
     70          1           0       -7.323008   -3.662808   -0.592146
     71          1           0       -7.935933   -3.376308   -2.299854
     72          1           0        4.302538    3.658670    3.214911
     73          1           0       -0.666753    4.227461   -3.347926
     74          1           0       -4.160149    4.408722   -0.476323
     75          1           0       -3.839788    3.622001    1.135571
     76          1           0       -3.060682    5.284196    0.473699
     77          1           0        8.371389   -2.167766   -0.847835
     78          1           0       -2.171242    6.133518   -3.434348
     79          1           0       -2.659227    5.767746   -1.600052
 ---------------------------------------------------------------------

 SCF Done:  E(RB3LYP) =  -1947.87060131     A.U. after   19 cycles

 Excitation energies and oscillator strengths:

 Excited State   1:      Singlet-A      0.9638 eV 1286.44 nm  f=0.0006  <S**2>=0.000
     155 ->156         0.70340
 This state for optimization and/or second-order correction.
 Total Energy, E(TD-HF/TD-DFT) =  -1947.83518307
 Copying the excited state density for this state as the 1-particle RhoCI density.

 The electronic state is 1-A.
 Alpha  occ. eigenvalues --  -19.20339 -19.18494 -19.14465 -19.12758 -19.10910
 Alpha  occ. eigenvalues --  -19.09664 -14.37086 -14.36437 -14.32674 -14.30369
 Alpha  occ. eigenvalues --  -10.33841 -10.32317 -10.27579 -10.26982 -10.26536
 Alpha  occ. eigenvalues --  -10.26190 -10.25820 -10.24881 -10.24264 -10.23850
 Alpha  occ. eigenvalues --  -10.23434 -10.23014 -10.22942 -10.22580 -10.22178
 Alpha  occ. eigenvalues --  -10.21622 -10.21463 -10.20801 -10.20752 -10.20701
 Alpha  occ. eigenvalues --  -10.20524 -10.20432 -10.20380 -10.20368 -10.20277
 Alpha  occ. eigenvalues --  -10.19640 -10.19576 -10.19483 -10.18840 -10.17750
 Alpha  occ. eigenvalues --  -10.17695 -10.17653 -10.16618  -1.11567  -1.05627
 Alpha  occ. eigenvalues --   -1.03344  -1.02026  -1.01710  -0.98229  -0.98180
 Alpha  occ. eigenvalues --   -0.95654  -0.93569  -0.89909  -0.83235  -0.82831
 Alpha  occ. eigenvalues --   -0.81770  -0.80126  -0.79551  -0.78790  -0.78135
 Alpha  occ. eigenvalues --   -0.76287  -0.75829  -0.75030  -0.73935  -0.73013
 Alpha  occ. eigenvalues --   -0.70630  -0.69820  -0.69186  -0.69063  -0.67423
 Alpha  occ. eigenvalues --   -0.66656  -0.65599  -0.63459  -0.60846  -0.59864
 Alpha  occ. eigenvalues --   -0.59389  -0.58285  -0.57627  -0.57137  -0.56339
 Alpha  occ. eigenvalues --   -0.55493  -0.55169  -0.54758  -0.53601  -0.52894
 Alpha  occ. eigenvalues --   -0.51598  -0.50838  -0.50479  -0.50346  -0.49777
 Alpha  occ. eigenvalues --   -0.49299  -0.48475  -0.48192  -0.47921  -0.47414
 Alpha  occ. eigenvalues --   -0.47278  -0.46308  -0.46008  -0.45578  -0.45501
 Alpha  occ. eigenvalues --   -0.44989  -0.44863  -0.44227  -0.43762  -0.43492
 Alpha  occ. eigenvalues --   -0.43306  -0.42876  -0.42503  -0.42198  -0.41872
 Alpha  occ. eigenvalues --   -0.41366  -0.41117  -0.40906  -0.40538  -0.40419
 Alpha  occ. eigenvalues --   -0.40324  -0.40185  -0.40083  -0.39852  -0.39737
 Alpha  occ. eigenvalues --   -0.39276  -0.39130  -0.38527  -0.38447  -0.37796
 Alpha  occ. eigenvalues --   -0.37712  -0.36892  -0.36740  -0.36476  -0.36296
 Alpha  occ. eigenvalues --   -0.36110  -0.36034  -0.35904  -0.34937  -0.34775
 Alpha  occ. eigenvalues --   -0.34408  -0.34031  -0.33157  -0.32443  -0.32034
 Alpha  occ. eigenvalues --   -0.31616  -0.29850  -0.29815  -0.28364  -0.28038
 Alpha  occ. eigenvalues --   -0.27651  -0.27258  -0.25922  -0.25779  -0.24285
 Alpha  occ. eigenvalues --   -0.24107  -0.22765  -0.22647  -0.22092  -0.19237
 Alpha virt. eigenvalues --   -0.12929  -0.07041  -0.04326  -0.02245  -0.01931
 Alpha virt. eigenvalues --   -0.00581   0.00574   0.01759   0.02016   0.03021
 Alpha virt. eigenvalues --    0.03197   0.03375   0.03858   0.04464   0.04533

 Mulliken charges:
               1
     1  O   -0.221920
     2  O   -0.267177
     3  O   -0.260353
     4  O   -0.175626
     5  O   -0.232297
     6  O   -0.205319
     7  N   -0.064022
     8  N   -0.273948
     9  N   -0.145304
    10  N   -0.272776
    11  C    0.105145
    12  C    0.162437
    13  C   -0.035422
    14  C   -0.133836
    15  C   -0.136675
    16  C    0.077351
    17  C   -0.209594
    18  C    0.223584
    19  C   -0.074770
    20  C   -0.116977
    21  C    0.059279
    22  C    0.143696
    23  C   -0.038661
    24  C    0.128611
    25  C    0.043240
    26  C   -0.135117
    27  C   -0.092727
    28  C    0.084776
    29  C    0.039666
    30  C    0.032521
    31  C   -0.053077
    32  C    0.098421
    33  C   -0.095127
    34  C    0.184681
    35  C    0.117196
    36  C   -0.092776
    37  C    0.147263
    38  C    0.091314
    39  C   -0.217285
    40  C    0.127507
    41  C   -0.051501
    42  C    0.041402
    43  C    0.009988
    44  H    0.048345
    45  H    0.009700
    46  H   -0.018714
    47  H    0.093489
    48  H    0.155451
    49  H    0.026916
    50  H   -0.067222
    51  H    0.023112
    52  H    0.000054
    53  H   -0.036788
    54  H    0.035030
    55  H    0.028970
    56  H    0.043802
    57  H    0.024547
    58  H    0.064409
    59  H    0.074786
    60  H    0.182223
    61  H    0.043325
    62  H    0.019070
    63  H    0.047240
    64  H    0.075887
    65  H    0.073046
    66  H    0.020379
    67  H    0.036432
    68  H    0.046797
    69  H    0.015929
    70  H    0.038484
    71  H    0.031539
    72  H    0.217797
    73  H    0.000920
    74  H    0.012551
    75  H    0.053695
    76  H    0.040983
    77  H    0.182587
    78  H    0.025901
    79  H    0.013536
 Sum of Mulliken charges =  -0.00000

 Dipole moment (field-independent basis, Debye):
    X=              3.3772    Y=              2.5253    Z=             -2.2877  Tot=              4.7975
 Quadrupole moment (field-independent basis, Debye-Ang):
   XX=           -232.8750   YY=           -239.3375   ZZ=           -266.7829
   XY=              7.6231   XZ=            -22.9795   YZ=            -14.9666

 Normal termination of Gaussian 16 at Wed Jul 24 18:22:38 2019.
