 Gaussian 16, Revision A.03,
 Gaussian 16:  ES64L-G16RevA.03 25-Dec-2016

 --------------------------
 # td=(NStates=1) B3LYP/SVP
 --------------------------

 --
 TD
 --
 Symbolic Z-matrix:
 Charge =  0 Multiplicity = 1

                         Standard orientation:
 ---------------------------------------------------------------------
 Center     Atomic      Atomic             Coordinates (Angstroms)
 Number     Number       Type             X           Y           Z
 ---------------------------------------------------------------------
      1          8           0        5.218611   -0.188363   -3.317028
      2          8           0       -3.035602   -2.941701    3.204485
      3          8           0       -3.302855   -0.710770    3.406760
      4          8           0       -1.846554    7.298623    1.234140
      5          8           0       -0.503960    6.881953   -0.520282
      6          8           0       -1.641560   -4.006521    0.069032
      7          7           0        2.283675    1.054665    0.693180
      8          7           0        4.210497   -0.685512   -1.310330
      9          7           0       -1.758310    0.588622   -0.431484
     10          7           0       -2.541534   -1.956152   -0.516731
     11          6           0        4.686461   -1.121792   -0.011120
     12          6           0        4.462375   -0.259879    1.263194
     13          6           0        3.031028    0.085858    1.413960
     14          6           0        2.008252   -0.473425    2.288113
     15          6           0        0.827897    0.072097    1.942196
     16          6           0        0.955602    1.021833    0.917475
     17          6           0        6.236709   -1.355845   -0.205444
     18          6           0       -0.589892   -0.124013    2.736668
     19          6           0        6.595253   -0.791946   -1.377563
     20          6           0        0.068827    2.039727    0.331579
     21          6           0       -1.070712    1.836607   -0.282705
     22          6           0        5.311469   -0.531758   -2.112058
     23          6           0       -1.897473    2.836027   -0.935172
     24          6           0        2.267180   -1.517601    3.287461
     25          6           0        7.109787   -1.914792    0.868670
     26          6           0       -3.121026    2.216983   -1.429471
     27          6           0       -1.152238   -1.582544    2.700757
     28          6           0       -2.943131    0.925739   -1.101296
     29          6           0       -1.725128    4.339167   -0.995883
     30          6           0        7.824453   -0.750595   -2.149599
     31          6           0       -2.044269    5.176105    0.265851
     32          6           0       -4.370764    2.821151   -2.049092
     33          6           0       -3.820459   -0.170254   -1.407540
     34          6           0       -2.568887   -1.660685    3.173942
     35          6           0       -3.631715   -1.541922   -1.114357
     36          6           0        9.018962   -0.674640   -1.576967
     37          6           0       -1.241401    6.501367    0.258645
     38          6           0       -4.406878   -2.685221   -1.434539
     39          6           0       -3.780055   -3.775675   -1.102339
     40          6           0       -2.474679   -3.425673   -0.529602
     41          6           0       -5.726642   -2.594734   -2.186784
     42          6           0       -4.109854   -5.214227   -1.119721
     43          6           0       -6.615186   -3.546884   -2.597233
     44          1           0        4.278086   -1.982373    0.354780
     45          1           0        5.018236    0.622861    1.115749
     46          1           0        4.796807   -0.728452    2.127980
     47          1           0        2.684651    1.450540   -0.202210
     48          1           0        3.283317   -0.670522   -1.561922
     49          1           0       -0.503057    0.540005    3.612269
     50          1           0       -1.414437    0.453475    2.023267
     51          1           0        0.514697    3.163738    0.307333
     52          1           0        3.299263   -1.836353    3.519156
     53          1           0        1.839005   -1.472011    4.234236
     54          1           0        1.842681   -2.439584    2.928919
     55          1           0        6.624821   -3.012167    1.132150
     56          1           0        7.122477   -1.128651    1.766190
     57          1           0        8.203687   -2.249455    0.374934
     58          1           0       -1.111721   -2.124834    1.806188
     59          1           0       -0.339298   -2.164954    3.384205
     60          1           0       -1.509539   -0.580150   -0.668858
     61          1           0       -2.371800    4.814252   -1.741060
     62          1           0       -0.613242    4.649390   -0.983350
     63          1           0        7.675412   -0.943594   -3.213640
     64          1           0       -1.462556    4.498880    1.059995
     65          1           0       -3.163743    5.089748    0.615401
     66          1           0       -4.395089    4.067676   -1.883689
     67          1           0       -5.290198    2.423720   -1.543519
     68          1           0       -4.285340    2.728965   -3.359163
     69          1           0       -4.799076    0.098094   -1.773713
     70          1           0        9.003874    0.012863   -0.467710
     71          1           0       10.106881   -0.747338   -2.151889
     72          1           0       -4.092379   -2.885253    3.326916
     73          1           0       -5.998650   -1.592842   -2.131062
     74          1           0       -5.063975   -5.412689   -0.548220
     75          1           0       -4.412586   -5.762605   -2.109206
     76          1           0       -3.312338   -5.824873   -0.679542
     77          1           0       -1.484636    8.018293    1.081132
     78          1           0       -7.567456   -3.242463   -3.119854
     79          1           0       -6.250907   -4.459807   -2.671628
 ---------------------------------------------------------------------

 SCF Done:  E(RB3LYP) =  -1947.73919784     A.U. after   17 cycles

 Excitation energies and oscillator strengths:

 Excited State   1:      Singlet-A      1.9583 eV  633.12 nm  f=0.4050  <S**2>=0.000
     155 ->156         0.70241
     155 <-156        -0.10961
 This state for optimization and/or second-order correction.
 Total Energy, E(TD-HF/TD-DFT) =  -1947.66723172
 Copying the excited state density for this state as the 1-particle RhoCI density.

 The electronic state is 1-A.
 Alpha  occ. eigenvalues --  -19.17059 -19.16698 -19.16160 -19.12007 -19.10828
 Alpha  occ. eigenvalues --  -19.09240 -14.38855 -14.36183 -14.34888 -14.28519
 Alpha  occ. eigenvalues --  -10.33727 -10.30305 -10.28583 -10.26946 -10.24623
 Alpha  occ. eigenvalues --  -10.24475 -10.24133 -10.23984 -10.23738 -10.23213
 Alpha  occ. eigenvalues --  -10.23018 -10.22960 -10.22909 -10.22710 -10.22643
 Alpha  occ. eigenvalues --  -10.22355 -10.22184 -10.21657 -10.21305 -10.21238
 Alpha  occ. eigenvalues --  -10.20545 -10.20403 -10.20174 -10.20004 -10.19719
 Alpha  occ. eigenvalues --  -10.19617 -10.19528 -10.19303 -10.19084 -10.18850
 Alpha  occ. eigenvalues --  -10.18843 -10.18568 -10.18511  -1.14265  -1.06388
 Alpha  occ. eigenvalues --   -1.06380  -1.04513  -1.01085  -0.98329  -0.97407
 Alpha  occ. eigenvalues --   -0.96034  -0.93771  -0.93250  -0.83272  -0.82383
 Alpha  occ. eigenvalues --   -0.81904  -0.80913  -0.80306  -0.80080  -0.77760
 Alpha  occ. eigenvalues --   -0.76910  -0.76214  -0.75438  -0.74184  -0.72287
 Alpha  occ. eigenvalues --   -0.71309  -0.71142  -0.69997  -0.69195  -0.67880
 Alpha  occ. eigenvalues --   -0.66171  -0.65123  -0.64334  -0.61601  -0.61137
 Alpha  occ. eigenvalues --   -0.59579  -0.58676  -0.58286  -0.57419  -0.56551
 Alpha  occ. eigenvalues --   -0.56257  -0.55216  -0.54107  -0.53343  -0.52974
 Alpha  occ. eigenvalues --   -0.52314  -0.51580  -0.51350  -0.50705  -0.50632
 Alpha  occ. eigenvalues --   -0.50058  -0.49129  -0.48673  -0.48005  -0.47739
 Alpha  occ. eigenvalues --   -0.46915  -0.46908  -0.46350  -0.45763  -0.45577
 Alpha  occ. eigenvalues --   -0.45202  -0.44744  -0.44334  -0.44184  -0.43996
 Alpha  occ. eigenvalues --   -0.43407  -0.43150  -0.43142  -0.42829  -0.42565
 Alpha  occ. eigenvalues --   -0.42409  -0.42287  -0.42084  -0.41116  -0.40760
 Alpha  occ. eigenvalues --   -0.40500  -0.40357  -0.40066  -0.39887  -0.39458
 Alpha  occ. eigenvalues --   -0.39078  -0.38774  -0.38323  -0.38283  -0.37941
 Alpha  occ. eigenvalues --   -0.37651  -0.37512  -0.37320  -0.37137  -0.36860
 Alpha  occ. eigenvalues --   -0.36701  -0.35884  -0.35446  -0.35357  -0.34897
 Alpha  occ. eigenvalues --   -0.34733  -0.34045  -0.32863  -0.31511  -0.31380
 Alpha  occ. eigenvalues --   -0.31024  -0.30209  -0.29725  -0.29039  -0.27791
 Alpha  occ. eigenvalues --   -0.26483  -0.26356  -0.25361  -0.25203  -0.25077
 Alpha  occ. eigenvalues --   -0.24444  -0.24102  -0.23670  -0.22157  -0.19263
 Alpha virt. eigenvalues --   -0.11413  -0.07054  -0.05643  -0.01326  -0.00624
 Alpha virt. eigenvalues --   -0.00372   0.00134   0.01305   0.01822   0.02498
 Alpha virt. eigenvalues --    0.03415   0.03756   0.04222   0.04680   0.04953

 Mulliken charges:
               1
     1  O   -0.269097
     2  O   -0.243672
     3  O   -0.246497
     4  O   -0.114989
     5  O   -0.126188
     6  O   -0.141694
     7  N   -0.095706
     8  N   -0.121548
     9  N   -0.215328
    10  N   -0.342444
    11  C    0.117573
    12  C    0.306731
    13  C   -0.153272
    14  C   -0.083600
    15  C   -0.098265
    16  C    0.030768
    17  C   -0.161287
    18  C    0.014361
    19  C   -0.032360
    20  C   -0.197205
    21  C    0.215715
    22  C    0.132691
    23  C   -0.068348
    24  C    0.119171
    25  C   -0.051165
    26  C   -0.087324
    27  C    0.012120
    28  C    0.116581
    29  C    0.060716
    30  C    0.025561
    31  C   -0.107696
    32  C   -0.029258
    33  C   -0.103492
    34  C    0.167851
    35  C    0.090155
    36  C   -0.131440
    37  C    0.136448
    38  C    0.055963
    39  C   -0.216793
    40  C    0.162517
    41  C    0.008932
    42  C    0.044662
    43  C    0.045153
    44  H   -0.031302
    45  H   -0.036901
    46  H   -0.025223
    47  H    0.129212
    48  H    0.105844
    49  H    0.032181
    50  H    0.045928
    51  H    0.037155
    52  H   -0.012606
    53  H   -0.002076
    54  H    0.018085
    55  H    0.048705
    56  H    0.078676
    57  H    0.076479
    58  H    0.042084
    59  H    0.035291
    60  H    0.232486
    61  H    0.022122
    62  H    0.029586
    63  H    0.030910
    64  H    0.047613
    65  H    0.068110
    66  H    0.040752
    67  H    0.065393
    68  H    0.072584
    69  H   -0.048082
    70  H    0.055856
    71  H    0.063524
    72  H    0.217645
    73  H   -0.037582
    74  H    0.025695
    75  H    0.038273
    76  H    0.027569
    77  H    0.072576
    78  H    0.040147
    79  H   -0.031713
 Sum of Mulliken charges =  -0.00000

 Dipole moment (field-independent basis, Debye):
    X=              0.1619    Y=              1.8386    Z=              1.6241  Tot=              2.4585
 Quadrupole moment (field-independent basis, Debye-Ang):
   XX=           -222.9338   YY=           -240.7944   ZZ=           -269.4932
   XY=             -7.6998   XZ=             35.2381   YZ=              1.0557

 Normal termination of Gaussian 16 at Thu Sep 19 12:41:27 2019.
