 Gaussian 16, Revision A.03,
 Gaussian 16:  ES64L-G16RevA.03 25-Dec-2016

 --------------------------
 # td=(NStates=1) B3LYP/SVP
 --------------------------

 --
 TD
 --
 Symbolic Z-matrix:
 Charge =  0 Multiplicity = 1

                         Standard orientation:
 ---------------------------------------------------------------------
 Center     Atomic      Atomic             Coordinates (Angstroms)
 Number     Number       Type             X           Y           Z
 ---------------------------------------------------------------------
      1          8           0       -3.317287   -1.012931   -2.948740
      2          8           0        3.040321    2.779277    3.400478
      3          8           0        3.680252    0.967403    4.479644
      4          8           0        7.675005   -1.559995   -0.683771
      5          8           0        6.964225   -2.695200   -2.468047
      6          8           0       -2.565929    1.535608    1.575416
      7          7           0       -0.334901   -2.576487    0.745400
      8          7           0       -2.701124   -1.132839   -0.723076
      9          7           0        1.122843    0.067254   -0.806246
     10          7           0       -0.983813    1.496667   -0.144393
     11          6           0       -3.473080   -1.349886    0.575282
     12          6           0       -2.685846   -2.495455    1.500492
     13          6           0       -1.249223   -2.187153    1.667213
     14          6           0       -0.610011   -1.515713    2.663877
     15          6           0        0.738741   -1.431789    2.410496
     16          6           0        0.880535   -1.976986    1.089020
     17          6           0       -4.786929   -1.779300    0.097610
     18          6           0        1.829233   -0.692277    3.157754
     19          6           0       -4.838282   -1.905919   -1.268029
     20          6           0        2.097869   -1.872207    0.174549
     21          6           0        2.113171   -0.901978   -0.765930
     22          6           0       -3.580069   -1.369945   -1.856986
     23          6           0        3.031454   -0.608411   -1.806028
     24          6           0       -1.210961   -0.820400    3.817613
     25          6           0       -5.915828   -2.199547    1.114922
     26          6           0        2.618898    0.610697   -2.400760
     27          6           0        1.844108    0.788639    2.972591
     28          6           0        1.410464    1.116652   -1.690850
     29          6           0        4.297112   -1.473997   -2.151854
     30          6           0       -5.934146   -2.392806   -2.242512
     31          6           0        5.434320   -1.059071   -1.234614
     32          6           0        3.174143    1.388800   -3.614601
     33          6           0        0.548773    2.214172   -1.815825
     34          6           0        2.927012    1.477099    3.728377
     35          6           0       -0.608380    2.417764   -1.066208
     36          6           0       -7.070488   -3.112744   -1.925749
     37          6           0        6.703319   -1.843218   -1.511972
     38          6           0       -1.464961    3.678375   -1.082485
     39          6           0       -2.287447    3.434156    0.060189
     40          6           0       -1.992569    2.111822    0.581136
     41          6           0       -1.214803    4.807982   -1.955043
     42          6           0       -3.193895    4.351810    0.685632
     43          6           0       -1.763143    6.091200   -1.808665
     44          1           0       -3.487999   -0.426293    1.147922
     45          1           0       -2.943983   -3.397828    0.939690
     46          1           0       -3.250240   -2.561233    2.317137
     47          1           0       -0.598446   -2.803966   -0.100814
     48          1           0       -2.269962   -0.210404   -0.922337
     49          1           0        1.659112   -0.988819    4.307954
     50          1           0        2.886571   -1.012935    2.906235
     51          1           0        2.658997   -2.883791    0.141888
     52          1           0       -2.183596   -1.429700    4.246016
     53          1           0       -0.392356   -0.719383    4.746300
     54          1           0       -1.595233    0.272889    3.522207
     55          1           0       -5.917273   -1.683118    1.979735
     56          1           0       -5.793756   -3.384377    1.313710
     57          1           0       -6.822923   -1.958405    0.680688
     58          1           0        1.933096    1.163834    1.835196
     59          1           0        0.879291    1.271097    3.459778
     60          1           0        0.265527    0.043693   -0.189833
     61          1           0        4.765469   -1.118771   -3.277929
     62          1           0        4.144788   -2.678285   -1.971068
     63          1           0       -5.913554   -2.152660   -3.241285
     64          1           0        5.148809   -1.176815   -0.142013
     65          1           0        5.702741   -0.021891   -1.204776
     66          1           0        3.831121    0.815191   -4.250298
     67          1           0        3.865562    2.310933   -3.372210
     68          1           0        2.352389    2.016544   -4.349715
     69          1           0        0.911345    2.722028   -2.667854
     70          1           0       -7.283670   -3.421574   -0.948461
     71          1           0       -7.614726   -3.440882   -2.793870
     72          1           0        3.842527    3.095721    3.984587
     73          1           0       -0.643641    4.675117   -2.903372
     74          1           0       -3.978209    4.644027   -0.063641
     75          1           0       -3.877029    3.692277    1.306561
     76          1           0       -2.666044    5.310969    1.240535
     77          1           0        8.404617   -2.153355   -1.007471
     78          1           0       -1.687466    7.036480   -2.499377
     79          1           0       -2.480111    6.456029   -1.103300
 ---------------------------------------------------------------------

 SCF Done:  E(RB3LYP) =  -1947.85225899     A.U. after   20 cycles

 Excitation energies and oscillator strengths:

 Excited State   1:      Singlet-A      0.9211 eV 1346.01 nm  f=0.0027  <S**2>=0.000
     155 ->156         0.70277
 This state for optimization and/or second-order correction.
 Total Energy, E(TD-HF/TD-DFT) =  -1947.81840837
 Copying the excited state density for this state as the 1-particle RhoCI density.

 The electronic state is 1-A.
 Alpha  occ. eigenvalues --  -19.20451 -19.17571 -19.12972 -19.11897 -19.11718
 Alpha  occ. eigenvalues --  -19.09597 -14.37226 -14.35993 -14.31576 -14.30820
 Alpha  occ. eigenvalues --  -10.33728 -10.30618 -10.27896 -10.27126 -10.26638
 Alpha  occ. eigenvalues --  -10.25561 -10.25419 -10.25261 -10.24529 -10.23955
 Alpha  occ. eigenvalues --  -10.23799 -10.23347 -10.23121 -10.23006 -10.22599
 Alpha  occ. eigenvalues --  -10.22211 -10.21964 -10.21367 -10.21346 -10.21195
 Alpha  occ. eigenvalues --  -10.20862 -10.20712 -10.20492 -10.20040 -10.19741
 Alpha  occ. eigenvalues --  -10.19703 -10.19590 -10.19558 -10.19472 -10.19022
 Alpha  occ. eigenvalues --  -10.18225 -10.17243 -10.15918  -1.11920  -1.09647
 Alpha  occ. eigenvalues --   -1.03178  -1.00242  -1.00186  -0.98851  -0.97510
 Alpha  occ. eigenvalues --   -0.97064  -0.92835  -0.89770  -0.83304  -0.82255
 Alpha  occ. eigenvalues --   -0.81265  -0.80972  -0.79122  -0.79075  -0.78163
 Alpha  occ. eigenvalues --   -0.77214  -0.76393  -0.75642  -0.74309  -0.72452
 Alpha  occ. eigenvalues --   -0.70388  -0.70169  -0.69388  -0.68629  -0.67014
 Alpha  occ. eigenvalues --   -0.66798  -0.65890  -0.63652  -0.61786  -0.60619
 Alpha  occ. eigenvalues --   -0.59915  -0.58230  -0.58101  -0.57288  -0.56538
 Alpha  occ. eigenvalues --   -0.55741  -0.55048  -0.54776  -0.53323  -0.52389
 Alpha  occ. eigenvalues --   -0.52230  -0.51426  -0.51098  -0.49976  -0.49626
 Alpha  occ. eigenvalues --   -0.49222  -0.48752  -0.48577  -0.48254  -0.47624
 Alpha  occ. eigenvalues --   -0.47421  -0.47274  -0.46460  -0.46159  -0.45288
 Alpha  occ. eigenvalues --   -0.44922  -0.44633  -0.44293  -0.44074  -0.43571
 Alpha  occ. eigenvalues --   -0.43223  -0.42785  -0.42313  -0.42068  -0.41900
 Alpha  occ. eigenvalues --   -0.41491  -0.41170  -0.40856  -0.40771  -0.40672
 Alpha  occ. eigenvalues --   -0.40493  -0.40342  -0.40158  -0.39671  -0.39651
 Alpha  occ. eigenvalues --   -0.39316  -0.38862  -0.38538  -0.38164  -0.37839
 Alpha  occ. eigenvalues --   -0.37664  -0.37370  -0.37191  -0.37044  -0.36619
 Alpha  occ. eigenvalues --   -0.35853  -0.35617  -0.35280  -0.34818  -0.34665
 Alpha  occ. eigenvalues --   -0.34433  -0.33231  -0.32406  -0.32011  -0.31686
 Alpha  occ. eigenvalues --   -0.31597  -0.29751  -0.29414  -0.28467  -0.28422
 Alpha  occ. eigenvalues --   -0.27636  -0.26910  -0.25893  -0.25309  -0.24144
 Alpha  occ. eigenvalues --   -0.23680  -0.23347  -0.23141  -0.22400  -0.19090
 Alpha virt. eigenvalues --   -0.13241  -0.08759  -0.04735  -0.03009  -0.02508
 Alpha virt. eigenvalues --    0.01127   0.01455   0.01777   0.01991   0.02768
 Alpha virt. eigenvalues --    0.03497   0.04116   0.04662   0.04780   0.04988

 Mulliken charges:
               1
     1  O   -0.183834
     2  O   -0.221987
     3  O   -0.203953
     4  O   -0.137373
     5  O   -0.327550
     6  O   -0.263017
     7  N    0.044431
     8  N   -0.291066
     9  N   -0.134440
    10  N   -0.287183
    11  C    0.063300
    12  C    0.261042
    13  C   -0.073015
    14  C   -0.082515
    15  C   -0.038308
    16  C   -0.125548
    17  C   -0.194644
    18  C    0.065505
    19  C   -0.043664
    20  C   -0.121207
    21  C    0.161547
    22  C    0.126651
    23  C   -0.045170
    24  C   -0.056082
    25  C    0.128145
    26  C   -0.063449
    27  C   -0.052780
    28  C    0.065054
    29  C    0.013511
    30  C    0.002998
    31  C   -0.003442
    32  C   -0.017704
    33  C   -0.044228
    34  C    0.101821
    35  C    0.135865
    36  C   -0.002805
    37  C    0.155615
    38  C    0.103426
    39  C   -0.202661
    40  C    0.195518
    41  C   -0.020842
    42  C    0.048195
    43  C   -0.073108
    44  H    0.045848
    45  H   -0.030775
    46  H   -0.058325
    47  H    0.055606
    48  H    0.146999
    49  H    0.034689
    50  H    0.004955
    51  H    0.049370
    52  H    0.017722
    53  H    0.022600
    54  H    0.077074
    55  H   -0.012698
    56  H    0.056762
    57  H    0.011437
    58  H    0.061888
    59  H    0.059521
    60  H    0.201564
    61  H    0.064014
    62  H    0.070764
    63  H   -0.022249
    64  H    0.049707
    65  H    0.032610
    66  H    0.023172
    67  H    0.045829
    68  H    0.062277
    69  H   -0.057557
    70  H   -0.005458
    71  H    0.020407
    72  H    0.202047
    73  H    0.023397
    74  H    0.026765
    75  H    0.024808
    76  H    0.075482
    77  H    0.196097
    78  H    0.044832
    79  H    0.017768
 Sum of Mulliken charges =  -0.00000

 Dipole moment (field-independent basis, Debye):
    X=              2.0887    Y=              3.5862    Z=             -1.0148  Tot=              4.2724
 Quadrupole moment (field-independent basis, Debye-Ang):
   XX=           -234.9065   YY=           -232.2323   ZZ=           -271.7988
   XY=              9.5336   XZ=            -12.6835   YZ=            -13.5473

 Normal termination of Gaussian 16 at Sun Jul 28 21:50:48 2019.
