 Gaussian 16, Revision A.03,
 Gaussian 16:  ES64L-G16RevA.03 25-Dec-2016

 --------------------------
 # td=(NStates=1) B3LYP/SVP
 --------------------------

 --
 TD
 --
 Symbolic Z-matrix:
 Charge =  0 Multiplicity = 1

                         Standard orientation:
 ---------------------------------------------------------------------
 Center     Atomic      Atomic             Coordinates (Angstroms)
 Number     Number       Type             X           Y           Z
 ---------------------------------------------------------------------
      1          8           0        5.464038    0.041376   -3.246460
      2          8           0       -3.073843   -3.086747    3.154303
      3          8           0       -3.484186   -0.893860    2.717488
      4          8           0       -1.855871    7.250732    1.500581
      5          8           0       -0.458741    6.980567   -0.314030
      6          8           0       -1.682451   -3.974611   -0.135644
      7          7           0        2.346062    0.867892    0.610691
      8          7           0        4.352248   -0.663250   -1.288841
      9          7           0       -1.737450    0.675426   -0.518632
     10          7           0       -2.520424   -1.874519   -0.647967
     11          6           0        4.798373   -1.237549   -0.000882
     12          6           0        4.335673   -0.472580    1.259156
     13          6           0        2.953500   -0.173840    1.269938
     14          6           0        1.945045   -0.744534    2.133895
     15          6           0        0.695520   -0.080496    1.847970
     16          6           0        0.984877    0.932746    0.824410
     17          6           0        6.271580   -1.371791   -0.141882
     18          6           0       -0.626799   -0.187856    2.542329
     19          6           0        6.677323   -0.777651   -1.358207
     20          6           0        0.219527    1.964635    0.229284
     21          6           0       -1.059651    1.887947   -0.303907
     22          6           0        5.404122   -0.400522   -2.128194
     23          6           0       -1.897097    2.940802   -0.792472
     24          6           0        2.199858   -1.811880    3.101568
     25          6           0        7.149827   -2.117853    0.849983
     26          6           0       -3.092874    2.335909   -1.262463
     27          6           0       -1.142502   -1.745640    2.500360
     28          6           0       -2.998264    0.935226   -1.000728
     29          6           0       -1.458051    4.402874   -0.807002
     30          6           0        7.985262   -0.494118   -1.962947
     31          6           0       -1.828168    5.073686    0.489412
     32          6           0       -4.204415    3.088730   -1.919784
     33          6           0       -3.924860   -0.024361   -1.342911
     34          6           0       -2.618399   -1.832283    2.815138
     35          6           0       -3.672763   -1.412304   -1.111563
     36          6           0        9.171157   -0.607208   -1.334358
     37          6           0       -1.245666    6.506119    0.519279
     38          6           0       -4.673025   -2.565048   -1.389727
     39          6           0       -3.931816   -3.697866   -1.132656
     40          6           0       -2.641718   -3.286219   -0.607120
     41          6           0       -5.947997   -2.363630   -1.942166
     42          6           0       -4.259870   -5.145391   -1.146529
     43          6           0       -6.909629   -3.155325   -2.486040
     44          1           0        4.208219   -2.274671    0.013242
     45          1           0        4.979548    0.474388    1.299828
     46          1           0        4.617935   -1.125722    2.169280
     47          1           0        2.782935    1.371075   -0.197501
     48          1           0        3.520213   -0.934266   -1.816452
     49          1           0       -0.434127   -0.016739    3.723871
     50          1           0       -1.180804    0.506636    2.192789
     51          1           0        0.816810    2.824265    0.176758
     52          1           0        3.278656   -2.016672    3.486140
     53          1           0        1.611120   -1.665432    4.052790
     54          1           0        1.716412   -2.784172    2.737639
     55          1           0        6.497422   -2.608184    1.565286
     56          1           0        7.927800   -1.458720    1.486409
     57          1           0        7.802306   -2.932398    0.498142
     58          1           0       -1.150785   -2.123626    1.525805
     59          1           0       -0.591665   -2.525498    3.004966
     60          1           0       -1.295582   -0.414777   -0.506723
     61          1           0       -1.878968    4.727537   -1.717488
     62          1           0       -0.401508    4.272450   -0.976204
     63          1           0        7.860094   -0.100869   -2.925868
     64          1           0       -1.352598    4.550156    1.558824
     65          1           0       -2.856355    4.972558    0.638319
     66          1           0       -3.664564    4.231274   -2.323315
     67          1           0       -4.888432    3.467647   -1.036993
     68          1           0       -4.495539    2.512611   -2.874400
     69          1           0       -5.045777    0.092903   -1.493803
     70          1           0        9.191514   -0.912077   -0.270357
     71          1           0       10.062617   -0.171342   -1.929527
     72          1           0       -3.987692   -2.920966    3.339389
     73          1           0       -6.350779   -1.230787   -1.744444
     74          1           0       -5.322360   -5.788208   -0.466590
     75          1           0       -4.525611   -5.427862   -2.259888
     76          1           0       -3.378679   -5.608602   -0.771087
     77          1           0       -1.645185    8.178481    1.551855
     78          1           0       -7.872716   -2.656483   -2.921014
     79          1           0       -6.856997   -4.238769   -2.553449
 ---------------------------------------------------------------------

 SCF Done:  E(RB3LYP) =  -1947.86133682     A.U. after   17 cycles

 Excitation energies and oscillator strengths:

 Excited State   1:      Singlet-A      1.9153 eV  647.33 nm  f=0.4471  <S**2>=0.000
     155 ->156         0.70221
     155 <-156        -0.12156
 This state for optimization and/or second-order correction.
 Total Energy, E(TD-HF/TD-DFT) =  -1947.79094999
 Copying the excited state density for this state as the 1-particle RhoCI density.

 The electronic state is 1-A.
 Alpha  occ. eigenvalues --  -19.18612 -19.16705 -19.13704 -19.10811 -19.10797
 Alpha  occ. eigenvalues --  -19.10190 -14.39030 -14.36308 -14.36260 -14.29232
 Alpha  occ. eigenvalues --  -10.33674 -10.31168 -10.28725 -10.26432 -10.26415
 Alpha  occ. eigenvalues --  -10.24250 -10.23967 -10.23328 -10.23298 -10.23218
 Alpha  occ. eigenvalues --  -10.23160 -10.23107 -10.22762 -10.22637 -10.22080
 Alpha  occ. eigenvalues --  -10.21588 -10.21385 -10.21027 -10.20860 -10.20857
 Alpha  occ. eigenvalues --  -10.20812 -10.20752 -10.20625 -10.20591 -10.20478
 Alpha  occ. eigenvalues --  -10.20352 -10.20243 -10.20104 -10.19976 -10.19926
 Alpha  occ. eigenvalues --  -10.19623 -10.19530 -10.19020  -1.08688  -1.07119
 Alpha  occ. eigenvalues --   -1.03634  -1.00323  -0.99047  -0.98482  -0.96837
 Alpha  occ. eigenvalues --   -0.95820  -0.94787  -0.91300  -0.82877  -0.82431
 Alpha  occ. eigenvalues --   -0.81602  -0.81089  -0.80501  -0.79830  -0.77622
 Alpha  occ. eigenvalues --   -0.77253  -0.76269  -0.75746  -0.74658  -0.72281
 Alpha  occ. eigenvalues --   -0.71267  -0.71099  -0.69371  -0.68826  -0.67901
 Alpha  occ. eigenvalues --   -0.67643  -0.66285  -0.63648  -0.61727  -0.60902
 Alpha  occ. eigenvalues --   -0.60660  -0.58409  -0.58092  -0.57479  -0.56944
 Alpha  occ. eigenvalues --   -0.55751  -0.55369  -0.54823  -0.53923  -0.53640
 Alpha  occ. eigenvalues --   -0.51482  -0.51114  -0.51045  -0.50543  -0.49261
 Alpha  occ. eigenvalues --   -0.48669  -0.48133  -0.47922  -0.47768  -0.46931
 Alpha  occ. eigenvalues --   -0.46875  -0.46726  -0.46200  -0.45958  -0.45687
 Alpha  occ. eigenvalues --   -0.45266  -0.44884  -0.44310  -0.44032  -0.43490
 Alpha  occ. eigenvalues --   -0.43177  -0.42831  -0.42578  -0.42471  -0.42098
 Alpha  occ. eigenvalues --   -0.41879  -0.41825  -0.41289  -0.41175  -0.41072
 Alpha  occ. eigenvalues --   -0.40857  -0.40802  -0.40203  -0.40146  -0.39533
 Alpha  occ. eigenvalues --   -0.39408  -0.38863  -0.38473  -0.38356  -0.38115
 Alpha  occ. eigenvalues --   -0.37765  -0.37668  -0.37523  -0.36759  -0.36327
 Alpha  occ. eigenvalues --   -0.35786  -0.35678  -0.35356  -0.34739  -0.34409
 Alpha  occ. eigenvalues --   -0.34276  -0.33890  -0.33077  -0.32867  -0.31770
 Alpha  occ. eigenvalues --   -0.30998  -0.29606  -0.28944  -0.28453  -0.27554
 Alpha  occ. eigenvalues --   -0.27135  -0.26033  -0.25867  -0.25031  -0.24390
 Alpha  occ. eigenvalues --   -0.24241  -0.24001  -0.23539  -0.22429  -0.18710
 Alpha virt. eigenvalues --   -0.11249  -0.07448  -0.06652  -0.01938  -0.00852
 Alpha virt. eigenvalues --    0.00462   0.00483   0.01030   0.02295   0.02586
 Alpha virt. eigenvalues --    0.02992   0.03426   0.03638   0.04084   0.04378

 Mulliken charges:
               1
     1  O   -0.205781
     2  O   -0.176040
     3  O   -0.307443
     4  O   -0.201995
     5  O   -0.239688
     6  O   -0.260496
     7  N   -0.073464
     8  N   -0.202485
     9  N   -0.181819
    10  N   -0.280829
    11  C    0.031137
    12  C    0.161811
    13  C   -0.050569
    14  C   -0.104909
    15  C   -0.119786
    16  C    0.044109
    17  C   -0.125347
    18  C    0.216749
    19  C   -0.085914
    20  C   -0.128629
    21  C    0.147422
    22  C    0.128367
    23  C   -0.155977
    24  C    0.024206
    25  C    0.036344
    26  C   -0.136588
    27  C    0.066243
    28  C    0.205176
    29  C    0.220451
    30  C    0.024505
    31  C   -0.028712
    32  C   -0.012334
    33  C   -0.134402
    34  C    0.137675
    35  C    0.013945
    36  C   -0.021469
    37  C    0.188627
    38  C    0.114739
    39  C   -0.163556
    40  C    0.174236
    41  C   -0.083328
    42  C   -0.014180
    43  C   -0.061105
    44  H    0.033720
    45  H    0.009219
    46  H    0.015553
    47  H    0.132631
    48  H    0.140392
    49  H    0.029166
    50  H   -0.064763
    51  H   -0.020875
    52  H    0.027522
    53  H    0.015339
    54  H    0.049485
    55  H    0.005321
    56  H    0.054136
    57  H    0.043817
    58  H    0.034819
    59  H    0.010162
    60  H    0.230198
    61  H   -0.001195
    62  H    0.001769
    63  H   -0.014340
    64  H    0.076008
    65  H    0.020413
    66  H    0.030002
    67  H    0.070329
    68  H    0.068559
    69  H   -0.002356
    70  H    0.015890
    71  H    0.047046
    72  H    0.162218
    73  H    0.029634
    74  H    0.042170
    75  H    0.046929
    76  H    0.032487
    77  H    0.180030
    78  H    0.047305
    79  H    0.022365
 Sum of Mulliken charges =  -0.00000

 Dipole moment (field-independent basis, Debye):
    X=              0.6864    Y=              2.2505    Z=              3.2913  Tot=              4.0458
 Quadrupole moment (field-independent basis, Debye-Ang):
   XX=           -226.0391   YY=           -246.5732   ZZ=           -260.4511
   XY=            -16.0530   XZ=             31.3255   YZ=              6.6785

 Normal termination of Gaussian 16 at Wed Oct  2 22:13:20 2019.
