 Gaussian 16, Revision A.03,
 Gaussian 16:  ES64L-G16RevA.03 25-Dec-2016

 --------------------------
 # td=(NStates=1) B3LYP/SVP
 --------------------------

 --
 TD
 --
 Symbolic Z-matrix:
 Charge =  0 Multiplicity = 1

                         Standard orientation:
 ---------------------------------------------------------------------
 Center     Atomic      Atomic             Coordinates (Angstroms)
 Number     Number       Type             X           Y           Z
 ---------------------------------------------------------------------
      1          8           0        5.160206   -0.124213   -3.310041
      2          8           0       -2.965283   -3.114938    3.321089
      3          8           0       -3.269061   -0.832237    3.308345
      4          8           0       -1.289276    7.251551    1.602479
      5          8           0       -0.547389    7.054103   -0.502787
      6          8           0       -1.995990   -3.955371   -0.000000
      7          7           0        2.361417    0.845128    0.608479
      8          7           0        4.265896   -0.591035   -1.207333
      9          7           0       -1.849761    0.737727   -0.403685
     10          7           0       -2.673757   -1.869510   -0.554247
     11          6           0        4.800381   -1.238275   -0.047232
     12          6           0        4.419542   -0.494143    1.233458
     13          6           0        2.961926   -0.207363    1.388615
     14          6           0        2.001668   -0.785071    2.192528
     15          6           0        0.776990   -0.148514    1.849865
     16          6           0        1.054983    0.917171    0.855063
     17          6           0        6.160810   -1.422557   -0.307598
     18          6           0       -0.539633   -0.319199    2.610251
     19          6           0        6.583767   -0.970769   -1.451030
     20          6           0        0.217188    1.898149    0.297144
     21          6           0       -1.070757    1.812097   -0.135808
     22          6           0        5.303631   -0.506965   -2.184920
     23          6           0       -1.829566    3.013443   -0.794312
     24          6           0        2.202717   -1.868580    3.165375
     25          6           0        7.147685   -2.031700    0.720892
     26          6           0       -2.992714    2.481789   -1.222038
     27          6           0       -1.161112   -1.667191    2.557548
     28          6           0       -3.004704    1.087991   -0.992332
     29          6           0       -1.262359    4.346652   -0.819213
     30          6           0        7.819472   -0.841595   -2.156183
     31          6           0       -1.547155    5.122692    0.497357
     32          6           0       -4.149796    3.258445   -1.993102
     33          6           0       -3.952974    0.045298   -1.440105
     34          6           0       -2.603493   -1.829630    3.115928
     35          6           0       -3.769788   -1.346805   -1.165227
     36          6           0        9.127423   -0.901409   -1.587806
     37          6           0       -1.049879    6.582291    0.485079
     38          6           0       -4.789234   -2.403800   -1.514062
     39          6           0       -4.062664   -3.615697   -1.210383
     40          6           0       -2.828694   -3.249493   -0.517704
     41          6           0       -5.918237   -2.241628   -2.246832
     42          6           0       -4.542688   -5.071088   -1.244242
     43          6           0       -6.852611   -3.194302   -2.757771
     44          1           0        4.299208   -2.230700    0.165300
     45          1           0        5.037056    0.379689    1.267039
     46          1           0        4.569748   -1.180783    2.010326
     47          1           0        2.942003    1.094993   -0.295071
     48          1           0        3.281983   -0.662335   -1.420908
     49          1           0       -0.634804    0.121169    3.718123
     50          1           0       -1.402835    0.284327    2.303928
     51          1           0        0.643098    2.819657   -0.077902
     52          1           0        3.462476   -1.992620    3.320713
     53          1           0        1.818262   -1.623315    4.137610
     54          1           0        1.884215   -2.872247    2.903268
     55          1           0        6.585258   -2.797886    1.398939
     56          1           0        7.590928   -1.309591    1.325417
     57          1           0        8.194696   -2.362853    0.369127
     58          1           0       -1.149943   -2.124812    1.483554
     59          1           0       -0.397147   -2.467181    2.919190
     60          1           0       -1.845205   -0.408745   -0.081280
     61          1           0       -1.758097    4.914675   -1.516645
     62          1           0       -0.025804    4.425424   -0.800821
     63          1           0        7.702424   -0.696622   -3.306803
     64          1           0       -1.208230    4.651243    1.359758
     65          1           0       -2.454555    4.987610    0.737756
     66          1           0       -4.033849    4.348875   -2.121102
     67          1           0       -5.038029    3.223762   -1.465229
     68          1           0       -4.377063    2.779637   -2.824558
     69          1           0       -4.788769    0.270530   -2.006568
     70          1           0        9.439393   -0.793573   -0.368069
     71          1           0       10.018666   -0.833444   -2.245687
     72          1           0       -3.932912   -3.056298    3.585382
     73          1           0       -6.386147   -1.131763   -2.342323
     74          1           0       -5.576766   -4.885125   -0.554189
     75          1           0       -4.773312   -5.578977   -2.172879
     76          1           0       -3.866531   -5.583778   -0.533751
     77          1           0       -0.951857    8.068261    1.340678
     78          1           0       -7.839228   -2.808626   -3.206979
     79          1           0       -6.401315   -4.317364   -2.547752
 ---------------------------------------------------------------------

 SCF Done:  E(RB3LYP) =  -1947.82243407     A.U. after   16 cycles

 Excitation energies and oscillator strengths:

 Excited State   1:      Singlet-A      1.9354 eV  640.63 nm  f=0.4037  <S**2>=0.000
     154 ->156         0.22070
     155 ->156         0.67141
     155 <-156        -0.10687
 This state for optimization and/or second-order correction.
 Total Energy, E(TD-HF/TD-DFT) =  -1947.75131103
 Copying the excited state density for this state as the 1-particle RhoCI density.

 The electronic state is 1-A.
 Alpha  occ. eigenvalues --  -19.20032 -19.18271 -19.13782 -19.11887 -19.11533
 Alpha  occ. eigenvalues --  -19.09470 -14.38782 -14.36550 -14.35874 -14.28956
 Alpha  occ. eigenvalues --  -10.33211 -10.31368 -10.29518 -10.25612 -10.24916
 Alpha  occ. eigenvalues --  -10.24509 -10.24215 -10.23689 -10.23365 -10.23129
 Alpha  occ. eigenvalues --  -10.22828 -10.22454 -10.21683 -10.21681 -10.21540
 Alpha  occ. eigenvalues --  -10.21502 -10.21407 -10.21354 -10.20990 -10.20949
 Alpha  occ. eigenvalues --  -10.20927 -10.20909 -10.20456 -10.20444 -10.20412
 Alpha  occ. eigenvalues --  -10.20346 -10.20168 -10.19835 -10.19476 -10.19257
 Alpha  occ. eigenvalues --  -10.19231 -10.19073 -10.19026  -1.13448  -1.08364
 Alpha  occ. eigenvalues --   -1.04299  -1.02846  -1.01518  -0.99947  -0.98688
 Alpha  occ. eigenvalues --   -0.98065  -0.95838  -0.91057  -0.83415  -0.83390
 Alpha  occ. eigenvalues --   -0.82349  -0.80987  -0.79996  -0.79859  -0.78369
 Alpha  occ. eigenvalues --   -0.76950  -0.75811  -0.75195  -0.73738  -0.72310
 Alpha  occ. eigenvalues --   -0.71547  -0.71004  -0.69838  -0.69114  -0.68466
 Alpha  occ. eigenvalues --   -0.66454  -0.65741  -0.63972  -0.62198  -0.61900
 Alpha  occ. eigenvalues --   -0.61077  -0.58928  -0.58903  -0.57977  -0.56783
 Alpha  occ. eigenvalues --   -0.56212  -0.55526  -0.55426  -0.54418  -0.52981
 Alpha  occ. eigenvalues --   -0.52575  -0.52260  -0.51396  -0.50664  -0.50457
 Alpha  occ. eigenvalues --   -0.49906  -0.49423  -0.48781  -0.48133  -0.47482
 Alpha  occ. eigenvalues --   -0.47397  -0.46783  -0.46465  -0.45768  -0.45415
 Alpha  occ. eigenvalues --   -0.45116  -0.44781  -0.44298  -0.44169  -0.43807
 Alpha  occ. eigenvalues --   -0.43751  -0.43440  -0.43125  -0.42743  -0.42569
 Alpha  occ. eigenvalues --   -0.42467  -0.42271  -0.41994  -0.41610  -0.41188
 Alpha  occ. eigenvalues --   -0.40838  -0.40611  -0.40337  -0.40252  -0.39763
 Alpha  occ. eigenvalues --   -0.39714  -0.39411  -0.39340  -0.38988  -0.38702
 Alpha  occ. eigenvalues --   -0.38560  -0.38042  -0.37765  -0.37299  -0.36840
 Alpha  occ. eigenvalues --   -0.36430  -0.36218  -0.35677  -0.35199  -0.34575
 Alpha  occ. eigenvalues --   -0.34214  -0.34111  -0.32563  -0.32253  -0.31742
 Alpha  occ. eigenvalues --   -0.30830  -0.29692  -0.29423  -0.28736  -0.27557
 Alpha  occ. eigenvalues --   -0.27357  -0.27126  -0.26617  -0.26196  -0.25607
 Alpha  occ. eigenvalues --   -0.24475  -0.23973  -0.23029  -0.21091  -0.18861
 Alpha virt. eigenvalues --   -0.11098  -0.07301  -0.06450  -0.00954  -0.00387
 Alpha virt. eigenvalues --   -0.00111   0.00939   0.01487   0.02497   0.03352
 Alpha virt. eigenvalues --    0.03633   0.03808   0.04345   0.04877   0.05141

 Mulliken charges:
               1
     1  O   -0.181390
     2  O   -0.179741
     3  O   -0.238331
     4  O   -0.106848
     5  O   -0.226579
     6  O   -0.202551
     7  N   -0.116147
     8  N   -0.229955
     9  N   -0.118356
    10  N   -0.306606
    11  C    0.064947
    12  C    0.323041
    13  C   -0.163272
    14  C   -0.059713
    15  C   -0.071657
    16  C    0.101230
    17  C   -0.131866
    18  C    0.064611
    19  C   -0.048849
    20  C   -0.080911
    21  C    0.084819
    22  C    0.151367
    23  C   -0.111526
    24  C    0.048303
    25  C    0.065525
    26  C   -0.135968
    27  C   -0.112283
    28  C    0.091824
    29  C    0.110194
    30  C   -0.032104
    31  C    0.088922
    32  C    0.209772
    33  C   -0.054582
    34  C    0.171644
    35  C    0.078368
    36  C   -0.101532
    37  C    0.130560
    38  C    0.095106
    39  C   -0.203573
    40  C    0.148063
    41  C   -0.130948
    42  C    0.022790
    43  C   -0.079037
    44  H    0.012761
    45  H   -0.017825
    46  H   -0.056919
    47  H    0.158349
    48  H    0.135668
    49  H    0.015634
    50  H   -0.004878
    51  H   -0.029401
    52  H    0.011838
    53  H    0.028328
    54  H    0.054736
    55  H    0.034504
    56  H    0.006437
    57  H    0.034041
    58  H    0.078263
    59  H    0.008766
    60  H    0.243763
    61  H   -0.016018
    62  H    0.056683
    63  H    0.054671
    64  H   -0.006054
    65  H   -0.049237
    66  H    0.012477
    67  H   -0.014044
    68  H   -0.015725
    69  H   -0.067394
    70  H    0.059176
    71  H    0.041794
    72  H    0.191390
    73  H    0.020765
    74  H    0.050025
    75  H    0.058182
    76  H    0.038763
    77  H    0.144027
    78  H    0.054428
    79  H    0.045265
 Sum of Mulliken charges =  -0.00000

 Dipole moment (field-independent basis, Debye):
    X=              1.2835    Y=              2.3996    Z=              2.8495  Tot=              3.9402
 Quadrupole moment (field-independent basis, Debye-Ang):
   XX=           -213.2009   YY=           -246.8793   ZZ=           -265.3423
   XY=            -11.0639   XZ=             25.6543   YZ=              2.1180

 Normal termination of Gaussian 16 at Sat Sep 14 07:55:37 2019.
