 Gaussian 16, Revision A.03,
 Gaussian 16:  ES64L-G16RevA.03 25-Dec-2016

 --------------------------
 # td=(NStates=1) B3LYP/SVP
 --------------------------

 --
 TD
 --
 Symbolic Z-matrix:
 Charge =  0 Multiplicity = 1

                         Standard orientation:
 ---------------------------------------------------------------------
 Center     Atomic      Atomic             Coordinates (Angstroms)
 Number     Number       Type             X           Y           Z
 ---------------------------------------------------------------------
      1          8           0        5.410432    0.169712   -3.145025
      2          8           0       -3.274760   -2.709603    3.300405
      3          8           0       -3.488360   -0.526847    2.682501
      4          8           0       -1.520806    7.135917    1.460996
      5          8           0       -0.503596    7.045540   -0.514102
      6          8           0       -1.733453   -3.994742    0.147393
      7          7           0        2.400020    0.850617    0.574596
      8          7           0        4.454851   -0.729178   -1.233282
      9          7           0       -1.871280    0.657118   -0.344643
     10          7           0       -2.697697   -1.839704   -0.411950
     11          6           0        4.823031   -1.368888    0.047591
     12          6           0        4.415373   -0.492189    1.222185
     13          6           0        2.984778   -0.163218    1.314311
     14          6           0        1.933052   -0.739507    2.094715
     15          6           0        0.733851   -0.009680    1.760419
     16          6           0        0.989261    0.952018    0.735921
     17          6           0        6.300043   -1.410446   -0.083471
     18          6           0       -0.646616   -0.063795    2.453415
     19          6           0        6.730871   -0.882549   -1.317619
     20          6           0        0.220965    1.926176   -0.036347
     21          6           0       -1.080757    1.765181   -0.368034
     22          6           0        5.488817   -0.436264   -2.023503
     23          6           0       -1.922649    2.875643   -0.893758
     24          6           0        1.981211   -1.674144    3.244982
     25          6           0        7.260391   -2.043538    0.924151
     26          6           0       -3.141088    2.276936   -1.291815
     27          6           0       -1.292650   -1.505360    2.614031
     28          6           0       -3.090244    0.902183   -1.026728
     29          6           0       -1.518432    4.319917   -0.953662
     30          6           0        8.035658   -0.750096   -1.972876
     31          6           0       -1.671783    4.984242    0.411673
     32          6           0       -4.364046    3.007222   -1.825605
     33          6           0       -3.994966   -0.154957   -1.288883
     34          6           0       -2.806473   -1.534798    2.893144
     35          6           0       -3.795992   -1.488671   -1.028448
     36          6           0        9.228967   -0.695420   -1.362696
     37          6           0       -1.120899    6.372227    0.378689
     38          6           0       -4.628997   -2.605877   -1.433453
     39          6           0       -3.869176   -3.760325   -1.192379
     40          6           0       -2.566439   -3.307813   -0.465835
     41          6           0       -5.827733   -2.400451   -2.186198
     42          6           0       -4.190597   -5.130378   -1.206482
     43          6           0       -6.645461   -3.450217   -2.584416
     44          1           0        4.436391   -2.495963    0.199973
     45          1           0        5.275694    0.359841    1.252472
     46          1           0        4.599368   -0.969093    2.056903
     47          1           0        2.833736    1.398073   -0.164340
     48          1           0        3.480529   -0.393047   -1.522257
     49          1           0       -0.728483    0.375874    3.456459
     50          1           0       -1.312634    0.705573    1.861616
     51          1           0        0.758269    2.717321   -0.325521
     52          1           0        2.879391   -1.796461    3.680698
     53          1           0        1.256308   -1.384482    4.037556
     54          1           0        1.619485   -2.676177    3.024129
     55          1           0        6.878618   -3.130861    1.262462
     56          1           0        7.363121   -1.360860    1.667372
     57          1           0        8.103933   -2.443897    0.474351
     58          1           0       -1.244031   -2.226956    1.735885
     59          1           0       -0.900915   -2.095017    3.567746
     60          1           0       -1.368127   -0.203159   -0.228671
     61          1           0       -2.201964    4.688772   -1.738813
     62          1           0       -0.465461    4.264995   -1.261104
     63          1           0        7.952626   -0.614610   -3.119244
     64          1           0       -1.229760    4.394676    1.253058
     65          1           0       -2.804618    5.201776    0.596432
     66          1           0       -4.031581    3.947734   -2.388392
     67          1           0       -5.025421    3.269422   -0.870528
     68          1           0       -4.919211    2.336831   -2.629317
     69          1           0       -5.068023    0.189265   -1.700077
     70          1           0        9.449692   -0.748727   -0.235470
     71          1           0        9.984915   -0.625127   -2.154604
     72          1           0       -4.107661   -2.652823    3.505088
     73          1           0       -5.867275   -1.420985   -2.490559
     74          1           0       -5.219461   -5.455171   -0.571196
     75          1           0       -4.582486   -5.525533   -2.290826
     76          1           0       -3.327028   -5.640294   -0.855037
     77          1           0       -1.221232    8.084643    1.252287
     78          1           0       -7.582618   -3.082561   -3.022195
     79          1           0       -6.488621   -4.403761   -2.184829
 ---------------------------------------------------------------------

 SCF Done:  E(RB3LYP) =  -1947.87657886     A.U. after   17 cycles

 Excitation energies and oscillator strengths:

 Excited State   1:      Singlet-A      1.8960 eV  653.92 nm  f=0.2684  <S**2>=0.000
     154 ->156         0.34323
     155 ->156         0.60888
     155 <-156        -0.10326
 This state for optimization and/or second-order correction.
 Total Energy, E(TD-HF/TD-DFT) =  -1947.80690161
 Copying the excited state density for this state as the 1-particle RhoCI density.

 The electronic state is 1-A.
 Alpha  occ. eigenvalues --  -19.18176 -19.17150 -19.13264 -19.12051 -19.10293
 Alpha  occ. eigenvalues --  -19.08758 -14.38795 -14.36483 -14.36422 -14.28287
 Alpha  occ. eigenvalues --  -10.33428 -10.30535 -10.27915 -10.27702 -10.26463
 Alpha  occ. eigenvalues --  -10.25360 -10.24273 -10.24129 -10.23928 -10.23655
 Alpha  occ. eigenvalues --  -10.22817 -10.22599 -10.22066 -10.22065 -10.22053
 Alpha  occ. eigenvalues --  -10.21951 -10.21691 -10.21394 -10.20744 -10.20739
 Alpha  occ. eigenvalues --  -10.20680 -10.20257 -10.20101 -10.20096 -10.20081
 Alpha  occ. eigenvalues --  -10.20079 -10.20034 -10.19945 -10.19781 -10.19754
 Alpha  occ. eigenvalues --  -10.19445 -10.19436 -10.18553  -1.10493  -1.07947
 Alpha  occ. eigenvalues --   -1.00829  -1.00173  -0.98589  -0.98355  -0.97534
 Alpha  occ. eigenvalues --   -0.97330  -0.93095  -0.91738  -0.83645  -0.82636
 Alpha  occ. eigenvalues --   -0.81933  -0.80907  -0.80567  -0.80127  -0.78738
 Alpha  occ. eigenvalues --   -0.77400  -0.76439  -0.75221  -0.74780  -0.72622
 Alpha  occ. eigenvalues --   -0.71774  -0.71651  -0.70149  -0.69597  -0.69226
 Alpha  occ. eigenvalues --   -0.67742  -0.66642  -0.64384  -0.61082  -0.60734
 Alpha  occ. eigenvalues --   -0.60046  -0.59189  -0.58730  -0.57852  -0.56992
 Alpha  occ. eigenvalues --   -0.56514  -0.55639  -0.55263  -0.54223  -0.53548
 Alpha  occ. eigenvalues --   -0.52043  -0.51536  -0.51262  -0.50522  -0.50283
 Alpha  occ. eigenvalues --   -0.49305  -0.48777  -0.47899  -0.47742  -0.47554
 Alpha  occ. eigenvalues --   -0.47215  -0.46757  -0.46683  -0.46503  -0.46182
 Alpha  occ. eigenvalues --   -0.45549  -0.45280  -0.44947  -0.44604  -0.43324
 Alpha  occ. eigenvalues --   -0.43073  -0.42692  -0.42579  -0.42319  -0.42179
 Alpha  occ. eigenvalues --   -0.41934  -0.41655  -0.41511  -0.41463  -0.41377
 Alpha  occ. eigenvalues --   -0.41005  -0.40724  -0.40345  -0.39957  -0.39680
 Alpha  occ. eigenvalues --   -0.39231  -0.38988  -0.38651  -0.38359  -0.38211
 Alpha  occ. eigenvalues --   -0.38050  -0.37851  -0.37206  -0.37186  -0.36941
 Alpha  occ. eigenvalues --   -0.36717  -0.36540  -0.36242  -0.36062  -0.34853
 Alpha  occ. eigenvalues --   -0.34597  -0.34294  -0.32492  -0.31564  -0.31488
 Alpha  occ. eigenvalues --   -0.31062  -0.30748  -0.28941  -0.28171  -0.27655
 Alpha  occ. eigenvalues --   -0.26146  -0.25889  -0.25374  -0.24753  -0.24393
 Alpha  occ. eigenvalues --   -0.24147  -0.23812  -0.23568  -0.21377  -0.19201
 Alpha virt. eigenvalues --   -0.11581  -0.07172  -0.06212  -0.02813  -0.01200
 Alpha virt. eigenvalues --    0.00096   0.01174   0.02283   0.02558   0.02792
 Alpha virt. eigenvalues --    0.03519   0.04355   0.04420   0.04844   0.05237

 Mulliken charges:
               1
     1  O   -0.298954
     2  O   -0.085530
     3  O   -0.263208
     4  O   -0.234240
     5  O   -0.287236
     6  O   -0.222567
     7  N   -0.111400
     8  N   -0.183718
     9  N   -0.053385
    10  N   -0.302891
    11  C    0.105660
    12  C    0.224919
    13  C   -0.069635
    14  C   -0.105702
    15  C   -0.084808
    16  C    0.023140
    17  C   -0.245894
    18  C    0.039046
    19  C   -0.023650
    20  C   -0.031119
    21  C    0.097405
    22  C    0.130709
    23  C   -0.150215
    24  C    0.156711
    25  C    0.134299
    26  C   -0.115759
    27  C   -0.056168
    28  C    0.143797
    29  C    0.148657
    30  C   -0.048595
    31  C   -0.008321
    32  C    0.012299
    33  C   -0.152202
    34  C    0.114209
    35  C    0.086679
    36  C   -0.031293
    37  C    0.168243
    38  C    0.049534
    39  C   -0.173955
    40  C    0.210226
    41  C   -0.017955
    42  C   -0.007279
    43  C    0.036558
    44  H    0.054433
    45  H    0.029042
    46  H   -0.066755
    47  H    0.113266
    48  H    0.147123
    49  H    0.008441
    50  H    0.047134
    51  H   -0.066573
    52  H   -0.031913
    53  H    0.013627
    54  H    0.019446
    55  H    0.022824
    56  H    0.019418
    57  H    0.012113
    58  H    0.081966
    59  H    0.027724
    60  H    0.145846
    61  H    0.016905
    62  H    0.030081
    63  H    0.046630
    64  H    0.072977
    65  H    0.071421
    66  H    0.034837
    67  H    0.068976
    68  H    0.049592
    69  H    0.016953
    70  H    0.044607
    71  H    0.030247
    72  H    0.114110
    73  H   -0.048091
    74  H    0.053250
    75  H    0.042370
    76  H    0.028322
    77  H    0.206777
    78  H    0.026644
    79  H   -0.000182
 Sum of Mulliken charges =  -0.00000

 Dipole moment (field-independent basis, Debye):
    X=             -0.2054    Y=              0.9594    Z=              3.7938  Tot=              3.9186
 Quadrupole moment (field-independent basis, Debye-Ang):
   XX=           -222.8779   YY=           -253.1729   ZZ=           -261.6990
   XY=            -15.5175   XZ=             31.7269   YZ=              1.5825

 Normal termination of Gaussian 16 at Fri Sep 20 16:35:44 2019.
