 Gaussian 16, Revision A.03,
 Gaussian 16:  ES64L-G16RevA.03 25-Dec-2016

 --------------------------
 # td=(NStates=1) B3LYP/SVP
 --------------------------

 --
 TD
 --
 Symbolic Z-matrix:
 Charge =  0 Multiplicity = 1

                         Standard orientation:
 ---------------------------------------------------------------------
 Center     Atomic      Atomic             Coordinates (Angstroms)
 Number     Number       Type             X           Y           Z
 ---------------------------------------------------------------------
      1          8           0       -3.322627   -1.330969   -2.886840
      2          8           0        2.799759    3.176477    3.151038
      3          8           0        3.448494    1.545133    4.454935
      4          8           0        7.917968   -1.655833   -0.669957
      5          8           0        6.868725   -2.778612   -2.285609
      6          8           0       -2.809876    1.586671    1.412937
      7          7           0       -0.141864   -2.467341    0.965743
      8          7           0       -2.778642   -1.222861   -0.667062
      9          7           0        1.239678    0.065585   -0.628110
     10          7           0       -1.083730    1.476133   -0.125827
     11          6           0       -3.327654   -1.424915    0.586720
     12          6           0       -2.594484   -2.415107    1.502114
     13          6           0       -1.219140   -2.097040    1.798311
     14          6           0       -0.612325   -1.259524    2.725873
     15          6           0        0.697939   -1.172256    2.512780
     16          6           0        0.964560   -1.793320    1.343913
     17          6           0       -4.765642   -1.928429    0.200817
     18          6           0        1.910432   -0.405962    3.170450
     19          6           0       -4.760356   -2.093486   -1.183750
     20          6           0        2.219948   -1.867755    0.468294
     21          6           0        2.094879   -0.878687   -0.599374
     22          6           0       -3.554450   -1.515403   -1.684093
     23          6           0        3.080097   -0.631138   -1.618461
     24          6           0       -1.412186   -0.605611    3.816252
     25          6           0       -5.848200   -2.112352    1.198665
     26          6           0        2.645928    0.470711   -2.335584
     27          6           0        1.815735    1.068638    2.752886
     28          6           0        1.387077    0.895345   -1.689725
     29          6           0        4.349375   -1.383805   -1.942843
     30          6           0       -5.744478   -2.612191   -2.038467
     31          6           0        5.591944   -1.077925   -1.037939
     32          6           0        3.196790    1.057852   -3.665338
     33          6           0        0.499565    2.043010   -1.945930
     34          6           0        2.831019    1.940672    3.483334
     35          6           0       -0.579240    2.327678   -1.170008
     36          6           0       -6.892681   -3.239660   -1.729918
     37          6           0        6.827838   -1.889541   -1.389147
     38          6           0       -1.464841    3.467570   -1.276007
     39          6           0       -2.416140    3.305816   -0.252731
     40          6           0       -2.158886    2.051978    0.468451
     41          6           0       -1.254255    4.585093   -2.217996
     42          6           0       -3.517070    4.347599    0.069361
     43          6           0       -1.783669    5.805304   -2.249488
     44          1           0       -3.467708   -0.517307    1.233422
     45          1           0       -2.479541   -3.433002    0.950219
     46          1           0       -3.330438   -2.323034    2.460945
     47          1           0       -0.213951   -2.923793    0.146910
     48          1           0       -1.992324   -0.621536   -0.823277
     49          1           0        1.842535   -0.536621    4.284845
     50          1           0        2.872061   -0.830457    2.856024
     51          1           0        3.171825   -2.595095    0.447383
     52          1           0       -2.129065   -1.355885    4.205631
     53          1           0       -0.770194   -0.231822    4.690381
     54          1           0       -1.905479    0.184387    3.487707
     55          1           0       -5.736506   -1.687122    2.177413
     56          1           0       -6.048552   -3.174604    1.406222
     57          1           0       -6.780888   -1.920918    0.720765
     58          1           0        2.129754    1.120797    1.690675
     59          1           0        0.846488    1.616209    2.866189
     60          1           0        0.067915    0.253191   -0.185281
     61          1           0        4.573027   -1.246635   -3.059165
     62          1           0        4.248485   -2.296109   -1.691041
     63          1           0       -5.502303   -2.512942   -3.163386
     64          1           0        5.410303   -1.500289    0.231862
     65          1           0        5.929050   -0.030603   -0.899858
     66          1           0        4.014650    0.530816   -3.993700
     67          1           0        3.571917    2.110392   -3.505490
     68          1           0        2.372697    0.784321   -4.386786
     69          1           0        0.841451    2.875858   -2.977953
     70          1           0       -7.058916   -3.458460   -0.640653
     71          1           0       -7.547475   -3.534378   -2.714122
     72          1           0        3.581696    3.605580    3.566936
     73          1           0       -0.687929    4.167293   -3.103694
     74          1           0       -3.938060    4.627452   -1.037628
     75          1           0       -4.322388    3.901715    0.734140
     76          1           0       -3.342886    5.122523    0.701005
     77          1           0        8.616478   -2.259136   -0.990805
     78          1           0       -1.661583    6.767120   -3.034389
     79          1           0       -2.286366    6.239601   -1.305197
 ---------------------------------------------------------------------

 SCF Done:  E(RB3LYP) =  -1947.80124283     A.U. after   20 cycles

 Excitation energies and oscillator strengths:

 Excited State   1:      Singlet-A      0.9086 eV 1364.49 nm  f=0.0027  <S**2>=0.000
     155 ->156         0.70213
 This state for optimization and/or second-order correction.
 Total Energy, E(TD-HF/TD-DFT) =  -1947.76785068
 Copying the excited state density for this state as the 1-particle RhoCI density.

 The electronic state is 1-A.
 Alpha  occ. eigenvalues --  -19.20278 -19.18923 -19.13209 -19.10994 -19.10920
 Alpha  occ. eigenvalues --  -19.06746 -14.37997 -14.36556 -14.33037 -14.31429
 Alpha  occ. eigenvalues --  -10.33936 -10.30689 -10.27892 -10.27585 -10.26086
 Alpha  occ. eigenvalues --  -10.26009 -10.25575 -10.25437 -10.25167 -10.24205
 Alpha  occ. eigenvalues --  -10.23069 -10.22850 -10.22183 -10.22080 -10.22004
 Alpha  occ. eigenvalues --  -10.21980 -10.21739 -10.21551 -10.21466 -10.21219
 Alpha  occ. eigenvalues --  -10.21112 -10.20812 -10.20131 -10.20066 -10.19839
 Alpha  occ. eigenvalues --  -10.19593 -10.19150 -10.18943 -10.17951 -10.17440
 Alpha  occ. eigenvalues --  -10.16505 -10.16461 -10.16322  -1.11983  -1.11478
 Alpha  occ. eigenvalues --   -1.02530  -1.01506  -1.00541  -0.99583  -0.99346
 Alpha  occ. eigenvalues --   -0.98298  -0.93251  -0.92576  -0.83938  -0.82201
 Alpha  occ. eigenvalues --   -0.81122  -0.80940  -0.80609  -0.79301  -0.79092
 Alpha  occ. eigenvalues --   -0.76818  -0.76586  -0.74997  -0.74556  -0.73402
 Alpha  occ. eigenvalues --   -0.71569  -0.70954  -0.70523  -0.70151  -0.68454
 Alpha  occ. eigenvalues --   -0.67439  -0.66693  -0.63091  -0.61789  -0.61328
 Alpha  occ. eigenvalues --   -0.60174  -0.59822  -0.59319  -0.57664  -0.57148
 Alpha  occ. eigenvalues --   -0.56797  -0.56252  -0.55095  -0.54132  -0.52736
 Alpha  occ. eigenvalues --   -0.52174  -0.51305  -0.50975  -0.50050  -0.49601
 Alpha  occ. eigenvalues --   -0.49232  -0.49196  -0.48991  -0.48506  -0.47944
 Alpha  occ. eigenvalues --   -0.47569  -0.47061  -0.46670  -0.46188  -0.45678
 Alpha  occ. eigenvalues --   -0.45510  -0.45283  -0.44839  -0.44280  -0.44093
 Alpha  occ. eigenvalues --   -0.43684  -0.43453  -0.42973  -0.42404  -0.42335
 Alpha  occ. eigenvalues --   -0.42146  -0.42067  -0.41697  -0.41357  -0.40667
 Alpha  occ. eigenvalues --   -0.40433  -0.40193  -0.39822  -0.39499  -0.39365
 Alpha  occ. eigenvalues --   -0.39046  -0.38901  -0.38661  -0.38469  -0.37921
 Alpha  occ. eigenvalues --   -0.37438  -0.37281  -0.37062  -0.36891  -0.36448
 Alpha  occ. eigenvalues --   -0.36038  -0.35995  -0.35799  -0.35352  -0.34066
 Alpha  occ. eigenvalues --   -0.33658  -0.33176  -0.32671  -0.31723  -0.31657
 Alpha  occ. eigenvalues --   -0.31487  -0.30230  -0.29210  -0.28780  -0.28611
 Alpha  occ. eigenvalues --   -0.27754  -0.26805  -0.25536  -0.24570  -0.24190
 Alpha  occ. eigenvalues --   -0.23708  -0.23064  -0.22677  -0.21686  -0.19759
 Alpha virt. eigenvalues --   -0.13783  -0.08037  -0.04449  -0.03038  -0.01708
 Alpha virt. eigenvalues --    0.00670   0.01127   0.01455   0.01988   0.03111
 Alpha virt. eigenvalues --    0.03365   0.03942   0.04279   0.04441   0.05059

 Mulliken charges:
               1
     1  O   -0.274461
     2  O   -0.120800
     3  O   -0.253029
     4  O   -0.155456
     5  O   -0.286772
     6  O   -0.233215
     7  N   -0.011876
     8  N   -0.079445
     9  N   -0.107056
    10  N   -0.374770
    11  C    0.056493
    12  C    0.151841
    13  C   -0.075022
    14  C   -0.159595
    15  C   -0.058193
    16  C   -0.062110
    17  C   -0.191420
    18  C    0.141624
    19  C    0.003568
    20  C   -0.077236
    21  C    0.017949
    22  C    0.072671
    23  C   -0.104293
    24  C    0.152073
    25  C    0.132378
    26  C   -0.170120
    27  C   -0.014670
    28  C    0.041920
    29  C    0.264168
    30  C   -0.064874
    31  C   -0.120722
    32  C    0.142546
    33  C   -0.147707
    34  C    0.078152
    35  C    0.148457
    36  C   -0.063651
    37  C    0.147854
    38  C    0.033498
    39  C   -0.180500
    40  C    0.189082
    41  C    0.020341
    42  C    0.053364
    43  C   -0.119441
    44  H    0.050648
    45  H   -0.012700
    46  H    0.012169
    47  H    0.062639
    48  H    0.110284
    49  H    0.020000
    50  H   -0.007106
    51  H    0.062851
    52  H    0.003521
    53  H    0.000174
    54  H   -0.013226
    55  H    0.017320
    56  H    0.020849
    57  H    0.015387
    58  H    0.024794
    59  H    0.060321
    60  H    0.293261
    61  H    0.050908
    62  H   -0.066020
    63  H    0.020506
    64  H    0.074300
    65  H    0.048797
    66  H   -0.024383
    67  H    0.046638
    68  H    0.058034
    69  H    0.073509
    70  H    0.004391
    71  H    0.051437
    72  H    0.183860
    73  H    0.012186
    74  H    0.064374
    75  H    0.018503
    76  H    0.014931
    77  H    0.194804
    78  H    0.064173
    79  H    0.046323
 Sum of Mulliken charges =  -0.00000

 Dipole moment (field-independent basis, Debye):
    X=              5.1957    Y=              2.7731    Z=             -0.6801  Tot=              5.9286
 Quadrupole moment (field-independent basis, Debye-Ang):
   XX=           -235.3175   YY=           -234.8729   ZZ=           -275.5511
   XY=              4.3597   XZ=            -22.3510   YZ=            -14.6012

 Normal termination of Gaussian 16 at Thu Jul 25 11:29:30 2019.
