 Gaussian 16, Revision A.03,
 Gaussian 16:  ES64L-G16RevA.03 25-Dec-2016

 --------------------------
 # td=(NStates=1) B3LYP/SVP
 --------------------------

 --
 TD
 --
 Symbolic Z-matrix:
 Charge =  0 Multiplicity = 1

                         Standard orientation:
 ---------------------------------------------------------------------
 Center     Atomic      Atomic             Coordinates (Angstroms)
 Number     Number       Type             X           Y           Z
 ---------------------------------------------------------------------
      1          8           0       -3.227246   -0.974706   -2.953996
      2          8           0        2.883003    2.962200    3.260822
      3          8           0        3.428927    1.143243    4.448753
      4          8           0        7.943909   -1.228232   -0.911328
      5          8           0        6.687628   -2.899532   -2.004839
      6          8           0       -2.735372    1.353000    1.458999
      7          7           0       -0.346868   -2.530392    0.622508
      8          7           0       -2.572096   -1.233246   -0.752457
      9          7           0        1.127254    0.051106   -0.739096
     10          7           0       -1.008302    1.363921   -0.043848
     11          6           0       -3.269314   -1.453884    0.549504
     12          6           0       -2.545247   -2.609567    1.422420
     13          6           0       -1.208148   -2.245502    1.556406
     14          6           0       -0.560864   -1.477744    2.643255
     15          6           0        0.749131   -1.413430    2.322681
     16          6           0        0.952209   -2.010790    1.030305
     17          6           0       -4.736017   -1.880533    0.156735
     18          6           0        1.774053   -0.642539    3.110322
     19          6           0       -4.774804   -1.898704   -1.262848
     20          6           0        2.082827   -1.955325    0.214058
     21          6           0        2.133666   -0.921537   -0.678122
     22          6           0       -3.471742   -1.325267   -1.815467
     23          6           0        3.026023   -0.545128   -1.702400
     24          6           0       -1.325401   -0.828970    3.717196
     25          6           0       -5.738890   -2.253891    1.155062
     26          6           0        2.537039    0.630032   -2.375715
     27          6           0        1.754403    0.932890    2.781948
     28          6           0        1.401140    1.046334   -1.649986
     29          6           0        4.306870   -1.277886   -2.009876
     30          6           0       -5.864449   -2.187246   -2.247740
     31          6           0        5.495521   -1.042782   -1.057913
     32          6           0        3.063987    1.366113   -3.687565
     33          6           0        0.498270    2.197955   -1.824958
     34          6           0        2.777406    1.574402    3.568331
     35          6           0       -0.621368    2.313505   -0.950849
     36          6           0       -6.982318   -2.907753   -1.988330
     37          6           0        6.798528   -1.842373   -1.425783
     38          6           0       -1.409579    3.571132   -0.916093
     39          6           0       -2.316395    3.344457    0.044612
     40          6           0       -1.968554    1.923064    0.604495
     41          6           0       -1.249143    4.694000   -1.887029
     42          6           0       -3.475441    4.311409    0.613249
     43          6           0       -1.806290    5.899342   -1.877642
     44          1           0       -3.185434   -0.583420    1.199672
     45          1           0       -2.635095   -3.629757    0.897565
     46          1           0       -2.964926   -2.707830    2.390811
     47          1           0       -0.737835   -2.958929   -0.364003
     48          1           0       -2.064817   -0.258109   -0.772693
     49          1           0        1.421954   -0.806358    4.146472
     50          1           0        2.858244   -0.891729    2.767763
     51          1           0        2.801417   -2.644309    0.234184
     52          1           0       -1.702785   -1.645520    4.297047
     53          1           0       -0.583514   -0.386684    4.273628
     54          1           0       -2.300323   -0.263289    3.449198
     55          1           0       -5.614238   -1.444289    1.977871
     56          1           0       -5.364486   -3.247973    1.566749
     57          1           0       -6.749562   -2.157886    0.711379
     58          1           0        1.764177    1.328289    1.716689
     59          1           0        0.822700    1.454551    3.085611
     60          1           0        0.311191    0.081874   -0.053900
     61          1           0        4.787946   -0.749100   -3.063459
     62          1           0        4.175340   -2.459587   -2.074146
     63          1           0       -5.751540   -1.855528   -3.313855
     64          1           0        5.368979   -1.254506    0.019403
     65          1           0        5.856170    0.019243   -0.834963
     66          1           0        3.993115    0.878254   -4.024864
     67          1           0        3.475079    2.550054   -3.423526
     68          1           0        2.376884    1.469985   -4.433373
     69          1           0        0.960029    3.070260   -2.504539
     70          1           0       -7.073589   -3.260186   -0.933521
     71          1           0       -7.752058   -3.244920   -2.679698
     72          1           0        3.610909    3.191882    3.847205
     73          1           0       -0.355444    4.702683   -2.415518
     74          1           0       -4.176519    4.550942   -0.202529
     75          1           0       -3.858571    3.994921    1.545829
     76          1           0       -2.757089    5.229397    0.663001
     77          1           0        8.731594   -1.788418   -1.036194
     78          1           0       -1.430354    6.662882   -2.422530
     79          1           0       -2.666907    6.142903   -1.027369
 ---------------------------------------------------------------------

 SCF Done:  E(RB3LYP) =  -1947.84590834     A.U. after   22 cycles

 Excitation energies and oscillator strengths:

 Excited State   1:      Singlet-A      0.6785 eV 1827.26 nm  f=0.0108  <S**2>=0.000
     155 ->156         0.70690
 This state for optimization and/or second-order correction.
 Total Energy, E(TD-HF/TD-DFT) =  -1947.82097293
 Copying the excited state density for this state as the 1-particle RhoCI density.

 The electronic state is 1-A.
 Alpha  occ. eigenvalues --  -19.19998 -19.15799 -19.14721 -19.13062 -19.10000
 Alpha  occ. eigenvalues --  -19.08703 -14.38134 -14.37172 -14.32778 -14.31078
 Alpha  occ. eigenvalues --  -10.34129 -10.31124 -10.27164 -10.26894 -10.26650
 Alpha  occ. eigenvalues --  -10.25641 -10.25015 -10.24522 -10.23612 -10.23536
 Alpha  occ. eigenvalues --  -10.22994 -10.22800 -10.22290 -10.22166 -10.22134
 Alpha  occ. eigenvalues --  -10.21376 -10.21222 -10.21100 -10.20719 -10.20707
 Alpha  occ. eigenvalues --  -10.20688 -10.20582 -10.20562 -10.20336 -10.20230
 Alpha  occ. eigenvalues --  -10.19955 -10.19390 -10.19286 -10.19253 -10.18148
 Alpha  occ. eigenvalues --  -10.17932 -10.17136 -10.16516  -1.09321  -1.09140
 Alpha  occ. eigenvalues --   -1.02492  -1.00702  -1.00507  -0.99832  -0.99232
 Alpha  occ. eigenvalues --   -0.96783  -0.93525  -0.90103  -0.83462  -0.82514
 Alpha  occ. eigenvalues --   -0.81586  -0.81147  -0.79520  -0.78526  -0.77683
 Alpha  occ. eigenvalues --   -0.77274  -0.76431  -0.75821  -0.74709  -0.73005
 Alpha  occ. eigenvalues --   -0.70986  -0.70276  -0.69191  -0.69064  -0.67371
 Alpha  occ. eigenvalues --   -0.66889  -0.65302  -0.62737  -0.61265  -0.60620
 Alpha  occ. eigenvalues --   -0.59597  -0.57879  -0.57577  -0.56664  -0.55853
 Alpha  occ. eigenvalues --   -0.55249  -0.54625  -0.53929  -0.53298  -0.53091
 Alpha  occ. eigenvalues --   -0.51773  -0.51070  -0.50528  -0.49909  -0.49643
 Alpha  occ. eigenvalues --   -0.49073  -0.48815  -0.48414  -0.48164  -0.47643
 Alpha  occ. eigenvalues --   -0.47390  -0.46776  -0.46446  -0.46045  -0.45971
 Alpha  occ. eigenvalues --   -0.45363  -0.45060  -0.44213  -0.44133  -0.44003
 Alpha  occ. eigenvalues --   -0.43480  -0.42931  -0.42563  -0.42452  -0.42324
 Alpha  occ. eigenvalues --   -0.41705  -0.41600  -0.41283  -0.41090  -0.41024
 Alpha  occ. eigenvalues --   -0.40813  -0.40585  -0.40307  -0.39995  -0.39713
 Alpha  occ. eigenvalues --   -0.39248  -0.39017  -0.38868  -0.38778  -0.37982
 Alpha  occ. eigenvalues --   -0.37885  -0.37797  -0.37622  -0.36861  -0.36332
 Alpha  occ. eigenvalues --   -0.36022  -0.35259  -0.34795  -0.34608  -0.34345
 Alpha  occ. eigenvalues --   -0.34185  -0.34042  -0.33464  -0.32156  -0.31698
 Alpha  occ. eigenvalues --   -0.31642  -0.29759  -0.29570  -0.29445  -0.28916
 Alpha  occ. eigenvalues --   -0.28558  -0.26706  -0.25549  -0.24766  -0.24231
 Alpha  occ. eigenvalues --   -0.23941  -0.23635  -0.22599  -0.22009  -0.17997
 Alpha virt. eigenvalues --   -0.13001  -0.07160  -0.04415  -0.01909  -0.01528
 Alpha virt. eigenvalues --    0.00512   0.01255   0.01779   0.02360   0.03187
 Alpha virt. eigenvalues --    0.03579   0.03767   0.04268   0.04698   0.05072

 Mulliken charges:
               1
     1  O   -0.226543
     2  O   -0.243435
     3  O   -0.189816
     4  O   -0.219801
     5  O   -0.209310
     6  O   -0.295777
     7  N   -0.087130
     8  N   -0.262756
     9  N   -0.139000
    10  N   -0.239042
    11  C    0.035021
    12  C    0.183807
    13  C   -0.130888
    14  C   -0.150724
    15  C   -0.080685
    16  C    0.002883
    17  C   -0.145315
    18  C    0.110812
    19  C   -0.069438
    20  C   -0.054215
    21  C    0.131604
    22  C    0.137204
    23  C   -0.050110
    24  C    0.182971
    25  C    0.066139
    26  C   -0.108555
    27  C   -0.021033
    28  C    0.085567
    29  C    0.007648
    30  C   -0.021662
    31  C   -0.032495
    32  C    0.076790
    33  C   -0.130701
    34  C    0.117165
    35  C    0.118181
    36  C   -0.046493
    37  C    0.161585
    38  C    0.025324
    39  C   -0.221953
    40  C    0.135024
    41  C    0.056407
    42  C    0.082746
    43  C   -0.040064
    44  H    0.054851
    45  H   -0.008558
    46  H   -0.027521
    47  H    0.183144
    48  H    0.186454
    49  H    0.032872
    50  H    0.023576
    51  H   -0.052739
    52  H   -0.015223
    53  H   -0.043878
    54  H    0.060563
    55  H    0.040073
    56  H    0.056975
    57  H    0.048826
    58  H    0.044005
    59  H    0.050935
    60  H    0.219855
    61  H    0.047575
    62  H    0.070308
    63  H    0.018844
    64  H    0.034148
    65  H    0.025677
    66  H    0.018788
    67  H    0.044460
    68  H    0.031192
    69  H    0.041337
    70  H    0.006643
    71  H    0.024152
    72  H    0.159501
    73  H   -0.034719
    74  H    0.048474
    75  H    0.032028
    76  H    0.048960
    77  H    0.191090
    78  H   -0.001597
    79  H    0.038995
 Sum of Mulliken charges =  -0.00000

 Dipole moment (field-independent basis, Debye):
    X=              4.2825    Y=              1.4631    Z=             -0.2488  Tot=              4.5323
 Quadrupole moment (field-independent basis, Debye-Ang):
   XX=           -228.3970   YY=           -238.5867   ZZ=           -268.8286
   XY=              6.6161   XZ=            -21.8982   YZ=            -13.2796

 Normal termination of Gaussian 16 at Sat Jul 27 00:01:52 2019.
