 Gaussian 16, Revision A.03,
 Gaussian 16:  ES64L-G16RevA.03 25-Dec-2016

 --------------------------
 # td=(NStates=1) B3LYP/SVP
 --------------------------

 --
 TD
 --
 Symbolic Z-matrix:
 Charge =  0 Multiplicity = 1

                         Standard orientation:
 ---------------------------------------------------------------------
 Center     Atomic      Atomic             Coordinates (Angstroms)
 Number     Number       Type             X           Y           Z
 ---------------------------------------------------------------------
      1          8           0        5.525475    0.034821   -3.256410
      2          8           0       -3.184610   -2.996581    3.287171
      3          8           0       -3.428987   -0.735757    3.126785
      4          8           0       -1.415054    7.327102    1.513389
      5          8           0       -0.341355    6.974495   -0.457200
      6          8           0       -1.837708   -4.011188   -0.115166
      7          7           0        2.334001    0.761551    0.586391
      8          7           0        4.398562   -0.641796   -1.371571
      9          7           0       -1.897725    0.705612   -0.353673
     10          7           0       -2.599356   -1.830054   -0.555233
     11          6           0        4.792870   -1.248657   -0.101293
     12          6           0        4.362329   -0.410773    1.215551
     13          6           0        2.869706   -0.211591    1.304306
     14          6           0        1.826506   -0.744257    2.178579
     15          6           0        0.619888   -0.108810    1.841995
     16          6           0        1.001401    0.887698    0.748605
     17          6           0        6.267913   -1.551317   -0.130222
     18          6           0       -0.677773   -0.224298    2.495723
     19          6           0        6.803849   -0.934562   -1.352627
     20          6           0        0.213779    1.894607    0.162847
     21          6           0       -1.110177    1.808651   -0.361847
     22          6           0        5.520637   -0.333797   -2.161145
     23          6           0       -1.949559    2.951255   -0.915838
     24          6           0        2.160024   -1.843631    3.268220
     25          6           0        7.066261   -2.158448    0.950339
     26          6           0       -3.144534    2.436320   -1.268976
     27          6           0       -1.315840   -1.637450    2.607623
     28          6           0       -3.126846    0.996850   -0.988414
     29          6           0       -1.398297    4.423815   -0.881484
     30          6           0        8.131389   -0.847795   -1.898429
     31          6           0       -1.591364    5.169023    0.503395
     32          6           0       -4.236179    3.129606   -2.010138
     33          6           0       -3.939853    0.050581   -1.341181
     34          6           0       -2.739804   -1.666718    3.065378
     35          6           0       -3.742582   -1.356878   -1.139007
     36          6           0        9.250891   -0.910084   -1.404198
     37          6           0       -0.932898    6.531535    0.421807
     38          6           0       -4.677221   -2.495017   -1.521721
     39          6           0       -4.044296   -3.704748   -1.193294
     40          6           0       -2.723559   -3.280380   -0.536419
     41          6           0       -5.929354   -2.365375   -2.120376
     42          6           0       -4.554837   -4.972843   -1.266400
     43          6           0       -6.768431   -3.328806   -2.596828
     44          1           0        4.211800   -2.277546    0.021299
     45          1           0        4.804267    0.570320    1.033822
     46          1           0        4.622453   -0.918994    2.004442
     47          1           0        2.809825    1.312343   -0.161952
     48          1           0        3.503805   -0.775290   -1.576535
     49          1           0       -0.593938    0.259818    3.599459
     50          1           0       -1.383706    0.615946    1.956512
     51          1           0        0.499298    3.003459    0.073830
     52          1           0        3.222631   -2.028659    3.644696
     53          1           0        1.608223   -1.546399    4.030541
     54          1           0        1.794598   -2.878087    2.782111
     55          1           0        6.597826   -2.742898    1.609768
     56          1           0        7.526285   -1.466885    1.798833
     57          1           0        8.189609   -2.657514    0.797776
     58          1           0       -1.104719   -2.073908    1.602444
     59          1           0       -0.677719   -2.269640    3.335593
     60          1           0       -1.607914   -0.349623    0.005369
     61          1           0       -1.876653    4.889821   -1.606543
     62          1           0       -0.271364    4.116746   -1.051811
     63          1           0        8.059564   -0.763803   -2.900344
     64          1           0       -0.864213    4.639302    1.243552
     65          1           0       -2.712255    5.092444    0.888430
     66          1           0       -4.007428    4.252909   -1.963958
     67          1           0       -5.256408    3.100006   -1.460072
     68          1           0       -4.338066    2.794208   -3.053431
     69          1           0       -4.864734    0.170372   -1.900322
     70          1           0        9.501744   -0.903900   -0.490739
     71          1           0       10.139045   -0.984925   -1.924120
     72          1           0       -4.181292   -2.814528    3.325805
     73          1           0       -6.310975   -1.244602   -1.940150
     74          1           0       -5.653331   -5.162763   -1.004817
     75          1           0       -4.319683   -5.412284   -2.293787
     76          1           0       -3.990186   -5.749286   -0.433219
     77          1           0       -0.908873    8.170264    1.507146
     78          1           0       -7.732540   -2.945946   -2.935183
     79          1           0       -6.329655   -4.393044   -2.941580
 ---------------------------------------------------------------------

 SCF Done:  E(RB3LYP) =  -1947.77155299     A.U. after   17 cycles

 Excitation energies and oscillator strengths:

 Excited State   1:      Singlet-A      1.8401 eV  673.78 nm  f=0.3802  <S**2>=0.000
     155 ->156         0.70447
     155 <-156        -0.11649
 This state for optimization and/or second-order correction.
 Total Energy, E(TD-HF/TD-DFT) =  -1947.70392973
 Copying the excited state density for this state as the 1-particle RhoCI density.

 The electronic state is 1-A.
 Alpha  occ. eigenvalues --  -19.16791 -19.16285 -19.14767 -19.12836 -19.11403
 Alpha  occ. eigenvalues --  -19.11218 -14.39367 -14.35978 -14.35193 -14.30143
 Alpha  occ. eigenvalues --  -10.32670 -10.30857 -10.29685 -10.27406 -10.25810
 Alpha  occ. eigenvalues --  -10.24093 -10.23936 -10.23889 -10.23270 -10.23201
 Alpha  occ. eigenvalues --  -10.23037 -10.22747 -10.21879 -10.21494 -10.21403
 Alpha  occ. eigenvalues --  -10.21378 -10.21336 -10.21161 -10.21075 -10.21029
 Alpha  occ. eigenvalues --  -10.20799 -10.20630 -10.20608 -10.20547 -10.20425
 Alpha  occ. eigenvalues --  -10.20345 -10.20135 -10.20017 -10.19985 -10.19743
 Alpha  occ. eigenvalues --  -10.18600 -10.17781 -10.16263  -1.10807  -1.08859
 Alpha  occ. eigenvalues --   -1.06256  -1.01402  -1.00963  -1.00033  -0.99689
 Alpha  occ. eigenvalues --   -0.96746  -0.94197  -0.90525  -0.82339  -0.82013
 Alpha  occ. eigenvalues --   -0.81784  -0.81133  -0.80626  -0.79964  -0.78231
 Alpha  occ. eigenvalues --   -0.77522  -0.76180  -0.75615  -0.74925  -0.71658
 Alpha  occ. eigenvalues --   -0.71474  -0.70526  -0.69698  -0.68843  -0.67752
 Alpha  occ. eigenvalues --   -0.66565  -0.65832  -0.64151  -0.63429  -0.60550
 Alpha  occ. eigenvalues --   -0.58745  -0.58191  -0.58009  -0.57386  -0.56641
 Alpha  occ. eigenvalues --   -0.55683  -0.55056  -0.54829  -0.53825  -0.53234
 Alpha  occ. eigenvalues --   -0.51556  -0.51162  -0.50665  -0.50425  -0.49615
 Alpha  occ. eigenvalues --   -0.49462  -0.49087  -0.48585  -0.48415  -0.47767
 Alpha  occ. eigenvalues --   -0.47492  -0.47069  -0.46347  -0.46105  -0.45972
 Alpha  occ. eigenvalues --   -0.45439  -0.45206  -0.44869  -0.44434  -0.44274
 Alpha  occ. eigenvalues --   -0.44069  -0.43557  -0.43408  -0.43032  -0.42708
 Alpha  occ. eigenvalues --   -0.42271  -0.41782  -0.41673  -0.41413  -0.41374
 Alpha  occ. eigenvalues --   -0.40825  -0.40559  -0.40157  -0.39986  -0.39813
 Alpha  occ. eigenvalues --   -0.39669  -0.39281  -0.39113  -0.39002  -0.38516
 Alpha  occ. eigenvalues --   -0.38343  -0.38131  -0.37544  -0.37249  -0.37041
 Alpha  occ. eigenvalues --   -0.36416  -0.35548  -0.35238  -0.34805  -0.34421
 Alpha  occ. eigenvalues --   -0.33866  -0.32932  -0.32860  -0.32461  -0.32136
 Alpha  occ. eigenvalues --   -0.31592  -0.31193  -0.29714  -0.28388  -0.28107
 Alpha  occ. eigenvalues --   -0.28053  -0.27262  -0.26268  -0.25830  -0.24711
 Alpha  occ. eigenvalues --   -0.24274  -0.23946  -0.23285  -0.22103  -0.18062
 Alpha virt. eigenvalues --   -0.10878  -0.06481  -0.06042  -0.01317  -0.00492
 Alpha virt. eigenvalues --    0.00966   0.01356   0.02032   0.02510   0.03080
 Alpha virt. eigenvalues --    0.03876   0.04221   0.04764   0.05099   0.05326

 Mulliken charges:
               1
     1  O   -0.137559
     2  O   -0.255286
     3  O   -0.163373
     4  O   -0.267450
     5  O   -0.134064
     6  O   -0.192147
     7  N    0.004421
     8  N   -0.166169
     9  N   -0.173141
    10  N   -0.329828
    11  C   -0.015199
    12  C    0.340192
    13  C   -0.151730
    14  C   -0.137460
    15  C   -0.074956
    16  C    0.073440
    17  C   -0.045679
    18  C   -0.059904
    19  C   -0.126500
    20  C   -0.132425
    21  C    0.008198
    22  C    0.166614
    23  C   -0.105604
    24  C    0.078360
    25  C    0.033111
    26  C   -0.118231
    27  C   -0.022353
    28  C    0.240582
    29  C    0.121871
    30  C    0.074501
    31  C   -0.037847
    32  C    0.065090
    33  C   -0.140480
    34  C    0.154833
    35  C    0.056293
    36  C    0.074670
    37  C    0.139912
    38  C    0.058414
    39  C   -0.127840
    40  C    0.183520
    41  C   -0.084345
    42  C   -0.061730
    43  C   -0.054995
    44  H    0.032677
    45  H   -0.006273
    46  H   -0.081423
    47  H    0.129169
    48  H    0.089354
    49  H    0.026608
    50  H    0.052572
    51  H   -0.005978
    52  H    0.025363
    53  H   -0.003817
    54  H    0.060634
    55  H   -0.025736
    56  H    0.031296
    57  H    0.052439
    58  H    0.082598
    59  H    0.035860
    60  H    0.231150
    61  H   -0.026991
    62  H    0.046941
    63  H   -0.041580
    64  H    0.052210
    65  H    0.083209
    66  H    0.015276
    67  H    0.032499
    68  H    0.045710
    69  H   -0.040093
    70  H   -0.075688
    71  H   -0.006226
    72  H    0.185012
    73  H    0.021024
    74  H    0.055245
    75  H    0.053308
    76  H    0.048273
    77  H    0.178522
    78  H    0.027749
    79  H    0.061383
 Sum of Mulliken charges =  -0.00000

 Dipole moment (field-independent basis, Debye):
    X=              0.5877    Y=              1.5947    Z=              2.3171  Tot=              2.8736
 Quadrupole moment (field-independent basis, Debye-Ang):
   XX=           -218.0759   YY=           -250.6773   ZZ=           -262.2404
   XY=             -7.1510   XZ=             35.5966   YZ=              4.6607

 Normal termination of Gaussian 16 at Thu Sep 19 15:21:21 2019.
