 Gaussian 16, Revision A.03,
 Gaussian 16:  ES64L-G16RevA.03 25-Dec-2016

 --------------------------
 # td=(NStates=1) B3LYP/SVP
 --------------------------

 --
 TD
 --
 Symbolic Z-matrix:
 Charge =  0 Multiplicity = 1

                         Standard orientation:
 ---------------------------------------------------------------------
 Center     Atomic      Atomic             Coordinates (Angstroms)
 Number     Number       Type             X           Y           Z
 ---------------------------------------------------------------------
      1          8           0        5.270533   -0.072070   -3.286745
      2          8           0       -3.043307   -3.033678    3.237804
      3          8           0       -3.404042   -0.875744    3.022332
      4          8           0       -2.080721    7.191095    1.450445
      5          8           0       -1.153988    7.186576   -0.484607
      6          8           0       -1.496293   -4.048529   -0.009969
      7          7           0        2.390737    0.943153    0.610819
      8          7           0        4.378916   -0.511298   -1.222594
      9          7           0       -1.837105    0.731646   -0.476284
     10          7           0       -2.362648   -2.006930   -0.637758
     11          6           0        4.952464   -1.017248    0.072440
     12          6           0        4.472637   -0.328487    1.289979
     13          6           0        2.989652    0.065104    1.455691
     14          6           0        1.939863   -0.600770    2.168847
     15          6           0        0.704596   -0.103254    1.758855
     16          6           0        0.982995    0.949184    0.818661
     17          6           0        6.439139   -1.052950   -0.085088
     18          6           0       -0.638953   -0.371785    2.495153
     19          6           0        6.709767   -0.680517   -1.361561
     20          6           0        0.167211    1.961614    0.088571
     21          6           0       -1.121789    1.857032   -0.349701
     22          6           0        5.395982   -0.326790   -2.087523
     23          6           0       -2.065312    2.871629   -0.862207
     24          6           0        2.138152   -1.708637    3.266533
     25          6           0        7.451579   -1.394994    1.025684
     26          6           0       -3.235426    2.342573   -1.283543
     27          6           0       -1.139526   -1.649978    2.573250
     28          6           0       -3.118592    0.948477   -0.998523
     29          6           0       -1.675287    4.368698   -0.936572
     30          6           0        7.955841   -0.507452   -2.125155
     31          6           0       -2.007719    5.048864    0.400622
     32          6           0       -4.414370    3.053176   -1.826903
     33          6           0       -3.964297   -0.282901   -1.363855
     34          6           0       -2.587547   -1.727987    3.043756
     35          6           0       -3.522681   -1.591678   -1.194438
     36          6           0        9.191867   -0.603816   -1.590125
     37          6           0       -1.699448    6.516971    0.322812
     38          6           0       -4.401074   -2.771442   -1.515781
     39          6           0       -3.672024   -3.869460   -1.121337
     40          6           0       -2.438318   -3.402988   -0.566291
     41          6           0       -5.735985   -2.711223   -2.117677
     42          6           0       -4.076767   -5.366539   -1.135240
     43          6           0       -6.592017   -3.672264   -2.556645
     44          1           0        4.606065   -1.974753    0.191873
     45          1           0        5.047112    0.553034    1.568539
     46          1           0        4.714212   -0.993702    2.085843
     47          1           0        2.889961    1.333858   -0.205830
     48          1           0        3.371391   -0.631099   -1.420452
     49          1           0       -0.696090    0.026006    3.454544
     50          1           0       -1.518008    0.111026    1.995105
     51          1           0        0.887586    2.745390    0.054818
     52          1           0        3.301046   -1.647700    3.789780
     53          1           0        1.556721   -1.440186    4.207669
     54          1           0        1.818293   -2.967006    3.050302
     55          1           0        6.905526   -2.001296    1.841281
     56          1           0        8.135162   -0.442933    1.349887
     57          1           0        8.059742   -2.447142    0.711716
     58          1           0       -1.119493   -2.410097    1.673626
     59          1           0       -0.502131   -2.391280    3.219356
     60          1           0       -1.481790   -0.236543   -0.334744
     61          1           0       -2.270673    4.813804   -1.592751
     62          1           0       -0.725158    4.567364   -1.289700
     63          1           0        7.957841   -0.336614   -3.213788
     64          1           0       -1.383388    4.397930    1.350393
     65          1           0       -3.214271    4.667723    0.657447
     66          1           0       -4.219855    4.200841   -1.942612
     67          1           0       -5.278130    2.875761   -1.116974
     68          1           0       -4.728800    2.804594   -2.885159
     69          1           0       -4.904674   -0.026670   -1.635700
     70          1           0        9.402526   -0.636151   -0.536944
     71          1           0       10.078247   -0.757451   -2.193997
     72          1           0       -3.984097   -3.112332    3.511912
     73          1           0       -5.979399   -1.651009   -2.309674
     74          1           0       -4.846994   -5.837565   -0.400156
     75          1           0       -4.540192   -5.479043   -2.291160
     76          1           0       -2.828530   -5.911337   -1.065542
     77          1           0       -1.768769    8.067290    1.462366
     78          1           0       -7.550656   -3.509911   -2.942574
     79          1           0       -6.224764   -4.640954   -2.368208
 ---------------------------------------------------------------------

 SCF Done:  E(RB3LYP) =  -1947.80394500     A.U. after   19 cycles

 Excitation energies and oscillator strengths:

 Excited State   1:      Singlet-A      1.9322 eV  641.67 nm  f=0.3525  <S**2>=0.000
     154 ->156         0.21284
     155 ->156         0.67355
     155 <-156        -0.12322
 This state for optimization and/or second-order correction.
 Total Energy, E(TD-HF/TD-DFT) =  -1947.73293765
 Copying the excited state density for this state as the 1-particle RhoCI density.

 The electronic state is 1-A.
 Alpha  occ. eigenvalues --  -19.16505 -19.14570 -19.13762 -19.11343 -19.09599
 Alpha  occ. eigenvalues --  -19.09262 -14.40066 -14.37423 -14.36690 -14.28412
 Alpha  occ. eigenvalues --  -10.33080 -10.30281 -10.28736 -10.26422 -10.25377
 Alpha  occ. eigenvalues --  -10.25189 -10.25128 -10.24936 -10.24802 -10.24792
 Alpha  occ. eigenvalues --  -10.24771 -10.23649 -10.23347 -10.22955 -10.22916
 Alpha  occ. eigenvalues --  -10.22263 -10.22232 -10.22136 -10.21837 -10.21687
 Alpha  occ. eigenvalues --  -10.21228 -10.21012 -10.20789 -10.20469 -10.20252
 Alpha  occ. eigenvalues --  -10.19996 -10.19912 -10.19863 -10.19475 -10.19359
 Alpha  occ. eigenvalues --  -10.18947 -10.18779 -10.18563  -1.11065  -1.07348
 Alpha  occ. eigenvalues --   -1.01953  -1.01036  -0.99643  -0.99082  -0.98308
 Alpha  occ. eigenvalues --   -0.97975  -0.94186  -0.90692  -0.83764  -0.82903
 Alpha  occ. eigenvalues --   -0.82636  -0.81808  -0.80545  -0.79445  -0.78493
 Alpha  occ. eigenvalues --   -0.78236  -0.76787  -0.75608  -0.73949  -0.72688
 Alpha  occ. eigenvalues --   -0.71349  -0.70893  -0.69522  -0.68559  -0.67832
 Alpha  occ. eigenvalues --   -0.66384  -0.66303  -0.63760  -0.61836  -0.61458
 Alpha  occ. eigenvalues --   -0.60315  -0.59491  -0.58934  -0.58309  -0.57548
 Alpha  occ. eigenvalues --   -0.56736  -0.56223  -0.55629  -0.54484  -0.53642
 Alpha  occ. eigenvalues --   -0.52617  -0.51977  -0.51366  -0.51115  -0.50183
 Alpha  occ. eigenvalues --   -0.49873  -0.49151  -0.48914  -0.48175  -0.47762
 Alpha  occ. eigenvalues --   -0.47603  -0.46991  -0.46328  -0.46003  -0.45621
 Alpha  occ. eigenvalues --   -0.45298  -0.44799  -0.44533  -0.44167  -0.43919
 Alpha  occ. eigenvalues --   -0.43517  -0.43159  -0.43116  -0.42579  -0.42357
 Alpha  occ. eigenvalues --   -0.42293  -0.42095  -0.41639  -0.41434  -0.41005
 Alpha  occ. eigenvalues --   -0.40758  -0.40254  -0.40097  -0.39270  -0.39120
 Alpha  occ. eigenvalues --   -0.39029  -0.38709  -0.38484  -0.38294  -0.38195
 Alpha  occ. eigenvalues --   -0.38032  -0.37488  -0.37458  -0.37208  -0.36747
 Alpha  occ. eigenvalues --   -0.35978  -0.34965  -0.34900  -0.34710  -0.34345
 Alpha  occ. eigenvalues --   -0.33097  -0.32647  -0.32200  -0.31888  -0.31042
 Alpha  occ. eigenvalues --   -0.30387  -0.29902  -0.29279  -0.28828  -0.27156
 Alpha  occ. eigenvalues --   -0.27026  -0.26654  -0.26382  -0.26276  -0.25235
 Alpha  occ. eigenvalues --   -0.24535  -0.23908  -0.23495  -0.22056  -0.19409
 Alpha virt. eigenvalues --   -0.11818  -0.07080  -0.06205  -0.02498  -0.01043
 Alpha virt. eigenvalues --    0.00204   0.00916   0.01613   0.01696   0.02185
 Alpha virt. eigenvalues --    0.02560   0.03276   0.04210   0.04477   0.05483

 Mulliken charges:
               1
     1  O   -0.240977
     2  O   -0.242445
     3  O   -0.197467
     4  O   -0.187726
     5  O   -0.188197
     6  O   -0.261622
     7  N   -0.108028
     8  N   -0.205740
     9  N   -0.079040
    10  N   -0.269623
    11  C    0.177128
    12  C    0.209716
    13  C   -0.099661
    14  C   -0.098980
    15  C   -0.015510
    16  C   -0.032797
    17  C   -0.150362
    18  C    0.158665
    19  C   -0.050998
    20  C   -0.071973
    21  C    0.192510
    22  C    0.150282
    23  C   -0.150083
    24  C   -0.070368
    25  C   -0.018171
    26  C   -0.074128
    27  C   -0.119273
    28  C    0.052679
    29  C    0.256312
    30  C   -0.007992
    31  C   -0.195098
    32  C    0.033593
    33  C   -0.062467
    34  C    0.129258
    35  C    0.152486
    36  C   -0.028146
    37  C    0.175487
    38  C    0.032855
    39  C   -0.151063
    40  C    0.158075
    41  C   -0.038121
    42  C   -0.086923
    43  C    0.045678
    44  H   -0.008998
    45  H   -0.009853
    46  H   -0.029506
    47  H    0.134995
    48  H    0.148362
    49  H   -0.008651
    50  H    0.009414
    51  H   -0.009164
    52  H    0.028664
    53  H    0.040078
    54  H    0.084680
    55  H    0.026132
    56  H    0.098155
    57  H    0.061747
    58  H    0.096747
    59  H    0.010839
    60  H    0.152790
    61  H   -0.050955
    62  H   -0.003071
    63  H    0.020730
    64  H    0.089236
    65  H    0.086929
    66  H    0.029605
    67  H    0.052411
    68  H    0.044837
    69  H   -0.065962
    70  H    0.000179
    71  H    0.024771
    72  H    0.184058
    73  H   -0.020491
    74  H    0.072838
    75  H    0.055994
    76  H    0.072737
    77  H    0.157795
    78  H    0.012087
    79  H   -0.011904
 Sum of Mulliken charges =  -0.00000

 Dipole moment (field-independent basis, Debye):
    X=              1.4377    Y=              3.1023    Z=              3.5172  Tot=              4.9053
 Quadrupole moment (field-independent basis, Debye-Ang):
   XX=           -211.5231   YY=           -259.2535   ZZ=           -264.4985
   XY=            -10.5575   XZ=             33.3934   YZ=              0.5685

 Normal termination of Gaussian 16 at Sat Sep 28 11:05:03 2019.
