 Gaussian 16, Revision A.03,
 Gaussian 16:  ES64L-G16RevA.03 25-Dec-2016

 --------------------------
 # td=(NStates=1) B3LYP/SVP
 --------------------------

 --
 TD
 --
 Symbolic Z-matrix:
 Charge =  0 Multiplicity = 1

                         Standard orientation:
 ---------------------------------------------------------------------
 Center     Atomic      Atomic             Coordinates (Angstroms)
 Number     Number       Type             X           Y           Z
 ---------------------------------------------------------------------
      1          8           0        5.360480    0.056974   -3.273104
      2          8           0       -3.060866   -3.008004    3.262349
      3          8           0       -3.345275   -0.768731    3.016229
      4          8           0       -1.388148    7.032195    1.820455
      5          8           0       -0.975392    7.255659   -0.508834
      6          8           0       -1.765092   -3.873714    0.350176
      7          7           0        2.318361    0.875248    0.484126
      8          7           0        4.463891   -0.686631   -1.273387
      9          7           0       -1.919751    0.633586   -0.395144
     10          7           0       -2.467090   -1.831529   -0.530326
     11          6           0        4.863745   -1.191272    0.034635
     12          6           0        4.420997   -0.173003    1.253449
     13          6           0        2.892959   -0.080932    1.290186
     14          6           0        1.902165   -0.651145    2.069064
     15          6           0        0.638575   -0.127061    1.663735
     16          6           0        0.886439    0.876572    0.651151
     17          6           0        6.377433   -1.379265   -0.144260
     18          6           0       -0.617363   -0.296034    2.477671
     19          6           0        6.786315   -0.799008   -1.364025
     20          6           0        0.157976    1.957306    0.101371
     21          6           0       -1.167743    1.863083   -0.290555
     22          6           0        5.467941   -0.400363   -2.116729
     23          6           0       -1.994006    2.935924   -0.859580
     24          6           0        2.223315   -1.734555    3.033123
     25          6           0        7.186555   -2.061347    0.932261
     26          6           0       -3.112724    2.386495   -1.401639
     27          6           0       -1.231922   -1.671962    2.548446
     28          6           0       -3.087931    0.916687   -1.119482
     29          6           0       -1.575693    4.430176   -0.860615
     30          6           0        8.046541   -0.786938   -1.951673
     31          6           0       -1.689113    5.046907    0.456676
     32          6           0       -4.374040    3.081681   -2.033043
     33          6           0       -3.961205   -0.146303   -1.447156
     34          6           0       -2.662825   -1.771548    2.924413
     35          6           0       -3.666234   -1.532940   -1.100151
     36          6           0        9.304518   -0.572887   -1.394722
     37          6           0       -1.353390    6.486618    0.488105
     38          6           0       -4.577548   -2.622647   -1.434187
     39          6           0       -3.881569   -3.778026   -1.112696
     40          6           0       -2.588618   -3.312284   -0.371699
     41          6           0       -5.926633   -2.486535   -2.099826
     42          6           0       -4.259554   -5.208127   -1.177150
     43          6           0       -6.733753   -3.421958   -2.572999
     44          1           0        4.235772   -2.124076    0.129709
     45          1           0        5.021295    0.782722    0.986311
     46          1           0        4.864563   -0.528440    2.154682
     47          1           0        2.692043    1.362379   -0.174110
     48          1           0        3.486419   -0.619240   -1.569838
     49          1           0       -0.329324    0.324228    3.410949
     50          1           0       -1.383776    0.288701    2.201033
     51          1           0        0.809078    2.606325    0.009218
     52          1           0        3.377734   -1.836088    3.035177
     53          1           0        1.630674   -1.564747    3.995805
     54          1           0        1.987560   -2.619558    2.715060
     55          1           0        6.745006   -3.049366    1.307575
     56          1           0        7.541745   -1.400980    1.805923
     57          1           0        8.160298   -2.422479    0.429690
     58          1           0       -1.104261   -2.418724    1.459223
     59          1           0       -0.734563   -2.262175    3.431827
     60          1           0       -1.616132   -0.373584   -0.332278
     61          1           0       -1.987197    4.898759   -1.605084
     62          1           0       -0.714176    4.573619   -1.307450
     63          1           0        8.094066   -0.657547   -3.059928
     64          1           0       -1.360036    4.534955    1.335716
     65          1           0       -2.874522    5.145328    0.808408
     66          1           0       -4.309338    4.205396   -2.411234
     67          1           0       -5.186142    3.043439   -1.103589
     68          1           0       -4.737483    2.507277   -2.767172
     69          1           0       -4.887225    0.104809   -1.972075
     70          1           0        9.322082   -0.623470   -0.347862
     71          1           0       10.186122   -0.521387   -1.906245
     72          1           0       -4.085806   -2.925806    3.336707
     73          1           0       -6.392756   -1.438287   -2.190263
     74          1           0       -5.286636   -5.351123   -0.840201
     75          1           0       -3.942872   -5.470711   -2.134005
     76          1           0       -3.717649   -5.819412   -0.619093
     77          1           0       -0.954116    8.103588    1.675729
     78          1           0       -7.753496   -3.047895   -2.827002
     79          1           0       -6.332151   -4.548036   -2.828951
 ---------------------------------------------------------------------

 SCF Done:  E(RB3LYP) =  -1947.77274299     A.U. after   16 cycles

 Excitation energies and oscillator strengths:

 Excited State   1:      Singlet-A      1.9671 eV  630.29 nm  f=0.4065  <S**2>=0.000
     155 ->156         0.70408
     155 <-156        -0.11352
 This state for optimization and/or second-order correction.
 Total Energy, E(TD-HF/TD-DFT) =  -1947.70045302
 Copying the excited state density for this state as the 1-particle RhoCI density.

 The electronic state is 1-A.
 Alpha  occ. eigenvalues --  -19.19132 -19.17339 -19.13637 -19.12497 -19.10259
 Alpha  occ. eigenvalues --  -19.09442 -14.37186 -14.35958 -14.35812 -14.30026
 Alpha  occ. eigenvalues --  -10.33750 -10.29702 -10.28801 -10.28587 -10.25796
 Alpha  occ. eigenvalues --  -10.25069 -10.24578 -10.23871 -10.23534 -10.23121
 Alpha  occ. eigenvalues --  -10.23109 -10.22992 -10.22858 -10.22229 -10.21910
 Alpha  occ. eigenvalues --  -10.21862 -10.21831 -10.21749 -10.21693 -10.21467
 Alpha  occ. eigenvalues --  -10.21317 -10.21203 -10.20486 -10.20329 -10.19838
 Alpha  occ. eigenvalues --  -10.19534 -10.19266 -10.19206 -10.19142 -10.18898
 Alpha  occ. eigenvalues --  -10.18861 -10.18252 -10.17898  -1.07605  -1.04065
 Alpha  occ. eigenvalues --   -1.02249  -1.00994  -0.98380  -0.98131  -0.95893
 Alpha  occ. eigenvalues --   -0.95664  -0.93668  -0.90818  -0.83762  -0.81966
 Alpha  occ. eigenvalues --   -0.81784  -0.81652  -0.80881  -0.78698  -0.78261
 Alpha  occ. eigenvalues --   -0.77286  -0.76572  -0.75571  -0.74510  -0.72305
 Alpha  occ. eigenvalues --   -0.71885  -0.71354  -0.70842  -0.69462  -0.68914
 Alpha  occ. eigenvalues --   -0.67166  -0.66328  -0.63795  -0.62772  -0.61023
 Alpha  occ. eigenvalues --   -0.58769  -0.58301  -0.57615  -0.57363  -0.56953
 Alpha  occ. eigenvalues --   -0.56525  -0.55535  -0.54935  -0.53618  -0.53219
 Alpha  occ. eigenvalues --   -0.51653  -0.51310  -0.50781  -0.49905  -0.49285
 Alpha  occ. eigenvalues --   -0.48708  -0.48579  -0.48068  -0.47607  -0.47300
 Alpha  occ. eigenvalues --   -0.46661  -0.46589  -0.46319  -0.45953  -0.45789
 Alpha  occ. eigenvalues --   -0.45151  -0.44928  -0.44685  -0.44505  -0.43494
 Alpha  occ. eigenvalues --   -0.43403  -0.42981  -0.42854  -0.42634  -0.42267
 Alpha  occ. eigenvalues --   -0.42089  -0.41915  -0.41722  -0.41284  -0.41034
 Alpha  occ. eigenvalues --   -0.40911  -0.40648  -0.40455  -0.40315  -0.39813
 Alpha  occ. eigenvalues --   -0.39576  -0.39360  -0.39281  -0.38902  -0.38621
 Alpha  occ. eigenvalues --   -0.38311  -0.37786  -0.37446  -0.36876  -0.36741
 Alpha  occ. eigenvalues --   -0.36453  -0.36166  -0.35822  -0.34931  -0.34553
 Alpha  occ. eigenvalues --   -0.33843  -0.33404  -0.31568  -0.31197  -0.31080
 Alpha  occ. eigenvalues --   -0.30936  -0.30267  -0.29606  -0.28996  -0.28229
 Alpha  occ. eigenvalues --   -0.26504  -0.26018  -0.25913  -0.25044  -0.24574
 Alpha  occ. eigenvalues --   -0.24406  -0.24209  -0.23540  -0.22896  -0.18799
 Alpha virt. eigenvalues --   -0.11021  -0.07014  -0.06610  -0.03374  -0.01184
 Alpha virt. eigenvalues --    0.00037   0.00477   0.01125   0.02318   0.03130
 Alpha virt. eigenvalues --    0.03439   0.04354   0.04812   0.05065   0.05202

 Mulliken charges:
               1
     1  O   -0.256167
     2  O   -0.203016
     3  O   -0.249671
     4  O   -0.325010
     5  O   -0.314032
     6  O   -0.207437
     7  N   -0.053135
     8  N   -0.177695
     9  N   -0.151787
    10  N   -0.344539
    11  C    0.066242
    12  C    0.147380
    13  C   -0.041302
    14  C   -0.156224
    15  C   -0.101362
    16  C    0.027445
    17  C   -0.133867
    18  C    0.175077
    19  C   -0.010217
    20  C    0.011723
    21  C    0.192334
    22  C    0.153914
    23  C   -0.133029
    24  C    0.166028
    25  C    0.013552
    26  C   -0.104200
    27  C   -0.127351
    28  C    0.101162
    29  C    0.346280
    30  C   -0.094344
    31  C   -0.003308
    32  C    0.056588
    33  C   -0.105665
    34  C    0.133207
    35  C    0.112296
    36  C    0.025247
    37  C    0.209094
    38  C    0.047645
    39  C   -0.258841
    40  C    0.204149
    41  C   -0.030611
    42  C    0.222666
    43  C   -0.074109
    44  H    0.026496
    45  H    0.022125
    46  H    0.003790
    47  H    0.047899
    48  H    0.132670
    49  H    0.019190
    50  H   -0.050456
    51  H   -0.131114
    52  H   -0.004554
    53  H    0.033326
    54  H   -0.019286
    55  H    0.038717
    56  H    0.058284
    57  H    0.036625
    58  H    0.152803
    59  H    0.026207
    60  H    0.176881
    61  H   -0.078060
    62  H   -0.044988
    63  H    0.023054
    64  H    0.041654
    65  H    0.067655
    66  H    0.051432
    67  H    0.054239
    68  H    0.002507
    69  H   -0.035737
    70  H   -0.003984
    71  H    0.009789
    72  H    0.201130
    73  H    0.019839
    74  H    0.036016
    75  H    0.012236
    76  H   -0.036769
    77  H    0.260511
    78  H    0.035227
    79  H    0.059537
 Sum of Mulliken charges =  -0.00000

 Dipole moment (field-independent basis, Debye):
    X=             -0.6361    Y=             -0.3748    Z=              2.0681  Tot=              2.1959
 Quadrupole moment (field-independent basis, Debye-Ang):
   XX=           -215.8474   YY=           -248.0667   ZZ=           -267.6877
   XY=             -1.0642   XZ=             36.1295   YZ=              9.3998

 Normal termination of Gaussian 16 at Tue Sep 24 05:56:54 2019.
