 Gaussian 16, Revision A.03,
 Gaussian 16:  ES64L-G16RevA.03 25-Dec-2016

 --------------------------
 # td=(NStates=1) B3LYP/SVP
 --------------------------

 --
 TD
 --
 Symbolic Z-matrix:
 Charge =  0 Multiplicity = 1

                         Standard orientation:
 ---------------------------------------------------------------------
 Center     Atomic      Atomic             Coordinates (Angstroms)
 Number     Number       Type             X           Y           Z
 ---------------------------------------------------------------------
      1          8           0        5.299110   -0.320010   -3.314340
      2          8           0       -3.013388   -2.913439    3.378795
      3          8           0       -3.383218   -0.711584    3.057222
      4          8           0       -1.735129    7.231444    1.429506
      5          8           0       -0.730425    7.006835   -0.575046
      6          8           0       -1.747359   -4.035760   -0.083583
      7          7           0        2.443415    0.907059    0.540490
      8          7           0        4.361181   -0.732059   -1.158543
      9          7           0       -1.842260    0.698535   -0.435038
     10          7           0       -2.597290   -1.888951   -0.558334
     11          6           0        4.857038   -1.198610    0.138164
     12          6           0        4.550628   -0.284628    1.293675
     13          6           0        2.980172   -0.110882    1.454753
     14          6           0        2.019598   -0.582273    2.209073
     15          6           0        0.665896   -0.063325    1.724243
     16          6           0        1.029591    0.903158    0.765068
     17          6           0        6.373182   -1.243977   -0.073087
     18          6           0       -0.621520   -0.198173    2.428347
     19          6           0        6.667208   -0.857733   -1.322250
     20          6           0        0.321310    1.879368    0.033422
     21          6           0       -1.016236    1.851397   -0.493887
     22          6           0        5.448813   -0.581654   -2.142574
     23          6           0       -1.922524    2.918096   -0.942586
     24          6           0        2.103843   -1.651160    3.210654
     25          6           0        7.335545   -1.656328    1.038273
     26          6           0       -3.202226    2.420464   -1.163268
     27          6           0       -1.283589   -1.586687    2.366387
     28          6           0       -3.130050    1.040454   -0.952277
     29          6           0       -1.386646    4.263152   -1.027548
     30          6           0        7.979061   -0.866670   -2.075802
     31          6           0       -1.755277    5.104602    0.382860
     32          6           0       -4.342969    2.915129   -1.908238
     33          6           0       -4.015908    0.034344   -1.182831
     34          6           0       -2.674353   -1.717952    2.994121
     35          6           0       -3.718837   -1.426734   -1.038377
     36          6           0        9.143960   -0.669539   -1.535921
     37          6           0       -1.234440    6.513550    0.341882
     38          6           0       -4.583637   -2.516322   -1.376535
     39          6           0       -3.895658   -3.758779   -1.165699
     40          6           0       -2.707879   -3.322828   -0.520249
     41          6           0       -6.003849   -2.488766   -1.955201
     42          6           0       -4.251898   -5.209385   -1.216432
     43          6           0       -6.702978   -3.452555   -2.402369
     44          1           0        4.548544   -2.186936    0.254368
     45          1           0        4.787329    0.690710    1.065506
     46          1           0        4.865850   -0.756446    2.273297
     47          1           0        3.030280    1.544854   -0.098684
     48          1           0        3.444152   -0.855972   -1.359502
     49          1           0       -0.508514   -0.168630    3.441421
     50          1           0       -1.249111    0.444638    1.846179
     51          1           0        0.963704    2.738914   -0.399221
     52          1           0        3.019083   -1.799275    3.593091
     53          1           0        1.492622   -1.393421    4.066933
     54          1           0        1.671655   -2.595514    2.780973
     55          1           0        6.842007   -2.409501    1.715470
     56          1           0        7.554036   -0.898168    1.933001
     57          1           0        8.247222   -2.042562    0.865331
     58          1           0       -1.344926   -1.898816    1.210081
     59          1           0       -0.651109   -2.338920    2.922084
     60          1           0       -1.432197   -0.266709   -0.543039
     61          1           0       -1.897861    4.972039   -1.818236
     62          1           0       -0.211334    4.289624   -1.092711
     63          1           0        7.831098   -1.103810   -3.248165
     64          1           0       -1.503145    4.632615    1.392001
     65          1           0       -2.959130    4.983284    0.238984
     66          1           0       -4.429275    4.086527   -1.590305
     67          1           0       -5.340375    2.208751   -1.222152
     68          1           0       -4.342093    2.706382   -3.090661
     69          1           0       -5.014865    0.371968   -1.595892
     70          1           0        9.178730   -0.316321   -0.369720
     71          1           0       10.085805   -0.877035   -2.175483
     72          1           0       -4.035854   -2.663901    3.727855
     73          1           0       -6.475072   -1.591287   -2.020123
     74          1           0       -5.105352   -5.652442   -0.595744
     75          1           0       -4.304591   -5.735647   -2.283679
     76          1           0       -3.332615   -5.729898   -0.951784
     77          1           0       -1.464614    8.121762    1.338517
     78          1           0       -7.734622   -3.108820   -2.932011
     79          1           0       -6.449740   -4.746535   -2.453191
 ---------------------------------------------------------------------

 SCF Done:  E(RB3LYP) =  -1947.76662815     A.U. after   19 cycles

 Excitation energies and oscillator strengths:

 Excited State   1:      Singlet-A      1.7694 eV  700.72 nm  f=0.3070  <S**2>=0.000
     154 ->156         0.14350
     155 ->156         0.69018
     155 <-156        -0.13863
 This state for optimization and/or second-order correction.
 Total Energy, E(TD-HF/TD-DFT) =  -1947.70160476
 Copying the excited state density for this state as the 1-particle RhoCI density.

 The electronic state is 1-A.
 Alpha  occ. eigenvalues --  -19.18953 -19.17428 -19.14329 -19.11518 -19.10959
 Alpha  occ. eigenvalues --  -19.10231 -14.37304 -14.35591 -14.34104 -14.29291
 Alpha  occ. eigenvalues --  -10.32625 -10.30001 -10.29581 -10.26505 -10.24575
 Alpha  occ. eigenvalues --  -10.24362 -10.24284 -10.23825 -10.23665 -10.23657
 Alpha  occ. eigenvalues --  -10.23040 -10.22881 -10.22829 -10.22814 -10.22760
 Alpha  occ. eigenvalues --  -10.22120 -10.21886 -10.21634 -10.21578 -10.21236
 Alpha  occ. eigenvalues --  -10.20802 -10.20781 -10.20626 -10.20596 -10.20092
 Alpha  occ. eigenvalues --  -10.20005 -10.19963 -10.19768 -10.19261 -10.18857
 Alpha  occ. eigenvalues --  -10.18415 -10.18248 -10.17551  -1.11121  -1.08998
 Alpha  occ. eigenvalues --   -1.03074  -1.02758  -0.99462  -0.97898  -0.96217
 Alpha  occ. eigenvalues --   -0.95017  -0.93284  -0.92438  -0.82436  -0.82082
 Alpha  occ. eigenvalues --   -0.81478  -0.80950  -0.80205  -0.79739  -0.77561
 Alpha  occ. eigenvalues --   -0.76771  -0.75885  -0.75547  -0.74529  -0.72249
 Alpha  occ. eigenvalues --   -0.72009  -0.71189  -0.69515  -0.68661  -0.67447
 Alpha  occ. eigenvalues --   -0.66366  -0.65830  -0.64083  -0.60571  -0.59838
 Alpha  occ. eigenvalues --   -0.59351  -0.59027  -0.57569  -0.56398  -0.55417
 Alpha  occ. eigenvalues --   -0.54911  -0.54312  -0.53885  -0.53332  -0.52526
 Alpha  occ. eigenvalues --   -0.51760  -0.51475  -0.50751  -0.50545  -0.49772
 Alpha  occ. eigenvalues --   -0.48831  -0.48378  -0.48180  -0.47924  -0.47681
 Alpha  occ. eigenvalues --   -0.47299  -0.46796  -0.46302  -0.45984  -0.45176
 Alpha  occ. eigenvalues --   -0.45041  -0.44680  -0.43935  -0.43817  -0.43773
 Alpha  occ. eigenvalues --   -0.43325  -0.43121  -0.42705  -0.42398  -0.42248
 Alpha  occ. eigenvalues --   -0.42086  -0.41840  -0.41038  -0.40720  -0.40574
 Alpha  occ. eigenvalues --   -0.40555  -0.40493  -0.40097  -0.40028  -0.39902
 Alpha  occ. eigenvalues --   -0.39685  -0.39409  -0.39316  -0.38757  -0.38349
 Alpha  occ. eigenvalues --   -0.38032  -0.37277  -0.36967  -0.36743  -0.36589
 Alpha  occ. eigenvalues --   -0.35797  -0.35167  -0.34296  -0.33966  -0.33765
 Alpha  occ. eigenvalues --   -0.33469  -0.33233  -0.32201  -0.31974  -0.31650
 Alpha  occ. eigenvalues --   -0.30826  -0.30318  -0.29736  -0.28953  -0.26996
 Alpha  occ. eigenvalues --   -0.26914  -0.26290  -0.25697  -0.25441  -0.25284
 Alpha  occ. eigenvalues --   -0.24795  -0.24310  -0.23515  -0.22602  -0.18780
 Alpha virt. eigenvalues --   -0.11900  -0.08014  -0.05477  -0.01742  -0.00111
 Alpha virt. eigenvalues --    0.00823   0.01037   0.01807   0.02248   0.02345
 Alpha virt. eigenvalues --    0.02837   0.03509   0.04331   0.04535   0.04909

 Mulliken charges:
               1
     1  O   -0.191078
     2  O   -0.184213
     3  O   -0.278441
     4  O   -0.205145
     5  O   -0.156432
     6  O   -0.242949
     7  N   -0.229511
     8  N   -0.249344
     9  N   -0.174777
    10  N   -0.268681
    11  C    0.122774
    12  C    0.297737
    13  C   -0.050361
    14  C   -0.188350
    15  C   -0.122392
    16  C    0.133126
    17  C   -0.140695
    18  C    0.239120
    19  C   -0.090252
    20  C   -0.091677
    21  C    0.060197
    22  C    0.194427
    23  C   -0.021166
    24  C    0.164211
    25  C    0.080307
    26  C   -0.061134
    27  C   -0.126217
    28  C    0.132140
    29  C   -0.003891
    30  C   -0.016254
    31  C   -0.114964
    32  C   -0.091263
    33  C   -0.110989
    34  C    0.135319
    35  C    0.097841
    36  C   -0.081369
    37  C    0.158825
    38  C   -0.013630
    39  C   -0.119634
    40  C    0.162131
    41  C    0.076785
    42  C    0.028707
    43  C   -0.116423
    44  H    0.000649
    45  H   -0.042974
    46  H    0.014437
    47  H    0.154276
    48  H    0.094110
    49  H   -0.029122
    50  H    0.009341
    51  H    0.009518
    52  H   -0.043584
    53  H   -0.002099
    54  H    0.054162
    55  H    0.005788
    56  H    0.038620
    57  H    0.000824
    58  H    0.115954
    59  H    0.010694
    60  H    0.174250
    61  H    0.043471
    62  H    0.043104
    63  H    0.054905
    64  H    0.064829
    65  H    0.077933
    66  H    0.044780
    67  H    0.058522
    68  H    0.089009
    69  H   -0.010970
    70  H    0.052099
    71  H    0.045661
    72  H    0.223232
    73  H   -0.049567
    74  H    0.053108
    75  H    0.029962
    76  H    0.013350
    77  H    0.156196
    78  H    0.038429
    79  H    0.064686
 Sum of Mulliken charges =  -0.00000

 Dipole moment (field-independent basis, Debye):
    X=              1.2609    Y=              1.8536    Z=              2.8387  Tot=              3.6171
 Quadrupole moment (field-independent basis, Debye-Ang):
   XX=           -217.8178   YY=           -246.0258   ZZ=           -260.2523
   XY=             -6.0473   XZ=             32.3145   YZ=              0.3652

 Normal termination of Gaussian 16 at Wed Sep 25 00:40:26 2019.
