 Gaussian 16, Revision A.03,
 Gaussian 16:  ES64L-G16RevA.03 25-Dec-2016

 --------------------------
 # td=(NStates=1) B3LYP/SVP
 --------------------------

 --
 TD
 --
 Symbolic Z-matrix:
 Charge =  0 Multiplicity = 1

                         Standard orientation:
 ---------------------------------------------------------------------
 Center     Atomic      Atomic             Coordinates (Angstroms)
 Number     Number       Type             X           Y           Z
 ---------------------------------------------------------------------
      1          8           0       -3.241261   -1.269092   -2.817283
      2          8           0        3.070168    3.130147    2.959118
      3          8           0        3.753780    1.545467    4.403029
      4          8           0        7.707828   -1.442263   -0.897825
      5          8           0        6.526912   -3.234658   -1.779443
      6          8           0       -2.597563    1.648272    1.464596
      7          7           0       -0.255778   -2.479197    1.079737
      8          7           0       -2.677499   -1.267283   -0.563514
      9          7           0        1.128438    0.072234   -0.666938
     10          7           0       -0.985415    1.533459   -0.171818
     11          6           0       -3.337532   -1.385626    0.698923
     12          6           0       -2.626739   -2.311256    1.680175
     13          6           0       -1.214112   -2.035702    1.897901
     14          6           0       -0.545371   -1.103406    2.839051
     15          6           0        0.759002   -1.067714    2.580521
     16          6           0        0.950454   -1.826006    1.381464
     17          6           0       -4.766340   -1.808417    0.284104
     18          6           0        1.855790   -0.464446    3.279710
     19          6           0       -4.780062   -1.960688   -1.043664
     20          6           0        2.152798   -1.886528    0.372695
     21          6           0        2.076140   -0.914755   -0.664923
     22          6           0       -3.514842   -1.503602   -1.655786
     23          6           0        2.954857   -0.657019   -1.830903
     24          6           0       -1.332463   -0.407375    3.878251
     25          6           0       -5.759778   -2.198214    1.297459
     26          6           0        2.466249    0.425355   -2.448346
     27          6           0        1.974771    1.065672    2.706022
     28          6           0        1.368756    0.898079   -1.802141
     29          6           0        4.126366   -1.617230   -2.163941
     30          6           0       -5.722718   -2.608387   -2.042775
     31          6           0        5.361254   -1.060736   -1.396216
     32          6           0        3.140835    0.919016   -3.718495
     33          6           0        0.487093    2.007918   -2.056842
     34          6           0        3.072677    1.925370    3.488929
     35          6           0       -0.502945    2.427356   -1.196788
     36          6           0       -6.764102   -3.476317   -1.842267
     37          6           0        6.630834   -2.008796   -1.399692
     38          6           0       -1.391710    3.567346   -1.212551
     39          6           0       -2.281677    3.478842   -0.205149
     40          6           0       -2.061547    2.135498    0.434202
     41          6           0       -1.136249    4.774231   -2.091926
     42          6           0       -3.494354    4.266350    0.272489
     43          6           0       -2.163641    5.673916   -2.625239
     44          1           0       -3.297607   -0.388236    1.437518
     45          1           0       -2.784953   -3.482744    1.612525
     46          1           0       -3.146249   -2.145631    2.590377
     47          1           0       -0.386155   -2.669818    0.127320
     48          1           0       -1.962661   -0.486014   -0.495548
     49          1           0        1.512565   -0.443754    4.268423
     50          1           0        2.563319   -1.123151    2.973571
     51          1           0        2.960563   -2.694809    0.298672
     52          1           0       -2.013851   -1.151028    4.458260
     53          1           0       -0.675607    0.083720    4.618870
     54          1           0       -1.991661    0.429868    3.260734
     55          1           0       -5.846081   -1.532598    2.080358
     56          1           0       -5.832562   -3.251081    1.659924
     57          1           0       -6.766936   -1.999629    0.716126
     58          1           0        2.263560    1.073693    1.537060
     59          1           0        1.131203    1.474366    2.844219
     60          1           0        0.263016    0.214866   -0.146940
     61          1           0        4.328799   -1.744486   -3.144246
     62          1           0        3.815247   -2.658183   -1.841359
     63          1           0       -5.699408   -2.365620   -3.070912
     64          1           0        5.256355   -0.589290   -0.239765
     65          1           0        5.787504   -0.221713   -1.880874
     66          1           0        3.859110    0.112271   -4.097890
     67          1           0        3.445906    2.026744   -3.574171
     68          1           0        2.413492    0.937354   -4.437335
     69          1           0        0.867641    2.566155   -2.908827
     70          1           0       -6.697898   -4.059043   -0.791140
     71          1           0       -7.331061   -3.881182   -2.692599
     72          1           0        3.796326    3.772195    3.606592
     73          1           0        0.185704    4.864264   -2.316738
     74          1           0       -4.340782    4.283238   -0.363202
     75          1           0       -3.692900    3.876111    1.232923
     76          1           0       -3.336212    5.384434    0.481764
     77          1           0        8.419699   -2.111297   -0.702616
     78          1           0       -1.766180    6.410644   -3.337918
     79          1           0       -3.418541    5.875540   -2.328488
 ---------------------------------------------------------------------

 SCF Done:  E(RB3LYP) =  -1947.76061443     A.U. after   22 cycles

 Excitation energies and oscillator strengths:

 Excited State   1:      Singlet-A      0.5294 eV 2342.04 nm  f=0.0030  <S**2>=0.000
     155 ->156         0.70485
 This state for optimization and/or second-order correction.
 Total Energy, E(TD-HF/TD-DFT) =  -1947.74115989
 Copying the excited state density for this state as the 1-particle RhoCI density.

 The electronic state is 1-A.
 Alpha  occ. eigenvalues --  -19.21642 -19.19364 -19.13430 -19.12066 -19.11431
 Alpha  occ. eigenvalues --  -19.08491 -14.37363 -14.36545 -14.32367 -14.30213
 Alpha  occ. eigenvalues --  -10.34339 -10.31216 -10.27296 -10.26889 -10.26592
 Alpha  occ. eigenvalues --  -10.25995 -10.25239 -10.24903 -10.24576 -10.24107
 Alpha  occ. eigenvalues --  -10.23625 -10.23357 -10.22813 -10.22227 -10.22027
 Alpha  occ. eigenvalues --  -10.22017 -10.21801 -10.21471 -10.21036 -10.20771
 Alpha  occ. eigenvalues --  -10.20410 -10.19787 -10.19780 -10.19286 -10.19106
 Alpha  occ. eigenvalues --  -10.19068 -10.19030 -10.18936 -10.18877 -10.18208
 Alpha  occ. eigenvalues --  -10.17404 -10.16385 -10.16204  -1.11487  -1.08825
 Alpha  occ. eigenvalues --   -1.00715  -1.00617  -0.99891  -0.99706  -0.98792
 Alpha  occ. eigenvalues --   -0.97043  -0.91886  -0.91722  -0.84649  -0.82250
 Alpha  occ. eigenvalues --   -0.81639  -0.79982  -0.79636  -0.78588  -0.78039
 Alpha  occ. eigenvalues --   -0.76029  -0.75054  -0.74312  -0.73618  -0.73074
 Alpha  occ. eigenvalues --   -0.71030  -0.70462  -0.69939  -0.69629  -0.67526
 Alpha  occ. eigenvalues --   -0.66654  -0.65671  -0.62824  -0.62630  -0.60612
 Alpha  occ. eigenvalues --   -0.59374  -0.58536  -0.58113  -0.57931  -0.57067
 Alpha  occ. eigenvalues --   -0.56297  -0.55450  -0.54133  -0.52268  -0.52009
 Alpha  occ. eigenvalues --   -0.51699  -0.51042  -0.50431  -0.50007  -0.49590
 Alpha  occ. eigenvalues --   -0.48603  -0.48401  -0.48309  -0.47746  -0.47357
 Alpha  occ. eigenvalues --   -0.47085  -0.46745  -0.46709  -0.46280  -0.45117
 Alpha  occ. eigenvalues --   -0.44892  -0.44410  -0.44230  -0.43926  -0.43604
 Alpha  occ. eigenvalues --   -0.43246  -0.42980  -0.42388  -0.42137  -0.41906
 Alpha  occ. eigenvalues --   -0.41820  -0.41604  -0.41201  -0.41066  -0.40728
 Alpha  occ. eigenvalues --   -0.40627  -0.40423  -0.40105  -0.39861  -0.39471
 Alpha  occ. eigenvalues --   -0.39162  -0.38687  -0.38513  -0.38123  -0.37852
 Alpha  occ. eigenvalues --   -0.37663  -0.37244  -0.36925  -0.36616  -0.36260
 Alpha  occ. eigenvalues --   -0.35675  -0.35450  -0.35183  -0.34599  -0.34140
 Alpha  occ. eigenvalues --   -0.33851  -0.33150  -0.32745  -0.32082  -0.31038
 Alpha  occ. eigenvalues --   -0.30754  -0.29528  -0.29111  -0.28325  -0.28124
 Alpha  occ. eigenvalues --   -0.27415  -0.27122  -0.25465  -0.24527  -0.23860
 Alpha  occ. eigenvalues --   -0.23676  -0.23428  -0.23014  -0.21991  -0.17994
 Alpha virt. eigenvalues --   -0.13486  -0.07855  -0.04432  -0.03143  -0.02584
 Alpha virt. eigenvalues --   -0.00757   0.00871   0.01178   0.01977   0.02067
 Alpha virt. eigenvalues --    0.02295   0.02832   0.03369   0.04466   0.04975

 Mulliken charges:
               1
     1  O   -0.225499
     2  O   -0.240580
     3  O   -0.220020
     4  O   -0.156918
     5  O   -0.298010
     6  O   -0.255571
     7  N    0.013621
     8  N   -0.233174
     9  N   -0.095693
    10  N   -0.363049
    11  C   -0.006826
    12  C    0.208765
    13  C   -0.151172
    14  C   -0.115544
    15  C   -0.122155
    16  C   -0.118804
    17  C   -0.122669
    18  C    0.267194
    19  C   -0.049415
    20  C   -0.080309
    21  C    0.069278
    22  C    0.159543
    23  C   -0.094420
    24  C   -0.005028
    25  C    0.077211
    26  C   -0.131732
    27  C    0.001389
    28  C    0.061593
    29  C    0.188753
    30  C   -0.007111
    31  C   -0.059491
    32  C    0.138402
    33  C   -0.046146
    34  C    0.138963
    35  C    0.141908
    36  C   -0.074271
    37  C    0.160598
    38  C    0.034718
    39  C   -0.155894
    40  C    0.185728
    41  C   -0.093157
    42  C    0.112461
    43  C   -0.093941
    44  H    0.087484
    45  H   -0.003969
    46  H   -0.045898
    47  H    0.102615
    48  H    0.157605
    49  H   -0.013646
    50  H   -0.024086
    51  H    0.040006
    52  H    0.027796
    53  H   -0.006764
    54  H    0.087215
    55  H   -0.002460
    56  H    0.049770
    57  H    0.032588
    58  H    0.061364
    59  H   -0.023041
    60  H    0.178585
    61  H   -0.018371
    62  H    0.042100
    63  H   -0.000644
    64  H    0.082120
    65  H    0.020043
    66  H    0.032782
    67  H    0.045613
    68  H    0.002351
    69  H   -0.029505
    70  H    0.033138
    71  H    0.031287
    72  H    0.239518
    73  H    0.064158
    74  H    0.029863
    75  H    0.015167
    76  H    0.015426
    77  H    0.212126
    78  H    0.042602
    79  H    0.091534
 Sum of Mulliken charges =  -0.00000

 Dipole moment (field-independent basis, Debye):
    X=              4.8242    Y=              3.3760    Z=             -1.6639  Tot=              6.1187
 Quadrupole moment (field-independent basis, Debye-Ang):
   XX=           -224.3392   YY=           -239.3634   ZZ=           -265.5703
   XY=              6.3021   XZ=            -19.5960   YZ=            -10.8669

 Normal termination of Gaussian 16 at Tue Jul 30 01:21:32 2019.
