 Gaussian 16, Revision A.03,
 Gaussian 16:  ES64L-G16RevA.03 25-Dec-2016

 --------------------------
 # td=(NStates=1) B3LYP/SVP
 --------------------------

 --
 TD
 --
 Symbolic Z-matrix:
 Charge =  0 Multiplicity = 1

                         Standard orientation:
 ---------------------------------------------------------------------
 Center     Atomic      Atomic             Coordinates (Angstroms)
 Number     Number       Type             X           Y           Z
 ---------------------------------------------------------------------
      1          8           0       -3.123836   -1.135171   -2.862949
      2          8           0        2.891336    2.984634    3.382509
      3          8           0        3.916215    1.051991    4.223621
      4          8           0        7.734688   -1.204710   -1.057963
      5          8           0        6.666025   -3.012727   -1.994100
      6          8           0       -2.657773    1.583433    1.571067
      7          7           0       -0.282322   -2.554089    0.763383
      8          7           0       -2.631996   -1.187391   -0.667886
      9          7           0        1.143633    0.051358   -0.646486
     10          7           0       -1.019799    1.527912   -0.062324
     11          6           0       -3.373492   -1.436587    0.535669
     12          6           0       -2.691785   -2.426906    1.533771
     13          6           0       -1.259258   -2.122017    1.735377
     14          6           0       -0.549227   -1.377247    2.766372
     15          6           0        0.805512   -1.308469    2.405787
     16          6           0        0.825538   -2.042080    1.089909
     17          6           0       -4.728261   -1.949720    0.101429
     18          6           0        1.884970   -0.565260    3.106210
     19          6           0       -4.820952   -1.910022   -1.257701
     20          6           0        1.895258   -1.968285    0.182753
     21          6           0        2.045909   -0.941132   -0.643935
     22          6           0       -3.434019   -1.405946   -1.795979
     23          6           0        3.044424   -0.523772   -1.727426
     24          6           0       -1.181401   -0.831926    3.910536
     25          6           0       -5.790383   -2.154815    1.144683
     26          6           0        2.558210    0.550910   -2.436986
     27          6           0        1.956503    0.940605    2.799765
     28          6           0        1.369156    0.923764   -1.671036
     29          6           0        4.280553   -1.426366   -2.043443
     30          6           0       -5.897667   -2.266600   -2.191405
     31          6           0        5.424162   -0.914986   -1.397878
     32          6           0        3.104660    1.358863   -3.464418
     33          6           0        0.580483    2.116101   -1.811943
     34          6           0        3.127042    1.575019    3.440309
     35          6           0       -0.505631    2.342336   -1.056826
     36          6           0       -6.870376   -3.050970   -1.878239
     37          6           0        6.637346   -1.821659   -1.510799
     38          6           0       -1.558849    3.518008   -1.064388
     39          6           0       -2.412759    3.347996   -0.027008
     40          6           0       -2.032144    2.026925    0.657312
     41          6           0       -1.340706    4.654798   -2.002330
     42          6           0       -3.420246    4.265041    0.461445
     43          6           0       -1.938730    5.866386   -2.034532
     44          1           0       -3.434888   -0.598712    1.260981
     45          1           0       -2.919042   -3.486003    1.190916
     46          1           0       -3.150548   -2.464165    2.500380
     47          1           0       -0.459143   -2.741641   -0.288634
     48          1           0       -1.933251   -0.281688   -0.654287
     49          1           0        1.805366   -0.422875    4.150430
     50          1           0        2.811902   -1.117810    2.876463
     51          1           0        2.890113   -2.458180    0.254645
     52          1           0       -1.757666   -1.531161    4.547157
     53          1           0       -0.450627   -0.403898    4.570362
     54          1           0       -1.777025    0.051418    3.638844
     55          1           0       -5.268268   -1.517994    2.057755
     56          1           0       -6.029658   -3.293765    1.180352
     57          1           0       -6.801201   -1.608580    0.934780
     58          1           0        2.004286    1.228542    1.757212
     59          1           0        0.971763    1.449216    3.128812
     60          1           0        0.016093    0.053319   -0.220313
     61          1           0        4.469509   -1.416565   -3.101445
     62          1           0        3.958116   -2.512872   -1.752462
     63          1           0       -5.632877   -2.031137   -3.281520
     64          1           0        5.143166   -0.845230   -0.337843
     65          1           0        5.766302    0.087540   -1.734115
     66          1           0        3.862388    1.040116   -3.968801
     67          1           0        3.438595    2.407302   -3.266463
     68          1           0        2.368105    1.319862   -4.257604
     69          1           0        0.652803    2.723263   -2.619049
     70          1           0       -6.921118   -3.537257   -0.801609
     71          1           0       -7.561183   -3.335231   -2.687982
     72          1           0        3.486735    3.248599    4.121195
     73          1           0       -0.740690    4.418650   -2.848176
     74          1           0       -4.167520    4.529391   -0.292329
     75          1           0       -3.881533    3.878518    1.562140
     76          1           0       -2.909410    5.250527    0.542648
     77          1           0        8.371283   -1.919798   -1.225141
     78          1           0       -1.741010    6.727103   -2.686039
     79          1           0       -2.762753    5.855142   -1.185890
 ---------------------------------------------------------------------

 SCF Done:  E(RB3LYP) =  -1947.82738184     A.U. after   19 cycles

 Excitation energies and oscillator strengths:

 Excited State   1:      Singlet-A      0.8724 eV 1421.23 nm  f=0.0070  <S**2>=0.000
     155 ->156         0.70560
 This state for optimization and/or second-order correction.
 Total Energy, E(TD-HF/TD-DFT) =  -1947.79532277
 Copying the excited state density for this state as the 1-particle RhoCI density.

 The electronic state is 1-A.
 Alpha  occ. eigenvalues --  -19.20926 -19.17352 -19.14245 -19.14101 -19.11475
 Alpha  occ. eigenvalues --  -19.09417 -14.37996 -14.37810 -14.32744 -14.30571
 Alpha  occ. eigenvalues --  -10.34145 -10.32274 -10.27474 -10.27436 -10.26703
 Alpha  occ. eigenvalues --  -10.25283 -10.25067 -10.24177 -10.23185 -10.22426
 Alpha  occ. eigenvalues --  -10.22043 -10.21855 -10.21511 -10.21405 -10.21279
 Alpha  occ. eigenvalues --  -10.20683 -10.20559 -10.20508 -10.20370 -10.20138
 Alpha  occ. eigenvalues --  -10.20114 -10.20080 -10.20053 -10.19841 -10.19530
 Alpha  occ. eigenvalues --  -10.18908 -10.18688 -10.18652 -10.18514 -10.18357
 Alpha  occ. eigenvalues --  -10.17964 -10.17528 -10.16864  -1.11848  -1.07508
 Alpha  occ. eigenvalues --   -1.05170  -1.03936  -1.00568  -0.99808  -0.99304
 Alpha  occ. eigenvalues --   -0.98388  -0.92845  -0.91335  -0.85397  -0.84055
 Alpha  occ. eigenvalues --   -0.81325  -0.81228  -0.80511  -0.80116  -0.79332
 Alpha  occ. eigenvalues --   -0.77705  -0.76567  -0.75486  -0.74800  -0.74327
 Alpha  occ. eigenvalues --   -0.71082  -0.70085  -0.69422  -0.68677  -0.67782
 Alpha  occ. eigenvalues --   -0.66924  -0.65499  -0.62844  -0.60797  -0.60675
 Alpha  occ. eigenvalues --   -0.59477  -0.58324  -0.58144  -0.57074  -0.56820
 Alpha  occ. eigenvalues --   -0.55337  -0.54965  -0.54203  -0.53774  -0.53492
 Alpha  occ. eigenvalues --   -0.52218  -0.51856  -0.51219  -0.50751  -0.50575
 Alpha  occ. eigenvalues --   -0.49492  -0.49022  -0.48694  -0.48354  -0.47971
 Alpha  occ. eigenvalues --   -0.47766  -0.47483  -0.47040  -0.46856  -0.46460
 Alpha  occ. eigenvalues --   -0.46005  -0.44936  -0.44616  -0.44500  -0.44307
 Alpha  occ. eigenvalues --   -0.44090  -0.43595  -0.43190  -0.43121  -0.42857
 Alpha  occ. eigenvalues --   -0.42310  -0.42188  -0.42083  -0.41806  -0.41654
 Alpha  occ. eigenvalues --   -0.41549  -0.41342  -0.40566  -0.40207  -0.39779
 Alpha  occ. eigenvalues --   -0.39594  -0.39349  -0.39077  -0.38401  -0.38062
 Alpha  occ. eigenvalues --   -0.37965  -0.37709  -0.37147  -0.36787  -0.36551
 Alpha  occ. eigenvalues --   -0.36176  -0.35988  -0.35873  -0.34696  -0.34420
 Alpha  occ. eigenvalues --   -0.34112  -0.33125  -0.33055  -0.32195  -0.31983
 Alpha  occ. eigenvalues --   -0.30983  -0.30971  -0.29701  -0.29270  -0.28897
 Alpha  occ. eigenvalues --   -0.28078  -0.27510  -0.25255  -0.24818  -0.24339
 Alpha  occ. eigenvalues --   -0.23600  -0.23439  -0.22701  -0.22617  -0.18018
 Alpha virt. eigenvalues --   -0.12300  -0.06614  -0.03522  -0.02919  -0.02481
 Alpha virt. eigenvalues --   -0.01365   0.00616   0.02173   0.03169   0.03351
 Alpha virt. eigenvalues --    0.04058   0.04420   0.04604   0.05002   0.05192

 Mulliken charges:
               1
     1  O   -0.141995
     2  O   -0.242345
     3  O   -0.234107
     4  O   -0.144100
     5  O   -0.294103
     6  O   -0.185659
     7  N   -0.010307
     8  N   -0.289736
     9  N   -0.142360
    10  N   -0.359122
    11  C    0.046586
    12  C    0.182826
    13  C   -0.120991
    14  C   -0.096259
    15  C   -0.065016
    16  C   -0.042612
    17  C   -0.132534
    18  C    0.142791
    19  C   -0.102299
    20  C   -0.144077
    21  C    0.088963
    22  C    0.117991
    23  C   -0.110457
    24  C    0.116086
    25  C   -0.016855
    26  C   -0.092049
    27  C   -0.034063
    28  C    0.085224
    29  C    0.094585
    30  C    0.003393
    31  C    0.023747
    32  C    0.201130
    33  C   -0.028520
    34  C    0.175921
    35  C    0.122331
    36  C   -0.048161
    37  C    0.150790
    38  C    0.072282
    39  C   -0.229976
    40  C    0.168795
    41  C   -0.027960
    42  C    0.038751
    43  C   -0.041444
    44  H    0.044837
    45  H   -0.025677
    46  H   -0.028163
    47  H    0.158627
    48  H    0.190849
    49  H   -0.010653
    50  H    0.003377
    51  H    0.003339
    52  H    0.019368
    53  H   -0.034412
    54  H    0.031565
    55  H    0.052298
    56  H    0.062761
    57  H    0.054557
    58  H    0.022459
    59  H    0.068963
    60  H    0.267159
    61  H    0.002075
    62  H    0.055844
    63  H    0.020109
    64  H    0.040125
    65  H    0.044502
    66  H   -0.064697
    67  H    0.047886
    68  H    0.017713
    69  H   -0.069407
    70  H    0.029511
    71  H    0.022657
    72  H    0.173139
    73  H   -0.020630
    74  H    0.034584
    75  H    0.064490
    76  H    0.037385
    77  H    0.178734
    78  H    0.036039
    79  H    0.013601
 Sum of Mulliken charges =  -0.00000

 Dipole moment (field-independent basis, Debye):
    X=              3.4726    Y=              2.5166    Z=             -2.0363  Tot=              4.7475
 Quadrupole moment (field-independent basis, Debye-Ang):
   XX=           -239.0351   YY=           -247.8914   ZZ=           -257.2913
   XY=             11.6868   XZ=            -20.7350   YZ=            -10.3457

 Normal termination of Gaussian 16 at Thu Jul 25 21:09:22 2019.
