 Gaussian 16, Revision A.03,
 Gaussian 16:  ES64L-G16RevA.03 25-Dec-2016

 --------------------------
 # td=(NStates=1) B3LYP/SVP
 --------------------------

 --
 TD
 --
 Symbolic Z-matrix:
 Charge =  0 Multiplicity = 1

                         Standard orientation:
 ---------------------------------------------------------------------
 Center     Atomic      Atomic             Coordinates (Angstroms)
 Number     Number       Type             X           Y           Z
 ---------------------------------------------------------------------
      1          8           0        5.125854   -0.176864   -3.283620
      2          8           0       -3.220487   -2.835007    3.124429
      3          8           0       -3.400651   -0.591014    3.019186
      4          8           0       -1.600048    7.200260    1.525831
      5          8           0       -0.717458    6.943809   -0.576709
      6          8           0       -1.608102   -4.058936   -0.008777
      7          7           0        2.388367    0.865199    0.635784
      8          7           0        4.274537   -0.526214   -1.107623
      9          7           0       -1.633896    0.650018   -0.329823
     10          7           0       -2.413203   -1.925414   -0.588916
     11          6           0        4.756203   -1.192006    0.194502
     12          6           0        4.413894   -0.258179    1.422000
     13          6           0        3.006658   -0.045169    1.471036
     14          6           0        1.977652   -0.663689    2.202807
     15          6           0        0.749568   -0.060931    1.837846
     16          6           0        0.954624    0.903010    0.787954
     17          6           0        6.268653   -1.207902   -0.115031
     18          6           0       -0.484844   -0.329367    2.515820
     19          6           0        6.542499   -0.764849   -1.394782
     20          6           0        0.277748    1.956168    0.157893
     21          6           0       -1.097672    1.873467   -0.389268
     22          6           0        5.234281   -0.470568   -2.085933
     23          6           0       -1.867775    2.939971   -0.937208
     24          6           0        2.109449   -1.749659    3.251367
     25          6           0        7.129827   -1.829168    0.914037
     26          6           0       -3.061605    2.279712   -1.339727
     27          6           0       -1.281070   -1.701709    2.475620
     28          6           0       -3.017395    0.842497   -0.993798
     29          6           0       -1.540764    4.389026   -0.968526
     30          6           0        7.802825   -0.764628   -2.227097
     31          6           0       -1.873036    5.080052    0.301620
     32          6           0       -4.246073    3.048028   -1.934464
     33          6           0       -3.942027   -0.141899   -1.296980
     34          6           0       -2.715916   -1.609090    2.890790
     35          6           0       -3.539798   -1.526280   -1.078133
     36          6           0        9.028162   -0.696417   -1.611037
     37          6           0       -1.365374    6.487778    0.364484
     38          6           0       -4.485685   -2.671585   -1.475057
     39          6           0       -3.791824   -3.736582   -1.056102
     40          6           0       -2.468676   -3.332560   -0.443620
     41          6           0       -5.648893   -2.513027   -2.258092
     42          6           0       -4.226987   -5.176352   -0.927246
     43          6           0       -6.485986   -3.473543   -2.640378
     44          1           0        4.313674   -2.098178    0.110702
     45          1           0        5.084311    0.635929    1.311646
     46          1           0        4.856049   -1.037472    2.330486
     47          1           0        2.942850    1.103066   -0.167730
     48          1           0        3.348479   -0.804623   -1.426371
     49          1           0       -0.483624    0.044326    3.604330
     50          1           0       -1.341122    0.386905    2.036597
     51          1           0        0.757794    2.820076    0.226108
     52          1           0        3.155717   -1.787007    3.777473
     53          1           0        1.459905   -1.369852    3.927366
     54          1           0        1.623969   -2.594584    2.741309
     55          1           0        6.564822   -2.646173    1.414180
     56          1           0        7.343829   -1.083813    1.846037
     57          1           0        8.161419   -2.267411    0.518232
     58          1           0       -1.206998   -2.064009    1.470758
     59          1           0       -0.999998   -2.441023    3.316938
     60          1           0       -1.221846   -0.350039   -0.498517
     61          1           0       -2.226423    5.069814   -1.628409
     62          1           0       -0.444027    4.634179   -1.065821
     63          1           0        7.560739   -0.699293   -3.341771
     64          1           0       -1.731027    4.682149    1.530218
     65          1           0       -3.097976    5.420897    0.386793
     66          1           0       -4.197667    4.119636   -2.234825
     67          1           0       -5.175120    2.732002   -1.227445
     68          1           0       -4.513672    2.593504   -3.036842
     69          1           0       -4.892178    0.057861   -1.761170
     70          1           0        8.955226   -0.698942   -0.589960
     71          1           0        9.847735   -0.536810   -2.220814
     72          1           0       -4.180056   -2.746141    3.416014
     73          1           0       -6.109218   -1.552007   -2.428094
     74          1           0       -5.026170   -5.169444   -0.205672
     75          1           0       -4.384927   -5.517045   -1.881729
     76          1           0       -3.217943   -5.567746   -0.531884
     77          1           0       -1.233838    8.133685    1.520665
     78          1           0       -7.411086   -3.393241   -3.140034
     79          1           0       -6.488952   -4.619573   -2.459201
 ---------------------------------------------------------------------

 SCF Done:  E(RB3LYP) =  -1947.82351780     A.U. after   16 cycles

 Excitation energies and oscillator strengths:

 Excited State   1:      Singlet-A      1.8880 eV  656.69 nm  f=0.4570  <S**2>=0.000
     155 ->156         0.70725
     155 <-156        -0.14335
 This state for optimization and/or second-order correction.
 Total Energy, E(TD-HF/TD-DFT) =  -1947.75413408
 Copying the excited state density for this state as the 1-particle RhoCI density.

 The electronic state is 1-A.
 Alpha  occ. eigenvalues --  -19.18632 -19.17460 -19.12736 -19.11874 -19.10964
 Alpha  occ. eigenvalues --  -19.10521 -14.36798 -14.36362 -14.35840 -14.29603
 Alpha  occ. eigenvalues --  -10.32724 -10.30631 -10.28817 -10.27238 -10.25413
 Alpha  occ. eigenvalues --  -10.25293 -10.24328 -10.24242 -10.23916 -10.23695
 Alpha  occ. eigenvalues --  -10.22920 -10.22918 -10.22738 -10.22599 -10.22511
 Alpha  occ. eigenvalues --  -10.22477 -10.22051 -10.21735 -10.21084 -10.20928
 Alpha  occ. eigenvalues --  -10.20445 -10.20323 -10.19722 -10.19720 -10.19380
 Alpha  occ. eigenvalues --  -10.19266 -10.19221 -10.19204 -10.19132 -10.18923
 Alpha  occ. eigenvalues --  -10.18883 -10.18673 -10.17454  -1.08065  -1.07887
 Alpha  occ. eigenvalues --   -1.03070  -1.01746  -0.99912  -0.97924  -0.96925
 Alpha  occ. eigenvalues --   -0.95629  -0.93524  -0.93165  -0.82876  -0.82052
 Alpha  occ. eigenvalues --   -0.81464  -0.81322  -0.80867  -0.79567  -0.77487
 Alpha  occ. eigenvalues --   -0.77174  -0.75901  -0.75694  -0.74745  -0.72105
 Alpha  occ. eigenvalues --   -0.71371  -0.71011  -0.69673  -0.68573  -0.68072
 Alpha  occ. eigenvalues --   -0.67205  -0.65770  -0.63215  -0.60930  -0.60808
 Alpha  occ. eigenvalues --   -0.59710  -0.59257  -0.58531  -0.57588  -0.56032
 Alpha  occ. eigenvalues --   -0.55240  -0.54684  -0.54186  -0.53335  -0.53202
 Alpha  occ. eigenvalues --   -0.52244  -0.50931  -0.50792  -0.49827  -0.49482
 Alpha  occ. eigenvalues --   -0.48823  -0.48126  -0.48048  -0.47803  -0.47368
 Alpha  occ. eigenvalues --   -0.47243  -0.46758  -0.46361  -0.46101  -0.45637
 Alpha  occ. eigenvalues --   -0.45127  -0.45017  -0.44520  -0.44418  -0.44059
 Alpha  occ. eigenvalues --   -0.43819  -0.43408  -0.43001  -0.42725  -0.42091
 Alpha  occ. eigenvalues --   -0.41961  -0.41866  -0.41476  -0.41332  -0.40912
 Alpha  occ. eigenvalues --   -0.40877  -0.40442  -0.40258  -0.39769  -0.39673
 Alpha  occ. eigenvalues --   -0.39023  -0.38903  -0.38770  -0.38054  -0.37881
 Alpha  occ. eigenvalues --   -0.37498  -0.37257  -0.37011  -0.36773  -0.36316
 Alpha  occ. eigenvalues --   -0.35764  -0.35555  -0.35267  -0.34609  -0.34406
 Alpha  occ. eigenvalues --   -0.33591  -0.33161  -0.32470  -0.31692  -0.31321
 Alpha  occ. eigenvalues --   -0.30995  -0.30538  -0.28489  -0.28260  -0.28073
 Alpha  occ. eigenvalues --   -0.27671  -0.26261  -0.25681  -0.25418  -0.24836
 Alpha  occ. eigenvalues --   -0.24618  -0.24036  -0.23693  -0.22628  -0.18111
 Alpha virt. eigenvalues --   -0.11031  -0.06804  -0.06171  -0.01138  -0.00972
 Alpha virt. eigenvalues --   -0.00037   0.00483   0.01585   0.01974   0.02253
 Alpha virt. eigenvalues --    0.03693   0.03959   0.04584   0.04963   0.05253

 Mulliken charges:
               1
     1  O   -0.239979
     2  O   -0.202498
     3  O   -0.254925
     4  O   -0.234081
     5  O   -0.248920
     6  O   -0.185423
     7  N   -0.118071
     8  N   -0.239251
     9  N   -0.167557
    10  N   -0.262436
    11  C    0.104444
    12  C    0.119630
    13  C   -0.049375
    14  C   -0.178144
    15  C   -0.015654
    16  C    0.130548
    17  C   -0.168663
    18  C   -0.085387
    19  C   -0.056945
    20  C   -0.083091
    21  C    0.058692
    22  C    0.150918
    23  C   -0.000523
    24  C    0.172338
    25  C    0.003430
    26  C   -0.120652
    27  C    0.027146
    28  C    0.181958
    29  C    0.129881
    30  C   -0.051210
    31  C   -0.170521
    32  C   -0.008583
    33  C   -0.102163
    34  C    0.127494
    35  C    0.036085
    36  C    0.066741
    37  C    0.162989
    38  C    0.091205
    39  C   -0.291947
    40  C    0.178280
    41  C    0.017687
    42  C    0.140968
    43  C   -0.081828
    44  H   -0.002271
    45  H    0.019185
    46  H    0.038440
    47  H    0.107161
    48  H    0.134873
    49  H    0.022165
    50  H    0.056486
    51  H   -0.058267
    52  H    0.026681
    53  H   -0.017145
    54  H    0.045765
    55  H    0.028876
    56  H    0.055492
    57  H    0.060388
    58  H    0.064075
    59  H    0.034444
    60  H    0.204309
    61  H    0.041034
    62  H    0.047462
    63  H    0.041577
    64  H    0.088245
    65  H    0.060921
    66  H    0.035133
    67  H    0.059467
    68  H    0.036871
    69  H   -0.027029
    70  H   -0.002356
    71  H    0.013434
    72  H    0.196684
    73  H   -0.008920
    74  H    0.034806
    75  H    0.007579
    76  H    0.033784
    77  H    0.209394
    78  H    0.003883
    79  H    0.024764
 Sum of Mulliken charges =  -0.00000

 Dipole moment (field-independent basis, Debye):
    X=             -0.1416    Y=              1.4403    Z=              3.1306  Tot=              3.4490
 Quadrupole moment (field-independent basis, Debye-Ang):
   XX=           -213.2614   YY=           -245.8421   ZZ=           -262.4140
   XY=             -9.7287   XZ=             31.0202   YZ=              4.2876

 Normal termination of Gaussian 16 at Wed Sep 25 12:52:51 2019.
