 Gaussian 16, Revision A.03,
 Gaussian 16:  ES64L-G16RevA.03 25-Dec-2016

 --------------------------
 # td=(NStates=1) B3LYP/SVP
 --------------------------

 --
 TD
 --
 Symbolic Z-matrix:
 Charge =  0 Multiplicity = 1

                         Standard orientation:
 ---------------------------------------------------------------------
 Center     Atomic      Atomic             Coordinates (Angstroms)
 Number     Number       Type             X           Y           Z
 ---------------------------------------------------------------------
      1          8           0       -3.284886   -1.703119   -2.767632
      2          8           0        3.011874    3.259786    2.925061
      3          8           0        3.912963    1.621511    4.238660
      4          8           0        7.730618   -1.538547   -0.647367
      5          8           0        6.671783   -3.159143   -1.896076
      6          8           0       -2.621084    1.811388    1.329440
      7          7           0       -0.236705   -2.332398    1.118187
      8          7           0       -2.686824   -1.322787   -0.497546
      9          7           0        1.247772   -0.033017   -0.667477
     10          7           0       -1.069336    1.497174   -0.308328
     11          6           0       -3.431873   -1.222455    0.752651
     12          6           0       -2.667009   -2.106702    1.798601
     13          6           0       -1.223646   -1.935014    2.032694
     14          6           0       -0.516834   -0.972394    2.870161
     15          6           0        0.838687   -0.978798    2.544483
     16          6           0        0.919183   -1.821304    1.391205
     17          6           0       -4.838440   -1.677675    0.346149
     18          6           0        1.914111   -0.213031    3.225196
     19          6           0       -4.846560   -2.050351   -0.952388
     20          6           0        1.967828   -1.827745    0.416079
     21          6           0        2.088053   -0.960469   -0.598382
     22          6           0       -3.469719   -1.686738   -1.587599
     23          6           0        2.977858   -0.835779   -1.829545
     24          6           0       -1.170968   -0.104182    3.890446
     25          6           0       -5.877897   -1.914428    1.475362
     26          6           0        2.488496    0.237864   -2.544521
     27          6           0        2.046191    1.192103    2.752280
     28          6           0        1.351282    0.843156   -1.819559
     29          6           0        4.179766   -1.678157   -2.132978
     30          6           0       -5.872457   -2.556640   -1.844168
     31          6           0        5.348448   -1.160142   -1.097459
     32          6           0        3.025858    0.915016   -3.788361
     33          6           0        0.567727    1.813403   -2.124515
     34          6           0        3.090659    1.979359    3.385947
     35          6           0       -0.646783    2.239579   -1.371456
     36          6           0       -6.779283   -3.505663   -1.492947
     37          6           0        6.613901   -1.998634   -1.269022
     38          6           0       -1.456598    3.351622   -1.479506
     39          6           0       -2.358210    3.378039   -0.426855
     40          6           0       -2.002887    2.177475    0.345722
     41          6           0       -1.342752    4.297144   -2.505062
     42          6           0       -3.330658    4.316220    0.076312
     43          6           0       -1.862947    5.518162   -2.738400
     44          1           0       -3.469623   -0.242560    0.967605
     45          1           0       -2.820208   -3.187616    1.618634
     46          1           0       -3.040445   -1.920872    2.798651
     47          1           0       -0.609570   -2.717901    0.086002
     48          1           0       -1.908517   -0.422758   -0.722227
     49          1           0        1.550285   -0.339108    4.284991
     50          1           0        2.814454   -0.772403    3.209531
     51          1           0        2.720824   -2.613130    0.578250
     52          1           0       -2.014539   -0.616706    4.440946
     53          1           0       -0.680554    0.219113    4.738580
     54          1           0       -1.865608    0.753456    3.444550
     55          1           0       -5.701189   -1.061422    2.258414
     56          1           0       -5.776732   -2.865027    2.126489
     57          1           0       -6.950678   -1.991972    1.026357
     58          1           0        2.324723    1.219308    1.607226
     59          1           0        1.160934    1.951791    2.757044
     60          1           0        0.412625    0.227029   -0.150525
     61          1           0        4.604089   -1.303759   -3.238858
     62          1           0        3.960859   -2.803197   -1.978070
     63          1           0       -5.886622   -2.265002   -2.866348
     64          1           0        5.012255   -1.339058    0.026164
     65          1           0        5.763672   -0.200249   -1.404372
     66          1           0        3.926117    0.300848   -3.982974
     67          1           0        3.112861    2.065310   -3.611939
     68          1           0        2.449875    0.720996   -4.617462
     69          1           0        0.859534    2.553217   -2.888968
     70          1           0       -6.942958   -4.036230   -0.491095
     71          1           0       -7.718491   -3.853987   -2.112242
     72          1           0        3.628447    3.727920    3.398580
     73          1           0       -0.517394    3.954579   -3.126086
     74          1           0       -4.186033    4.562016   -0.478359
     75          1           0       -3.701774    4.069756    1.144465
     76          1           0       -3.058449    5.295461    0.338617
     77          1           0        8.337238   -2.245032   -0.665046
     78          1           0       -1.598125    6.079683   -3.521235
     79          1           0       -2.680931    5.782650   -2.169224
 ---------------------------------------------------------------------

 SCF Done:  E(RB3LYP) =  -1947.81953478     A.U. after   20 cycles

 Excitation energies and oscillator strengths:

 Excited State   1:      Singlet-A      0.5631 eV 2201.98 nm  f=0.0003  <S**2>=0.000
     155 ->156         0.70539
 This state for optimization and/or second-order correction.
 Total Energy, E(TD-HF/TD-DFT) =  -1947.79884277
 Copying the excited state density for this state as the 1-particle RhoCI density.

 The electronic state is 1-A.
 Alpha  occ. eigenvalues --  -19.20072 -19.17486 -19.13131 -19.12895 -19.12271
 Alpha  occ. eigenvalues --  -19.09204 -14.37185 -14.37171 -14.33664 -14.31332
 Alpha  occ. eigenvalues --  -10.34114 -10.31487 -10.27948 -10.26867 -10.26792
 Alpha  occ. eigenvalues --  -10.26232 -10.24940 -10.24886 -10.24660 -10.23670
 Alpha  occ. eigenvalues --  -10.22963 -10.22048 -10.21848 -10.21814 -10.21259
 Alpha  occ. eigenvalues --  -10.21184 -10.20899 -10.20852 -10.20825 -10.20708
 Alpha  occ. eigenvalues --  -10.20351 -10.20051 -10.19709 -10.19597 -10.19553
 Alpha  occ. eigenvalues --  -10.19318 -10.18976 -10.18861 -10.18635 -10.18361
 Alpha  occ. eigenvalues --  -10.17169 -10.16929 -10.16514  -1.10480  -1.09703
 Alpha  occ. eigenvalues --   -1.04577  -1.01919  -1.01508  -0.99566  -0.96976
 Alpha  occ. eigenvalues --   -0.96914  -0.96202  -0.91500  -0.84844  -0.83426
 Alpha  occ. eigenvalues --   -0.82999  -0.80968  -0.79232  -0.79093  -0.78497
 Alpha  occ. eigenvalues --   -0.77704  -0.76349  -0.75782  -0.74237  -0.73419
 Alpha  occ. eigenvalues --   -0.73227  -0.70671  -0.70030  -0.68671  -0.67990
 Alpha  occ. eigenvalues --   -0.67071  -0.66706  -0.64774  -0.63233  -0.61846
 Alpha  occ. eigenvalues --   -0.60906  -0.59069  -0.58569  -0.57858  -0.57154
 Alpha  occ. eigenvalues --   -0.56191  -0.54928  -0.54335  -0.53915  -0.53308
 Alpha  occ. eigenvalues --   -0.52941  -0.51343  -0.51230  -0.50438  -0.49817
 Alpha  occ. eigenvalues --   -0.49455  -0.48862  -0.48673  -0.48417  -0.48152
 Alpha  occ. eigenvalues --   -0.47751  -0.47650  -0.47537  -0.46933  -0.46424
 Alpha  occ. eigenvalues --   -0.46008  -0.45658  -0.44860  -0.44321  -0.43688
 Alpha  occ. eigenvalues --   -0.43640  -0.43506  -0.43090  -0.42575  -0.42226
 Alpha  occ. eigenvalues --   -0.42031  -0.41847  -0.41772  -0.41550  -0.41492
 Alpha  occ. eigenvalues --   -0.40996  -0.40839  -0.40485  -0.40191  -0.39402
 Alpha  occ. eigenvalues --   -0.39297  -0.39008  -0.38753  -0.38241  -0.38024
 Alpha  occ. eigenvalues --   -0.37820  -0.37667  -0.37486  -0.37184  -0.36808
 Alpha  occ. eigenvalues --   -0.36175  -0.35813  -0.35427  -0.35292  -0.34894
 Alpha  occ. eigenvalues --   -0.33650  -0.33391  -0.32628  -0.32007  -0.31903
 Alpha  occ. eigenvalues --   -0.31709  -0.30274  -0.29601  -0.29416  -0.28082
 Alpha  occ. eigenvalues --   -0.27666  -0.27072  -0.26626  -0.25470  -0.23965
 Alpha  occ. eigenvalues --   -0.23709  -0.23046  -0.22578  -0.22470  -0.18462
 Alpha virt. eigenvalues --   -0.14092  -0.07658  -0.03561  -0.03330  -0.02635
 Alpha virt. eigenvalues --   -0.00149   0.01289   0.01718   0.02282   0.03839
 Alpha virt. eigenvalues --    0.04082   0.04538   0.04818   0.05190   0.05696

 Mulliken charges:
               1
     1  O   -0.201390
     2  O   -0.155434
     3  O   -0.250385
     4  O   -0.148875
     5  O   -0.324495
     6  O   -0.189309
     7  N   -0.076068
     8  N   -0.337284
     9  N   -0.035719
    10  N   -0.278830
    11  C    0.199038
    12  C    0.222668
    13  C   -0.128147
    14  C   -0.093042
    15  C   -0.132779
    16  C   -0.042802
    17  C   -0.142989
    18  C    0.198194
    19  C   -0.071786
    20  C   -0.211453
    21  C    0.145721
    22  C    0.147768
    23  C   -0.052722
    24  C    0.055371
    25  C   -0.001546
    26  C   -0.147254
    27  C   -0.040591
    28  C    0.155880
    29  C    0.018412
    30  C    0.028317
    31  C   -0.012965
    32  C    0.158116
    33  C   -0.093457
    34  C    0.124666
    35  C    0.067092
    36  C   -0.108278
    37  C    0.154073
    38  C    0.088568
    39  C   -0.143325
    40  C    0.128277
    41  C   -0.067962
    42  C    0.091195
    43  C    0.088500
    44  H   -0.020279
    45  H   -0.013217
    46  H   -0.020509
    47  H    0.181536
    48  H    0.197940
    49  H    0.015290
    50  H   -0.018362
    51  H    0.000537
    52  H   -0.016357
    53  H   -0.021534
    54  H    0.046288
    55  H    0.032600
    56  H    0.047316
    57  H    0.044690
    58  H    0.048256
    59  H    0.064632
    60  H    0.159783
    61  H    0.055245
    62  H    0.072082
    63  H    0.006286
    64  H    0.094373
    65  H    0.046189
    66  H   -0.005544
    67  H    0.058221
    68  H    0.009369
    69  H   -0.009994
    70  H    0.026791
    71  H    0.031304
    72  H    0.137567
    73  H   -0.036316
    74  H    0.016076
    75  H    0.031645
    76  H    0.005996
    77  H    0.170341
    78  H   -0.007028
    79  H   -0.014188
 Sum of Mulliken charges =  -0.00000

 Dipole moment (field-independent basis, Debye):
    X=              2.0878    Y=              5.0045    Z=             -1.6283  Tot=              5.6618
 Quadrupole moment (field-independent basis, Debye-Ang):
   XX=           -242.9693   YY=           -239.1610   ZZ=           -266.8928
   XY=              1.2792   XZ=            -19.3243   YZ=            -17.1826

 Normal termination of Gaussian 16 at Fri Jul 26 06:05:43 2019.
