 Gaussian 16, Revision A.03,
 Gaussian 16:  ES64L-G16RevA.03 25-Dec-2016

 --------------------------
 # td=(NStates=1) B3LYP/SVP
 --------------------------

 --
 TD
 --
 Symbolic Z-matrix:
 Charge =  0 Multiplicity = 1

                         Standard orientation:
 ---------------------------------------------------------------------
 Center     Atomic      Atomic             Coordinates (Angstroms)
 Number     Number       Type             X           Y           Z
 ---------------------------------------------------------------------
      1          8           0       -3.399615   -1.203724   -2.858452
      2          8           0        3.169746    2.794929    3.609267
      3          8           0        3.949348    0.830086    4.288434
      4          8           0        7.766237   -1.480083   -1.016657
      5          8           0        6.563811   -2.948659   -2.233350
      6          8           0       -2.532452    1.423996    1.606496
      7          7           0       -0.243993   -2.387128    0.614583
      8          7           0       -2.740576   -1.216117   -0.693683
      9          7           0        1.181272    0.215007   -0.705902
     10          7           0       -1.003613    1.470693   -0.118343
     11          6           0       -3.332186   -1.353421    0.576443
     12          6           0       -2.669142   -2.381020    1.497577
     13          6           0       -1.192290   -2.081911    1.605663
     14          6           0       -0.490811   -1.407535    2.718746
     15          6           0        0.808228   -1.324637    2.304069
     16          6           0        0.943782   -1.975979    0.984843
     17          6           0       -4.745812   -1.887551    0.204513
     18          6           0        1.931920   -0.666001    3.045927
     19          6           0       -4.796007   -2.029850   -1.163767
     20          6           0        2.085663   -1.908242    0.057247
     21          6           0        2.091027   -0.757253   -0.695857
     22          6           0       -3.569927   -1.408457   -1.780465
     23          6           0        3.029929   -0.414268   -1.838352
     24          6           0       -1.188378   -0.874024    3.939556
     25          6           0       -5.803304   -2.048222    1.231306
     26          6           0        2.547484    0.825384   -2.432319
     27          6           0        2.015441    0.848672    2.906087
     28          6           0        1.331020    1.227976   -1.715755
     29          6           0        4.150977   -1.310176   -2.146811
     30          6           0       -5.902225   -2.353630   -2.095005
     31          6           0        5.424725   -0.980052   -1.258673
     32          6           0        3.045426    1.487863   -3.721478
     33          6           0        0.419861    2.278117   -1.933024
     34          6           0        3.085111    1.428790    3.731286
     35          6           0       -0.651746    2.391542   -1.032982
     36          6           0       -6.825605   -3.383606   -1.872504
     37          6           0        6.613449   -1.914829   -1.633398
     38          6           0       -1.452380    3.637880   -1.027175
     39          6           0       -2.406487    3.378871   -0.048912
     40          6           0       -2.046952    2.013786    0.625965
     41          6           0       -1.258209    4.948582   -1.829986
     42          6           0       -3.518722    4.249000    0.578017
     43          6           0       -2.056234    5.978096   -1.806718
     44          1           0       -3.409062   -0.420448    1.036781
     45          1           0       -2.698619   -3.561432    1.040447
     46          1           0       -3.082357   -2.451857    2.452606
     47          1           0       -0.475285   -2.848677   -0.245178
     48          1           0       -2.086404   -0.501957   -0.789742
     49          1           0        1.802995   -0.947260    4.064715
     50          1           0        2.967997   -0.924216    3.006834
     51          1           0        2.868685   -2.698033   -0.009571
     52          1           0       -1.914189   -1.460682    4.247923
     53          1           0       -0.589393   -0.741604    4.865252
     54          1           0       -1.754636    0.074074    3.693081
     55          1           0       -5.590769   -1.364762    1.930744
     56          1           0       -5.669664   -3.125609    1.836087
     57          1           0       -6.862330   -1.919853    0.897804
     58          1           0        2.077054    1.136505    1.790364
     59          1           0        0.928058    1.310041    3.184806
     60          1           0        0.053416    0.359213   -0.228621
     61          1           0        4.513753   -0.921660   -3.174005
     62          1           0        3.974266   -2.471336   -1.988694
     63          1           0       -5.826829   -2.111217   -3.065857
     64          1           0        5.044928   -1.178152   -0.183402
     65          1           0        5.665011    0.048744   -1.463098
     66          1           0        3.963802    0.904288   -4.217108
     67          1           0        3.449472    2.359462   -3.300915
     68          1           0        2.314535    1.336725   -4.545066
     69          1           0        0.575617    2.937365   -2.805878
     70          1           0       -7.007948   -3.944850   -0.954477
     71          1           0       -7.341159   -3.753504   -2.743218
     72          1           0        4.049704    3.186186    4.137202
     73          1           0       -0.478028    4.764405   -2.550706
     74          1           0       -4.279861    4.511277   -0.078002
     75          1           0       -3.695257    3.592723    1.461912
     76          1           0       -3.086062    5.171942    1.023486
     77          1           0        8.401974   -2.214661   -1.097494
     78          1           0       -1.914899    6.719549   -2.563560
     79          1           0       -3.082518    5.836350   -1.352350
 ---------------------------------------------------------------------

 SCF Done:  E(RB3LYP) =  -1947.85487097     A.U. after   17 cycles

 Excitation energies and oscillator strengths:

 Excited State   1:      Singlet-A      0.6234 eV 1988.73 nm  f=0.0006  <S**2>=0.000
     155 ->156         0.70447
 This state for optimization and/or second-order correction.
 Total Energy, E(TD-HF/TD-DFT) =  -1947.83196013
 Copying the excited state density for this state as the 1-particle RhoCI density.

 The electronic state is 1-A.
 Alpha  occ. eigenvalues --  -19.18712 -19.16771 -19.14518 -19.13183 -19.11801
 Alpha  occ. eigenvalues --  -19.09491 -14.37351 -14.35658 -14.32513 -14.31683
 Alpha  occ. eigenvalues --  -10.33490 -10.30696 -10.29712 -10.26872 -10.26025
 Alpha  occ. eigenvalues --  -10.25972 -10.24670 -10.23119 -10.23006 -10.22806
 Alpha  occ. eigenvalues --  -10.22671 -10.22393 -10.22341 -10.22161 -10.22079
 Alpha  occ. eigenvalues --  -10.22030 -10.21621 -10.21083 -10.20492 -10.20283
 Alpha  occ. eigenvalues --  -10.20044 -10.19999 -10.19873 -10.19871 -10.19861
 Alpha  occ. eigenvalues --  -10.19457 -10.18441 -10.18388 -10.17613 -10.17054
 Alpha  occ. eigenvalues --  -10.16945 -10.16699 -10.16691  -1.10350  -1.07674
 Alpha  occ. eigenvalues --   -1.07397  -1.03001  -1.01906  -0.98362  -0.97644
 Alpha  occ. eigenvalues --   -0.96677  -0.94262  -0.93626  -0.82331  -0.81927
 Alpha  occ. eigenvalues --   -0.81543  -0.79996  -0.79650  -0.78195  -0.77792
 Alpha  occ. eigenvalues --   -0.76610  -0.76148  -0.75731  -0.73821  -0.72380
 Alpha  occ. eigenvalues --   -0.71340  -0.70054  -0.69621  -0.68312  -0.66982
 Alpha  occ. eigenvalues --   -0.66005  -0.65375  -0.62866  -0.60864  -0.60180
 Alpha  occ. eigenvalues --   -0.59885  -0.59586  -0.57781  -0.56091  -0.55529
 Alpha  occ. eigenvalues --   -0.55392  -0.55313  -0.54419  -0.53721  -0.53055
 Alpha  occ. eigenvalues --   -0.52216  -0.51054  -0.50427  -0.50187  -0.49568
 Alpha  occ. eigenvalues --   -0.48973  -0.48903  -0.48800  -0.48135  -0.47938
 Alpha  occ. eigenvalues --   -0.46974  -0.46629  -0.46372  -0.46064  -0.45844
 Alpha  occ. eigenvalues --   -0.45690  -0.45509  -0.44986  -0.44727  -0.44019
 Alpha  occ. eigenvalues --   -0.43451  -0.43375  -0.43148  -0.42796  -0.42625
 Alpha  occ. eigenvalues --   -0.42335  -0.41784  -0.41425  -0.40951  -0.40818
 Alpha  occ. eigenvalues --   -0.40606  -0.40354  -0.39853  -0.39704  -0.39530
 Alpha  occ. eigenvalues --   -0.39017  -0.38770  -0.38359  -0.38244  -0.38108
 Alpha  occ. eigenvalues --   -0.37741  -0.37275  -0.37266  -0.37065  -0.36544
 Alpha  occ. eigenvalues --   -0.36273  -0.36048  -0.35659  -0.35258  -0.34707
 Alpha  occ. eigenvalues --   -0.34356  -0.33664  -0.32201  -0.31325  -0.31207
 Alpha  occ. eigenvalues --   -0.30629  -0.29871  -0.29759  -0.29496  -0.29367
 Alpha  occ. eigenvalues --   -0.27461  -0.26804  -0.25853  -0.25484  -0.24673
 Alpha  occ. eigenvalues --   -0.24578  -0.23208  -0.22487  -0.21650  -0.17706
 Alpha virt. eigenvalues --   -0.12826  -0.07646  -0.03734  -0.02242  -0.01490
 Alpha virt. eigenvalues --    0.00627   0.01840   0.02440   0.02700   0.03001
 Alpha virt. eigenvalues --    0.03287   0.04512   0.05127   0.05398   0.05739

 Mulliken charges:
               1
     1  O   -0.100715
     2  O   -0.277558
     3  O   -0.210744
     4  O   -0.203402
     5  O   -0.199996
     6  O   -0.223923
     7  N    0.003648
     8  N   -0.182524
     9  N   -0.227129
    10  N   -0.302457
    11  C    0.131104
    12  C    0.192831
    13  C   -0.164078
    14  C   -0.077668
    15  C   -0.092473
    16  C   -0.034742
    17  C   -0.195958
    18  C    0.124227
    19  C   -0.085481
    20  C   -0.121266
    21  C    0.142353
    22  C    0.077743
    23  C   -0.068863
    24  C    0.162982
    25  C    0.112610
    26  C   -0.148627
    27  C   -0.094243
    28  C    0.118544
    29  C    0.018702
    30  C    0.038929
    31  C   -0.033228
    32  C    0.076137
    33  C   -0.130653
    34  C    0.165449
    35  C    0.148168
    36  C   -0.054602
    37  C    0.157913
    38  C   -0.024418
    39  C   -0.255237
    40  C    0.205627
    41  C    0.053142
    42  C    0.100128
    43  C    0.002897
    44  H    0.013950
    45  H    0.005979
    46  H   -0.036234
    47  H    0.108848
    48  H    0.096752
    49  H   -0.019162
    50  H   -0.022093
    51  H    0.023072
    52  H   -0.056049
    53  H    0.001409
    54  H    0.035133
    55  H   -0.019052
    56  H    0.040742
    57  H    0.036428
    58  H    0.059226
    59  H    0.056423
    60  H    0.284754
    61  H    0.018075
    62  H    0.066438
    63  H   -0.035585
    64  H    0.070968
    65  H    0.030854
    66  H    0.021059
    67  H    0.033008
    68  H    0.060898
    69  H    0.007897
    70  H    0.020383
    71  H    0.016829
    72  H    0.229280
    73  H   -0.019378
    74  H    0.037474
    75  H    0.032974
    76  H    0.034405
    77  H    0.181552
    78  H    0.023939
    79  H    0.035652
 Sum of Mulliken charges =  -0.00000

 Dipole moment (field-independent basis, Debye):
    X=              2.2106    Y=              3.4384    Z=             -1.8265  Tot=              4.4772
 Quadrupole moment (field-independent basis, Debye-Ang):
   XX=           -239.7489   YY=           -235.7411   ZZ=           -260.8669
   XY=              1.6573   XZ=            -17.9046   YZ=            -12.1373

 Normal termination of Gaussian 16 at Wed Jul 24 01:42:28 2019.
