 Gaussian 16, Revision A.03,
 Gaussian 16:  ES64L-G16RevA.03 25-Dec-2016

 --------------------------
 # td=(NStates=1) B3LYP/SVP
 --------------------------

 --
 TD
 --
 Symbolic Z-matrix:
 Charge =  0 Multiplicity = 1

                         Standard orientation:
 ---------------------------------------------------------------------
 Center     Atomic      Atomic             Coordinates (Angstroms)
 Number     Number       Type             X           Y           Z
 ---------------------------------------------------------------------
      1          8           0        5.542630   -0.150260   -3.333307
      2          8           0       -2.984811   -2.996424    3.283216
      3          8           0       -3.438936   -0.780192    3.184593
      4          8           0       -1.584424    7.200368    1.577137
      5          8           0       -0.773321    7.113851   -0.557605
      6          8           0       -1.631612   -4.051684   -0.042915
      7          7           0        2.254875    0.949383    0.696637
      8          7           0        4.377539   -0.594384   -1.305389
      9          7           0       -1.936292    0.684605   -0.438719
     10          7           0       -2.486846   -1.923087   -0.622166
     11          6           0        4.775041   -1.185224   -0.011766
     12          6           0        4.328705   -0.243367    1.159780
     13          6           0        2.833045   -0.023921    1.359147
     14          6           0        1.907702   -0.794988    2.081069
     15          6           0        0.623580   -0.109618    1.763507
     16          6           0        0.889554    0.948550    0.938508
     17          6           0        6.337527   -1.249000   -0.079139
     18          6           0       -0.629881   -0.258498    2.495592
     19          6           0        6.700177   -0.852135   -1.298530
     20          6           0        0.178792    1.882735    0.195318
     21          6           0       -1.133852    1.759501   -0.250435
     22          6           0        5.540226   -0.555623   -2.141514
     23          6           0       -1.956111    2.945492   -0.809546
     24          6           0        2.112562   -1.812095    3.049768
     25          6           0        7.124658   -1.753318    1.088784
     26          6           0       -3.138648    2.396440   -1.324687
     27          6           0       -1.295710   -1.668252    2.557941
     28          6           0       -3.049123    0.872078   -1.167283
     29          6           0       -1.611427    4.358053   -0.874955
     30          6           0        8.033745   -0.669169   -1.955731
     31          6           0       -1.783743    5.208412    0.433305
     32          6           0       -4.320265    3.091227   -1.935292
     33          6           0       -3.937628   -0.176109   -1.520962
     34          6           0       -2.735802   -1.762574    3.001525
     35          6           0       -3.585907   -1.541228   -1.241143
     36          6           0        9.285529   -0.645445   -1.408391
     37          6           0       -1.275981    6.566141    0.353384
     38          6           0       -4.487242   -2.628158   -1.625714
     39          6           0       -3.764458   -3.810806   -1.153899
     40          6           0       -2.558350   -3.352436   -0.491942
     41          6           0       -5.864037   -2.463830   -2.043293
     42          6           0       -4.163693   -5.201191   -1.127101
     43          6           0       -6.722481   -3.366272   -2.568177
     44          1           0        4.386648   -2.194220    0.139943
     45          1           0        4.991051    0.640146    1.020817
     46          1           0        4.595715   -0.917883    2.099628
     47          1           0        2.837972    1.540837   -0.129418
     48          1           0        3.384952   -0.552150   -1.665693
     49          1           0       -0.591281    0.164212    3.426264
     50          1           0       -1.467744    0.236947    2.075319
     51          1           0        0.648648    2.738250    0.061210
     52          1           0        3.189883   -1.858522    3.274059
     53          1           0        1.657670   -1.533558    3.974739
     54          1           0        1.730303   -2.724413    2.902130
     55          1           0        6.573168   -2.583367    1.739223
     56          1           0        7.354105   -0.971505    1.804525
     57          1           0        7.979578   -2.299798    0.657641
     58          1           0       -1.156022   -1.974845    1.525226
     59          1           0       -0.653068   -2.397708    3.008672
     60          1           0       -1.476212   -0.291365   -0.029528
     61          1           0       -2.207854    5.006619   -1.755449
     62          1           0       -0.560991    4.418278   -1.026876
     63          1           0        7.834890   -0.416515   -3.050719
     64          1           0       -1.400838    4.758569    1.523125
     65          1           0       -2.878833    5.136981    0.942220
     66          1           0       -3.950989    4.217532   -2.055710
     67          1           0       -5.228861    3.002695   -1.372392
     68          1           0       -4.526102    2.892474   -2.912967
     69          1           0       -4.710585    0.269269   -2.081704
     70          1           0        9.541145   -0.619977   -0.178323
     71          1           0       10.094250   -0.809975   -2.107917
     72          1           0       -3.857888   -2.966956    3.785005
     73          1           0       -6.146671   -1.326662   -1.820362
     74          1           0       -5.142771   -5.570454   -0.413389
     75          1           0       -4.431974   -5.686737   -2.213737
     76          1           0       -3.470157   -5.790968   -0.504802
     77          1           0       -1.150157    8.026208    1.210887
     78          1           0       -7.709850   -3.041988   -3.021266
     79          1           0       -6.521280   -4.452565   -2.720630
 ---------------------------------------------------------------------

 SCF Done:  E(RB3LYP) =  -1947.84039245     A.U. after   17 cycles

 Excitation energies and oscillator strengths:

 Excited State   1:      Singlet-A      1.9221 eV  645.04 nm  f=0.3252  <S**2>=0.000
     154 ->156         0.26995
     155 ->156         0.65279
     155 <-156        -0.10452
 This state for optimization and/or second-order correction.
 Total Energy, E(TD-HF/TD-DFT) =  -1947.76975546
 Copying the excited state density for this state as the 1-particle RhoCI density.

 The electronic state is 1-A.
 Alpha  occ. eigenvalues --  -19.19187 -19.17952 -19.15178 -19.11548 -19.10613
 Alpha  occ. eigenvalues --  -19.10589 -14.39159 -14.37551 -14.36159 -14.28770
 Alpha  occ. eigenvalues --  -10.32863 -10.31113 -10.29257 -10.26393 -10.25248
 Alpha  occ. eigenvalues --  -10.25240 -10.24782 -10.23305 -10.23290 -10.23260
 Alpha  occ. eigenvalues --  -10.22838 -10.22827 -10.22560 -10.22215 -10.22152
 Alpha  occ. eigenvalues --  -10.21812 -10.21716 -10.21362 -10.21238 -10.20989
 Alpha  occ. eigenvalues --  -10.20841 -10.20822 -10.20514 -10.20408 -10.20291
 Alpha  occ. eigenvalues --  -10.20161 -10.19929 -10.19315 -10.19260 -10.19234
 Alpha  occ. eigenvalues --  -10.18195 -10.17615 -10.17508  -1.11139  -1.11083
 Alpha  occ. eigenvalues --   -1.02038  -1.00697  -1.00128  -0.99975  -0.99802
 Alpha  occ. eigenvalues --   -0.98294  -0.92842  -0.91593  -0.82748  -0.82352
 Alpha  occ. eigenvalues --   -0.82231  -0.81612  -0.79415  -0.79209  -0.77714
 Alpha  occ. eigenvalues --   -0.77304  -0.76830  -0.75368  -0.74450  -0.73013
 Alpha  occ. eigenvalues --   -0.72293  -0.72002  -0.70030  -0.68660  -0.68064
 Alpha  occ. eigenvalues --   -0.67737  -0.65560  -0.63585  -0.61587  -0.60306
 Alpha  occ. eigenvalues --   -0.59821  -0.58751  -0.58564  -0.57092  -0.56594
 Alpha  occ. eigenvalues --   -0.56393  -0.55537  -0.54415  -0.53503  -0.52567
 Alpha  occ. eigenvalues --   -0.51921  -0.51755  -0.50592  -0.50232  -0.50103
 Alpha  occ. eigenvalues --   -0.49848  -0.49047  -0.48830  -0.48305  -0.48137
 Alpha  occ. eigenvalues --   -0.47743  -0.47315  -0.46771  -0.46200  -0.45918
 Alpha  occ. eigenvalues --   -0.45737  -0.45056  -0.44960  -0.44540  -0.44153
 Alpha  occ. eigenvalues --   -0.43967  -0.43630  -0.43053  -0.43022  -0.42788
 Alpha  occ. eigenvalues --   -0.42411  -0.42196  -0.42109  -0.41868  -0.41709
 Alpha  occ. eigenvalues --   -0.41446  -0.41158  -0.40969  -0.40515  -0.39998
 Alpha  occ. eigenvalues --   -0.39648  -0.39543  -0.39028  -0.38856  -0.38367
 Alpha  occ. eigenvalues --   -0.37994  -0.37834  -0.37711  -0.36902  -0.36349
 Alpha  occ. eigenvalues --   -0.35944  -0.35285  -0.34746  -0.34107  -0.34031
 Alpha  occ. eigenvalues --   -0.33897  -0.32905  -0.32689  -0.32262  -0.31697
 Alpha  occ. eigenvalues --   -0.31366  -0.30826  -0.30519  -0.28814  -0.27330
 Alpha  occ. eigenvalues --   -0.27248  -0.26545  -0.26001  -0.25707  -0.24772
 Alpha  occ. eigenvalues --   -0.24404  -0.23868  -0.23741  -0.21374  -0.18962
 Alpha virt. eigenvalues --   -0.11266  -0.07086  -0.06461  -0.01723  -0.00645
 Alpha virt. eigenvalues --   -0.00577   0.00700   0.01352   0.01623   0.02419
 Alpha virt. eigenvalues --    0.02931   0.03547   0.04545   0.04732   0.04885

 Mulliken charges:
               1
     1  O   -0.261060
     2  O   -0.128977
     3  O   -0.249834
     4  O   -0.235045
     5  O   -0.185084
     6  O   -0.227352
     7  N   -0.112277
     8  N   -0.264994
     9  N   -0.098500
    10  N   -0.286489
    11  C    0.106476
    12  C    0.099850
    13  C   -0.082552
    14  C   -0.124150
    15  C   -0.126654
    16  C    0.136383
    17  C   -0.181708
    18  C    0.117288
    19  C   -0.047223
    20  C   -0.042132
    21  C    0.090006
    22  C    0.194653
    23  C   -0.078160
    24  C    0.193909
    25  C    0.059489
    26  C   -0.136897
    27  C   -0.039565
    28  C    0.049812
    29  C    0.093885
    30  C   -0.011946
    31  C   -0.138441
    32  C    0.126253
    33  C   -0.084750
    34  C    0.146555
    35  C    0.131419
    36  C   -0.068849
    37  C    0.171404
    38  C    0.019232
    39  C   -0.123563
    40  C    0.175046
    41  C   -0.031316
    42  C   -0.036238
    43  C   -0.053696
    44  H    0.018881
    45  H    0.003286
    46  H    0.013603
    47  H    0.184058
    48  H    0.152658
    49  H   -0.017164
    50  H   -0.013061
    51  H   -0.082191
    52  H   -0.016867
    53  H   -0.003185
    54  H    0.002550
    55  H    0.033164
    56  H    0.044345
    57  H    0.045560
    58  H    0.045414
    59  H   -0.005381
    60  H    0.225892
    61  H    0.065114
    62  H    0.003746
    63  H    0.045159
    64  H    0.069232
    65  H    0.068097
    66  H    0.006212
    67  H    0.033769
    68  H    0.002847
    69  H   -0.045931
    70  H    0.056211
    71  H    0.035738
    72  H    0.188871
    73  H    0.031582
    74  H    0.032218
    75  H    0.057698
    76  H    0.027490
    77  H    0.165843
    78  H    0.037484
    79  H    0.032848
 Sum of Mulliken charges =  -0.00000

 Dipole moment (field-independent basis, Debye):
    X=              0.5848    Y=              1.3354    Z=              3.7319  Tot=              4.0065
 Quadrupole moment (field-independent basis, Debye-Ang):
   XX=           -224.7096   YY=           -253.9622   ZZ=           -261.6279
   XY=             -5.1664   XZ=             32.2375   YZ=             -5.7311

 Normal termination of Gaussian 16 at Thu Oct  3 04:13:32 2019.
