 Gaussian 16, Revision A.03,
 Gaussian 16:  ES64L-G16RevA.03 25-Dec-2016

 --------------------------
 # td=(NStates=1) B3LYP/SVP
 --------------------------

 --
 TD
 --
 Symbolic Z-matrix:
 Charge =  0 Multiplicity = 1

                         Standard orientation:
 ---------------------------------------------------------------------
 Center     Atomic      Atomic             Coordinates (Angstroms)
 Number     Number       Type             X           Y           Z
 ---------------------------------------------------------------------
      1          8           0       -3.085383   -1.775147   -2.662355
      2          8           0        3.288424    3.288167    2.778207
      3          8           0        3.448605    1.968068    4.664722
      4          8           0        7.758478   -1.390238   -0.801678
      5          8           0        6.740988   -3.186162   -1.729591
      6          8           0       -2.571716    1.890645    1.264498
      7          7           0       -0.257830   -2.258429    1.232501
      8          7           0       -2.593298   -1.349076   -0.438724
      9          7           0        1.249859    0.028764   -0.738624
     10          7           0       -1.075411    1.358276   -0.390160
     11          6           0       -3.390750   -1.259942    0.765563
     12          6           0       -2.730601   -2.128734    1.846660
     13          6           0       -1.286928   -1.797364    1.997405
     14          6           0       -0.527097   -0.934050    2.951699
     15          6           0        0.743235   -0.838128    2.623224
     16          6           0        1.010206   -1.675460    1.447888
     17          6           0       -4.651620   -1.770432    0.453750
     18          6           0        1.721600    0.000560    3.385544
     19          6           0       -4.771214   -2.079770   -0.854704
     20          6           0        2.097851   -1.846280    0.522653
     21          6           0        2.091215   -1.035477   -0.583825
     22          6           0       -3.379747   -1.731336   -1.528692
     23          6           0        3.026368   -0.855437   -1.642514
     24          6           0       -1.317162    0.090591    3.873027
     25          6           0       -5.878486   -1.912938    1.431457
     26          6           0        2.579906    0.149112   -2.575073
     27          6           0        1.934395    1.395943    2.826775
     28          6           0        1.359509    0.669358   -1.873192
     29          6           0        4.238706   -1.734086   -1.822999
     30          6           0       -5.848603   -2.613120   -1.703476
     31          6           0        5.482240   -1.199382   -1.133734
     32          6           0        3.206465    0.649008   -3.784217
     33          6           0        0.464413    1.741639   -2.272332
     34          6           0        3.044187    2.192670    3.469587
     35          6           0       -0.626213    2.094419   -1.404094
     36          6           0       -6.976626   -3.371278   -1.390784
     37          6           0        6.691964   -2.076079   -1.304135
     38          6           0       -1.436372    3.318524   -1.598443
     39          6           0       -2.419766    3.216943   -0.692009
     40          6           0       -2.041299    2.088264    0.230141
     41          6           0       -1.296576    4.224474   -2.650522
     42          6           0       -3.474240    4.188511   -0.366958
     43          6           0       -2.159033    5.282462   -3.021480
     44          1           0       -3.533439   -0.219216    1.080925
     45          1           0       -2.953685   -3.186548    1.581893
     46          1           0       -3.280829   -2.050463    2.867986
     47          1           0       -0.463346   -2.772039    0.402235
     48          1           0       -1.899406   -0.575900   -0.670890
     49          1           0        1.431663    0.168222    4.494095
     50          1           0        2.832321   -0.442247    3.175855
     51          1           0        2.883023   -2.789991    0.470095
     52          1           0       -1.835449   -0.653639    4.575725
     53          1           0       -0.549546    0.888309    4.278386
     54          1           0       -1.968590    0.691153    3.260446
     55          1           0       -5.457389   -1.262642    2.157505
     56          1           0       -5.810192   -3.008282    1.848932
     57          1           0       -6.822749   -1.736824    0.969725
     58          1           0        2.019605    1.414821    1.645557
     59          1           0        1.074994    2.169285    2.984203
     60          1           0        0.291734    0.018988   -0.255332
     61          1           0        4.348173   -1.969717   -2.942976
     62          1           0        4.025042   -2.697766   -1.348872
     63          1           0       -5.676570   -2.192210   -2.701047
     64          1           0        5.170553   -1.037378   -0.014413
     65          1           0        5.689030   -0.147572   -1.578397
     66          1           0        4.146489    0.313385   -4.050021
     67          1           0        3.362361    1.762232   -3.453291
     68          1           0        2.568264    0.658845   -4.627236
     69          1           0        0.953936    2.194729   -3.027664
     70          1           0       -7.095278   -3.796549   -0.329968
     71          1           0       -7.715195   -3.711042   -2.057260
     72          1           0        3.903597    3.882254    3.330087
     73          1           0       -0.536395    4.284879   -3.482096
     74          1           0       -4.316134    3.995053   -1.002699
     75          1           0       -4.123132    3.849363    0.566786
     76          1           0       -3.153805    5.342024   -0.319925
     77          1           0        8.578997   -2.156304   -1.112807
     78          1           0       -1.903534    5.718857   -3.941571
     79          1           0       -2.963084    5.575419   -2.272479
 ---------------------------------------------------------------------

 SCF Done:  E(RB3LYP) =  -1947.85036711     A.U. after   17 cycles

 Excitation energies and oscillator strengths:

 Excited State   1:      Singlet-A      1.0183 eV 1217.53 nm  f=0.0008  <S**2>=0.000
     155 ->156         0.70273
 This state for optimization and/or second-order correction.
 Total Energy, E(TD-HF/TD-DFT) =  -1947.81294425
 Copying the excited state density for this state as the 1-particle RhoCI density.

 The electronic state is 1-A.
 Alpha  occ. eigenvalues --  -19.19982 -19.19574 -19.14803 -19.12309 -19.11440
 Alpha  occ. eigenvalues --  -19.09732 -14.37624 -14.37563 -14.33110 -14.30989
 Alpha  occ. eigenvalues --  -10.33212 -10.31780 -10.27876 -10.27086 -10.26917
 Alpha  occ. eigenvalues --  -10.25810 -10.25145 -10.23900 -10.23641 -10.23149
 Alpha  occ. eigenvalues --  -10.22751 -10.22002 -10.21812 -10.21758 -10.21330
 Alpha  occ. eigenvalues --  -10.21204 -10.21172 -10.21123 -10.20785 -10.20677
 Alpha  occ. eigenvalues --  -10.20545 -10.20509 -10.20494 -10.20102 -10.20075
 Alpha  occ. eigenvalues --  -10.19970 -10.19819 -10.19648 -10.19284 -10.18199
 Alpha  occ. eigenvalues --  -10.18104 -10.17310 -10.16613  -1.10289  -1.09477
 Alpha  occ. eigenvalues --   -1.05701  -1.03686  -1.01642  -1.01392  -0.97056
 Alpha  occ. eigenvalues --   -0.96550  -0.95286  -0.93372  -0.83947  -0.82931
 Alpha  occ. eigenvalues --   -0.82265  -0.80429  -0.80362  -0.79258  -0.78247
 Alpha  occ. eigenvalues --   -0.76942  -0.75729  -0.75456  -0.74359  -0.73561
 Alpha  occ. eigenvalues --   -0.71119  -0.69889  -0.69315  -0.68519  -0.67242
 Alpha  occ. eigenvalues --   -0.66465  -0.66175  -0.64045  -0.61433  -0.60578
 Alpha  occ. eigenvalues --   -0.59667  -0.59423  -0.58328  -0.57922  -0.55881
 Alpha  occ. eigenvalues --   -0.55565  -0.55113  -0.54736  -0.53537  -0.52943
 Alpha  occ. eigenvalues --   -0.52064  -0.51481  -0.51003  -0.50414  -0.49813
 Alpha  occ. eigenvalues --   -0.49572  -0.49187  -0.48164  -0.47895  -0.47761
 Alpha  occ. eigenvalues --   -0.47521  -0.47136  -0.47070  -0.46704  -0.46207
 Alpha  occ. eigenvalues --   -0.46149  -0.45680  -0.44839  -0.44541  -0.44213
 Alpha  occ. eigenvalues --   -0.44035  -0.43404  -0.43258  -0.43082  -0.42942
 Alpha  occ. eigenvalues --   -0.42413  -0.42269  -0.41975  -0.41820  -0.41366
 Alpha  occ. eigenvalues --   -0.40664  -0.40120  -0.40078  -0.39963  -0.39799
 Alpha  occ. eigenvalues --   -0.39456  -0.39277  -0.38973  -0.38716  -0.38051
 Alpha  occ. eigenvalues --   -0.37739  -0.37244  -0.37090  -0.36617  -0.36529
 Alpha  occ. eigenvalues --   -0.36160  -0.35666  -0.35528  -0.34983  -0.34585
 Alpha  occ. eigenvalues --   -0.33933  -0.33672  -0.32745  -0.32013  -0.31560
 Alpha  occ. eigenvalues --   -0.30757  -0.30365  -0.29999  -0.29575  -0.29399
 Alpha  occ. eigenvalues --   -0.26839  -0.26548  -0.26133  -0.25933  -0.24339
 Alpha  occ. eigenvalues --   -0.23661  -0.23455  -0.22585  -0.22362  -0.18880
 Alpha virt. eigenvalues --   -0.12405  -0.07932  -0.03876  -0.02365  -0.01475
 Alpha virt. eigenvalues --   -0.00750  -0.00480   0.00164   0.02028   0.02369
 Alpha virt. eigenvalues --    0.03327   0.03860   0.04432   0.04663   0.05307

 Mulliken charges:
               1
     1  O   -0.170863
     2  O   -0.170204
     3  O   -0.303063
     4  O   -0.271889
     5  O   -0.198027
     6  O   -0.156677
     7  N   -0.046225
     8  N   -0.257485
     9  N   -0.039474
    10  N   -0.287032
    11  C    0.100073
    12  C    0.167949
    13  C   -0.085329
    14  C   -0.142322
    15  C   -0.026264
    16  C   -0.021981
    17  C   -0.236958
    18  C    0.074894
    19  C   -0.104503
    20  C   -0.128934
    21  C    0.089017
    22  C    0.124447
    23  C   -0.111581
    24  C    0.031873
    25  C    0.122286
    26  C   -0.114137
    27  C   -0.086701
    28  C   -0.019426
    29  C    0.074831
    30  C    0.002923
    31  C   -0.059223
    32  C    0.130774
    33  C   -0.004850
    34  C    0.157061
    35  C    0.142996
    36  C   -0.044558
    37  C    0.172459
    38  C    0.155676
    39  C   -0.211569
    40  C    0.141372
    41  C   -0.140858
    42  C    0.053567
    43  C   -0.017041
    44  H    0.047135
    45  H   -0.011441
    46  H    0.011639
    47  H    0.097554
    48  H    0.165563
    49  H    0.046205
    50  H    0.016140
    51  H    0.048030
    52  H    0.031298
    53  H    0.015595
    54  H    0.041159
    55  H    0.007736
    56  H    0.042622
    57  H    0.038363
    58  H    0.039622
    59  H    0.054805
    60  H    0.208668
    61  H    0.033845
    62  H    0.007231
    63  H    0.011156
    64  H    0.071774
    65  H    0.049071
    66  H    0.001768
    67  H    0.044464
    68  H    0.032322
    69  H   -0.083342
    70  H    0.025638
    71  H    0.016431
    72  H    0.205109
    73  H    0.003021
    74  H    0.015083
    75  H    0.024831
    76  H    0.073256
    77  H    0.241293
    78  H    0.014833
    79  H    0.026501
 Sum of Mulliken charges =  -0.00000

 Dipole moment (field-independent basis, Debye):
    X=              2.9685    Y=              2.8666    Z=             -3.4637  Tot=              5.3876
 Quadrupole moment (field-independent basis, Debye-Ang):
   XX=           -229.5634   YY=           -242.9025   ZZ=           -272.2180
   XY=              4.6080   XZ=            -26.9328   YZ=            -15.7674

 Normal termination of Gaussian 16 at Sat Jul 27 05:02:36 2019.
