 Gaussian 16, Revision A.03,
 Gaussian 16:  ES64L-G16RevA.03 25-Dec-2016

 --------------------------
 # td=(NStates=1) B3LYP/SVP
 --------------------------

 --
 TD
 --
 Symbolic Z-matrix:
 Charge =  0 Multiplicity = 1

                         Standard orientation:
 ---------------------------------------------------------------------
 Center     Atomic      Atomic             Coordinates (Angstroms)
 Number     Number       Type             X           Y           Z
 ---------------------------------------------------------------------
      1          8           0        5.449982   -0.152580   -3.278757
      2          8           0       -2.999410   -2.820797    3.108513
      3          8           0       -3.507816   -0.649165    2.796787
      4          8           0       -1.628179    7.165575    1.553498
      5          8           0       -1.081816    7.014321   -0.732449
      6          8           0       -1.702458   -3.967194    0.200805
      7          7           0        2.285335    0.924035    0.489248
      8          7           0        4.458900   -0.671855   -1.250462
      9          7           0       -1.833760    0.635756   -0.425662
     10          7           0       -2.519254   -2.023056   -0.552290
     11          6           0        4.832008   -1.146013    0.035084
     12          6           0        4.354743   -0.075878    1.184069
     13          6           0        2.885031    0.007261    1.314836
     14          6           0        1.933696   -0.641087    2.149336
     15          6           0        0.630599    0.102092    1.858365
     16          6           0        0.949605    0.929506    0.741365
     17          6           0        6.326201   -1.208197   -0.127759
     18          6           0       -0.663670   -0.116970    2.568798
     19          6           0        6.752845   -0.824101   -1.307091
     20          6           0        0.122302    2.053591    0.165452
     21          6           0       -1.120734    1.820888   -0.337704
     22          6           0        5.542934   -0.475614   -2.056474
     23          6           0       -2.006873    2.924936   -0.950953
     24          6           0        2.136107   -1.584111    3.277188
     25          6           0        7.229994   -1.656013    0.998143
     26          6           0       -3.136260    2.330956   -1.340663
     27          6           0       -1.168760   -1.544310    2.641417
     28          6           0       -3.111921    0.869646   -0.992513
     29          6           0       -1.639251    4.298634   -0.966108
     30          6           0        7.974530   -0.846932   -1.918076
     31          6           0       -1.872757    5.125555    0.366011
     32          6           0       -4.328231    2.826714   -2.099721
     33          6           0       -3.899621   -0.202250   -1.366243
     34          6           0       -2.693438   -1.586998    2.887346
     35          6           0       -3.614778   -1.599303   -1.064221
     36          6           0        9.247627   -0.810476   -1.428481
     37          6           0       -1.460329    6.548952    0.257570
     38          6           0       -4.474911   -2.698253   -1.424065
     39          6           0       -3.802511   -3.869219   -0.920916
     40          6           0       -2.523066   -3.358951   -0.304955
     41          6           0       -5.794509   -2.638406   -2.096620
     42          6           0       -4.075473   -5.353525   -1.045801
     43          6           0       -6.558093   -3.662834   -2.402744
     44          1           0        4.288971   -2.269328    0.181229
     45          1           0        4.665473    0.767989    0.914058
     46          1           0        4.816462   -0.339751    2.020682
     47          1           0        2.912027    1.713404    0.024956
     48          1           0        3.416183   -0.741721   -1.549163
     49          1           0       -0.480580    0.403788    3.686808
     50          1           0       -1.348831    0.711088    2.200119
     51          1           0        0.432356    2.947913   -0.035658
     52          1           0        3.359145   -1.717267    3.579481
     53          1           0        1.600436   -1.245852    4.202871
     54          1           0        1.743498   -2.534282    3.078056
     55          1           0        6.613829   -2.023502    1.794134
     56          1           0        7.649920   -0.809372    1.496292
     57          1           0        8.162501   -2.353509    0.606744
     58          1           0       -1.004001   -2.144837    1.836383
     59          1           0       -0.724054   -2.276969    3.441550
     60          1           0       -1.545383   -0.381976   -0.086018
     61          1           0       -2.218410    4.674582   -1.882345
     62          1           0       -0.502295    4.422040   -1.193298
     63          1           0        8.074466   -0.703650   -3.144957
     64          1           0       -1.484283    4.475102    1.069842
     65          1           0       -2.952126    5.210341    0.615933
     66          1           0       -4.006420    3.750948   -2.513417
     67          1           0       -5.383396    3.181733   -1.528816
     68          1           0       -4.769304    2.078105   -2.824281
     69          1           0       -4.671327    0.088923   -2.038006
     70          1           0        9.337064   -0.599205   -0.239404
     71          1           0       10.248249   -0.794281   -2.052398
     72          1           0       -4.015229   -2.933522    3.063664
     73          1           0       -6.030803   -1.572058   -2.176969
     74          1           0       -5.148904   -5.525090   -0.498407
     75          1           0       -4.262323   -5.691381   -2.029849
     76          1           0       -3.096450   -6.100369   -0.797793
     77          1           0       -0.968168    8.049641    1.533288
     78          1           0       -7.412376   -3.482586   -3.145456
     79          1           0       -6.115116   -4.646289   -2.386122
 ---------------------------------------------------------------------

 SCF Done:  E(RB3LYP) =  -1947.78322097     A.U. after   16 cycles

 Excitation energies and oscillator strengths:

 Excited State   1:      Singlet-A      1.9795 eV  626.33 nm  f=0.2907  <S**2>=0.000
     153 ->156         0.10001
     155 ->156         0.69368
 This state for optimization and/or second-order correction.
 Total Energy, E(TD-HF/TD-DFT) =  -1947.71047429
 Copying the excited state density for this state as the 1-particle RhoCI density.

 The electronic state is 1-A.
 Alpha  occ. eigenvalues --  -19.18871 -19.18589 -19.15328 -19.11725 -19.11148
 Alpha  occ. eigenvalues --  -19.08434 -14.38467 -14.36410 -14.35390 -14.28430
 Alpha  occ. eigenvalues --  -10.33143 -10.31069 -10.27685 -10.26519 -10.25801
 Alpha  occ. eigenvalues --  -10.25177 -10.24015 -10.23949 -10.22822 -10.22207
 Alpha  occ. eigenvalues --  -10.21997 -10.21619 -10.21487 -10.21458 -10.21446
 Alpha  occ. eigenvalues --  -10.21399 -10.21343 -10.21314 -10.20812 -10.20713
 Alpha  occ. eigenvalues --  -10.20662 -10.20488 -10.20409 -10.20405 -10.20324
 Alpha  occ. eigenvalues --  -10.19964 -10.19625 -10.19473 -10.19467 -10.19404
 Alpha  occ. eigenvalues --  -10.19328 -10.19316 -10.19302  -1.10307  -1.10207
 Alpha  occ. eigenvalues --   -1.07004  -1.00390  -1.00190  -0.98148  -0.97877
 Alpha  occ. eigenvalues --   -0.96256  -0.94479  -0.93352  -0.83534  -0.83235
 Alpha  occ. eigenvalues --   -0.81455  -0.80257  -0.79987  -0.79609  -0.77899
 Alpha  occ. eigenvalues --   -0.76491  -0.76028  -0.75472  -0.74535  -0.72500
 Alpha  occ. eigenvalues --   -0.71683  -0.70972  -0.69880  -0.68122  -0.67915
 Alpha  occ. eigenvalues --   -0.67117  -0.65758  -0.64677  -0.61644  -0.60485
 Alpha  occ. eigenvalues --   -0.59885  -0.59476  -0.58281  -0.57593  -0.56307
 Alpha  occ. eigenvalues --   -0.55289  -0.55106  -0.54688  -0.53698  -0.53094
 Alpha  occ. eigenvalues --   -0.52315  -0.51727  -0.51335  -0.50187  -0.49761
 Alpha  occ. eigenvalues --   -0.48961  -0.48686  -0.48422  -0.47885  -0.47636
 Alpha  occ. eigenvalues --   -0.47482  -0.47067  -0.46827  -0.46537  -0.45319
 Alpha  occ. eigenvalues --   -0.45180  -0.44984  -0.44832  -0.44072  -0.43638
 Alpha  occ. eigenvalues --   -0.43568  -0.43260  -0.43097  -0.42807  -0.42651
 Alpha  occ. eigenvalues --   -0.42211  -0.41885  -0.41308  -0.41121  -0.41012
 Alpha  occ. eigenvalues --   -0.40959  -0.40581  -0.40395  -0.40290  -0.39678
 Alpha  occ. eigenvalues --   -0.39497  -0.39226  -0.38973  -0.38834  -0.38647
 Alpha  occ. eigenvalues --   -0.38337  -0.38039  -0.37480  -0.37195  -0.36870
 Alpha  occ. eigenvalues --   -0.36666  -0.36461  -0.36031  -0.34834  -0.34082
 Alpha  occ. eigenvalues --   -0.33894  -0.33259  -0.32660  -0.31951  -0.31323
 Alpha  occ. eigenvalues --   -0.31205  -0.30884  -0.30206  -0.29099  -0.27962
 Alpha  occ. eigenvalues --   -0.26771  -0.26222  -0.25116  -0.24358  -0.24186
 Alpha  occ. eigenvalues --   -0.24049  -0.23434  -0.22885  -0.22120  -0.19258
 Alpha virt. eigenvalues --   -0.11111  -0.06206  -0.05878  -0.00880  -0.00640
 Alpha virt. eigenvalues --    0.00422   0.00834   0.01444   0.01476   0.02874
 Alpha virt. eigenvalues --    0.03286   0.03433   0.03519   0.04166   0.04514

 Mulliken charges:
               1
     1  O   -0.276145
     2  O   -0.153026
     3  O   -0.268404
     4  O   -0.322077
     5  O   -0.140306
     6  O   -0.097269
     7  N   -0.108257
     8  N   -0.191096
     9  N   -0.169839
    10  N   -0.218785
    11  C   -0.009005
    12  C    0.422049
    13  C   -0.137039
    14  C   -0.110609
    15  C   -0.119959
    16  C    0.055632
    17  C   -0.194747
    18  C    0.053887
    19  C    0.092017
    20  C    0.007481
    21  C    0.083772
    22  C    0.136082
    23  C   -0.055309
    24  C    0.056769
    25  C    0.084680
    26  C   -0.087095
    27  C    0.041297
    28  C    0.130893
    29  C   -0.000119
    30  C   -0.099701
    31  C    0.044114
    32  C    0.039207
    33  C   -0.109301
    34  C    0.119563
    35  C    0.112075
    36  C   -0.123367
    37  C    0.171945
    38  C   -0.027388
    39  C   -0.221398
    40  C    0.096457
    41  C    0.025356
    42  C    0.003779
    43  C   -0.014223
    44  H    0.057664
    45  H   -0.114543
    46  H   -0.061239
    47  H    0.171044
    48  H    0.163799
    49  H    0.024708
    50  H    0.032915
    51  H   -0.121288
    52  H    0.020875
    53  H    0.026455
    54  H    0.017410
    55  H   -0.005039
    56  H    0.021107
    57  H    0.070583
    58  H    0.014543
    59  H    0.034883
    60  H    0.202698
    61  H    0.028847
    62  H    0.034633
    63  H    0.057742
    64  H    0.016418
    65  H    0.043836
    66  H   -0.000402
    67  H    0.045832
    68  H    0.041828
    69  H   -0.040532
    70  H    0.032955
    71  H    0.059719
    72  H    0.204630
    73  H   -0.018636
    74  H    0.051372
    75  H    0.030759
    76  H    0.061077
    77  H    0.230178
    78  H    0.037258
    79  H    0.003325
 Sum of Mulliken charges =  -0.00000

 Dipole moment (field-independent basis, Debye):
    X=             -0.2148    Y=              1.9158    Z=              3.2063  Tot=              3.7412
 Quadrupole moment (field-independent basis, Debye-Ang):
   XX=           -232.8700   YY=           -238.5242   ZZ=           -266.0645
   XY=              5.6343   XZ=             35.7016   YZ=              4.4726

 Normal termination of Gaussian 16 at Wed Oct  2 10:51:18 2019.
