 Gaussian 16, Revision A.03,
 Gaussian 16:  ES64L-G16RevA.03 25-Dec-2016

 --------------------------
 # td=(NStates=1) B3LYP/SVP
 --------------------------

 --
 TD
 --
 Symbolic Z-matrix:
 Charge =  0 Multiplicity = 1

                         Standard orientation:
 ---------------------------------------------------------------------
 Center     Atomic      Atomic             Coordinates (Angstroms)
 Number     Number       Type             X           Y           Z
 ---------------------------------------------------------------------
      1          8           0       -3.278446   -1.681380   -2.666505
      2          8           0        3.159169    3.456522    2.636550
      3          8           0        3.730579    2.027676    4.187481
      4          8           0        7.659330   -1.907937   -0.352702
      5          8           0        6.662663   -3.092802   -1.975953
      6          8           0       -2.496113    1.821647    1.471980
      7          7           0       -0.262544   -2.163909    1.188909
      8          7           0       -2.670510   -1.264060   -0.416236
      9          7           0        1.182369   -0.116822   -0.734599
     10          7           0       -1.005427    1.414475   -0.316666
     11          6           0       -3.402731   -1.353333    0.805816
     12          6           0       -2.652561   -2.128763    1.825162
     13          6           0       -1.200985   -1.798295    1.936297
     14          6           0       -0.561477   -0.889564    2.853882
     15          6           0        0.783815   -0.855472    2.577846
     16          6           0        1.004441   -1.699774    1.418972
     17          6           0       -4.790747   -1.911812    0.476902
     18          6           0        1.869987    0.036798    3.198681
     19          6           0       -4.876471   -2.111755   -0.908577
     20          6           0        2.153937   -1.854203    0.579554
     21          6           0        2.073420   -0.994711   -0.612235
     22          6           0       -3.550226   -1.794951   -1.502362
     23          6           0        3.078284   -0.887431   -1.720339
     24          6           0       -1.280493   -0.019208    3.914803
     25          6           0       -5.882250   -2.011007    1.380421
     26          6           0        2.539909    0.150630   -2.457262
     27          6           0        1.848214    1.478763    2.710198
     28          6           0        1.329227    0.713005   -1.899881
     29          6           0        4.345138   -1.675907   -1.885623
     30          6           0       -5.944365   -2.602124   -1.687642
     31          6           0        5.426622   -1.265493   -0.990666
     32          6           0        3.153820    0.681159   -3.735664
     33          6           0        0.482248    1.767660   -2.256406
     34          6           0        2.941360    2.293704    3.264624
     35          6           0       -0.643567    2.118283   -1.436255
     36          6           0       -6.905524   -3.324366   -1.323677
     37          6           0        6.614873   -2.202132   -1.225619
     38          6           0       -1.427693    3.415480   -1.543857
     39          6           0       -2.321804    3.354713   -0.450889
     40          6           0       -1.938224    2.121037    0.336603
     41          6           0       -1.299112    4.334065   -2.646326
     42          6           0       -3.246426    4.368215    0.017644
     43          6           0       -2.089617    5.328613   -3.083604
     44          1           0       -3.409832   -0.271202    1.024929
     45          1           0       -2.831465   -3.188792    1.519303
     46          1           0       -3.147240   -2.071293    2.760268
     47          1           0       -0.392641   -2.526352    0.134419
     48          1           0       -2.120754   -0.341593   -0.486973
     49          1           0        1.871482    0.089801    4.340379
     50          1           0        2.832803   -0.466514    2.867043
     51          1           0        2.772245   -2.854477    0.566093
     52          1           0       -1.858087   -0.659056    4.572533
     53          1           0       -0.700511    0.596637    4.667959
     54          1           0       -2.131973    0.458934    3.085916
     55          1           0       -5.788483   -1.465102    2.265003
     56          1           0       -5.889499   -3.111079    1.826140
     57          1           0       -6.955106   -2.143580    0.594125
     58          1           0        2.143789    1.520410    1.604849
     59          1           0        0.973743    1.961164    2.869867
     60          1           0        0.237130    0.308703   -0.188096
     61          1           0        4.362842   -1.557868   -3.005488
     62          1           0        4.334467   -2.813522   -1.751555
     63          1           0       -5.689165   -2.639604   -2.749563
     64          1           0        5.206165   -1.292578    0.181458
     65          1           0        5.620466   -0.163559   -1.122521
     66          1           0        4.189845    0.445003   -4.035958
     67          1           0        3.197071    1.797800   -3.944843
     68          1           0        2.534060    0.369934   -4.713133
     69          1           0        0.736030    2.249021   -3.220204
     70          1           0       -7.089775   -3.729982   -0.309320
     71          1           0       -7.606420   -3.695524   -1.964143
     72          1           0        3.954423    3.605703    2.907811
     73          1           0       -0.589603    4.134579   -3.388098
     74          1           0       -3.974070    4.315881   -0.939567
     75          1           0       -3.535236    3.884507    1.043835
     76          1           0       -2.941198    5.324144    0.031032
     77          1           0        8.388539   -2.506404   -0.559226
     78          1           0       -1.949992    5.824281   -4.079697
     79          1           0       -2.744845    5.843047   -2.444381
 ---------------------------------------------------------------------

 SCF Done:  E(RB3LYP) =  -1947.77359755     A.U. after   24 cycles

 Excitation energies and oscillator strengths:

 Excited State   1:      Singlet-A      0.3531 eV 3511.12 nm  f=0.0001  <S**2>=0.000
     155 ->156         0.70417
 This state for optimization and/or second-order correction.
 Total Energy, E(TD-HF/TD-DFT) =  -1947.76062067
 Copying the excited state density for this state as the 1-particle RhoCI density.

 The electronic state is 1-A.
 Alpha  occ. eigenvalues --  -19.18144 -19.16539 -19.14992 -19.12805 -19.11349
 Alpha  occ. eigenvalues --  -19.09517 -14.37576 -14.37004 -14.33413 -14.31797
 Alpha  occ. eigenvalues --  -10.33356 -10.31059 -10.29566 -10.27588 -10.27412
 Alpha  occ. eigenvalues --  -10.27405 -10.25669 -10.23428 -10.23268 -10.23226
 Alpha  occ. eigenvalues --  -10.23188 -10.23156 -10.22453 -10.22373 -10.22320
 Alpha  occ. eigenvalues --  -10.22296 -10.21304 -10.21174 -10.21067 -10.21037
 Alpha  occ. eigenvalues --  -10.20767 -10.20502 -10.19337 -10.19253 -10.19230
 Alpha  occ. eigenvalues --  -10.19045 -10.18921 -10.18825 -10.18248 -10.17714
 Alpha  occ. eigenvalues --  -10.17667 -10.16283 -10.15773  -1.11862  -1.11367
 Alpha  occ. eigenvalues --   -1.02632  -1.01781  -1.01342  -1.00774  -0.98642
 Alpha  occ. eigenvalues --   -0.98479  -0.94407  -0.91163  -0.84211  -0.82935
 Alpha  occ. eigenvalues --   -0.82597  -0.82324  -0.80071  -0.79464  -0.78354
 Alpha  occ. eigenvalues --   -0.77714  -0.77282  -0.75712  -0.75201  -0.73012
 Alpha  occ. eigenvalues --   -0.71459  -0.70811  -0.69676  -0.68698  -0.67501
 Alpha  occ. eigenvalues --   -0.66148  -0.65266  -0.63562  -0.61957  -0.61304
 Alpha  occ. eigenvalues --   -0.60685  -0.60119  -0.59015  -0.57476  -0.56873
 Alpha  occ. eigenvalues --   -0.56078  -0.55607  -0.54749  -0.53568  -0.52895
 Alpha  occ. eigenvalues --   -0.52802  -0.52476  -0.51151  -0.50002  -0.49770
 Alpha  occ. eigenvalues --   -0.49601  -0.49487  -0.49034  -0.48567  -0.47942
 Alpha  occ. eigenvalues --   -0.47803  -0.47510  -0.47007  -0.46853  -0.46335
 Alpha  occ. eigenvalues --   -0.45997  -0.45730  -0.45071  -0.44566  -0.44327
 Alpha  occ. eigenvalues --   -0.44023  -0.43665  -0.43213  -0.42850  -0.42270
 Alpha  occ. eigenvalues --   -0.42106  -0.41877  -0.41654  -0.41134  -0.40978
 Alpha  occ. eigenvalues --   -0.40724  -0.40447  -0.40002  -0.39952  -0.39873
 Alpha  occ. eigenvalues --   -0.39343  -0.39031  -0.38780  -0.38585  -0.38141
 Alpha  occ. eigenvalues --   -0.37847  -0.37583  -0.37141  -0.36979  -0.36028
 Alpha  occ. eigenvalues --   -0.35958  -0.35806  -0.34787  -0.34533  -0.34234
 Alpha  occ. eigenvalues --   -0.33604  -0.33395  -0.32690  -0.32364  -0.31562
 Alpha  occ. eigenvalues --   -0.31061  -0.30712  -0.30471  -0.30163  -0.29346
 Alpha  occ. eigenvalues --   -0.27179  -0.26921  -0.26737  -0.24854  -0.23999
 Alpha  occ. eigenvalues --   -0.23500  -0.23241  -0.22447  -0.22182  -0.18156
 Alpha virt. eigenvalues --   -0.14112  -0.08592  -0.04736  -0.03001  -0.00957
 Alpha virt. eigenvalues --    0.00413   0.00849   0.02272   0.02529   0.03139
 Alpha virt. eigenvalues --    0.03495   0.04644   0.04919   0.05221   0.05643

 Mulliken charges:
               1
     1  O   -0.205388
     2  O   -0.093620
     3  O   -0.271564
     4  O   -0.217239
     5  O   -0.165829
     6  O   -0.283685
     7  N    0.035031
     8  N   -0.324526
     9  N   -0.104195
    10  N   -0.308929
    11  C    0.045651
    12  C    0.283098
    13  C   -0.169039
    14  C   -0.132838
    15  C   -0.079910
    16  C   -0.071890
    17  C   -0.123462
    18  C    0.068324
    19  C   -0.064395
    20  C   -0.088515
    21  C   -0.011380
    22  C    0.170558
    23  C   -0.052001
    24  C    0.011888
    25  C    0.023068
    26  C   -0.074925
    27  C    0.073771
    28  C    0.094124
    29  C    0.067024
    30  C    0.029022
    31  C   -0.059248
    32  C   -0.019212
    33  C   -0.058391
    34  C    0.093300
    35  C    0.128291
    36  C   -0.023152
    37  C    0.150390
    38  C    0.075325
    39  C   -0.192704
    40  C    0.205655
    41  C   -0.003578
    42  C    0.063337
    43  C   -0.042200
    44  H    0.024688
    45  H   -0.034047
    46  H   -0.034199
    47  H    0.150150
    48  H    0.172334
    49  H    0.025443
    50  H   -0.000162
    51  H    0.047596
    52  H   -0.009307
    53  H    0.016034
    54  H    0.088100
    55  H    0.008284
    56  H    0.039927
    57  H    0.073024
    58  H    0.032440
    59  H    0.018536
    60  H    0.265366
    61  H    0.040241
    62  H    0.036746
    63  H    0.002801
    64  H    0.079168
    65  H    0.045303
    66  H    0.025602
    67  H    0.025040
    68  H    0.043019
    69  H    0.007344
    70  H    0.015404
    71  H   -0.007386
    72  H    0.097634
    73  H   -0.032200
    74  H    0.054933
    75  H    0.072870
    76  H    0.013573
    77  H    0.176291
    78  H    0.039361
    79  H    0.004007
 Sum of Mulliken charges =  -0.00000

 Dipole moment (field-independent basis, Debye):
    X=              1.5856    Y=              1.8061    Z=             -3.9316  Tot=              4.6080
 Quadrupole moment (field-independent basis, Debye-Ang):
   XX=           -231.6897   YY=           -237.9092   ZZ=           -269.8585
   XY=              1.6007   XZ=            -22.4412   YZ=            -21.5563

 Normal termination of Gaussian 16 at Wed Jul 24 08:25:37 2019.
