 Gaussian 16, Revision A.03,
 Gaussian 16:  ES64L-G16RevA.03 25-Dec-2016

 --------------------------
 # td=(NStates=1) B3LYP/SVP
 --------------------------

 --
 TD
 --
 Symbolic Z-matrix:
 Charge =  0 Multiplicity = 1

                         Standard orientation:
 ---------------------------------------------------------------------
 Center     Atomic      Atomic             Coordinates (Angstroms)
 Number     Number       Type             X           Y           Z
 ---------------------------------------------------------------------
      1          8           0        5.260984   -0.079367   -3.166916
      2          8           0       -3.029414   -2.893139    3.085421
      3          8           0       -3.389698   -0.677968    2.844953
      4          8           0       -1.508037    7.024845    1.570155
      5          8           0       -0.793526    7.051259   -0.609335
      6          8           0       -1.592394   -3.999421   -0.106588
      7          7           0        2.401804    0.945723    0.629896
      8          7           0        4.309095   -0.562694   -1.183189
      9          7           0       -1.888513    0.674741   -0.457036
     10          7           0       -2.468331   -1.889745   -0.671276
     11          6           0        4.726035   -1.129787    0.108044
     12          6           0        4.512124   -0.334312    1.384843
     13          6           0        2.936664    0.040524    1.435312
     14          6           0        1.898476   -0.617470    2.093773
     15          6           0        0.726980   -0.010129    1.743020
     16          6           0        0.969742    0.876885    0.744167
     17          6           0        6.218693   -1.276812   -0.155328
     18          6           0       -0.645320   -0.186238    2.458234
     19          6           0        6.645467   -0.822852   -1.367459
     20          6           0        0.237975    1.953597    0.067814
     21          6           0       -1.099356    1.853062   -0.361773
     22          6           0        5.319156   -0.482522   -2.082469
     23          6           0       -1.923744    2.828865   -0.861872
     24          6           0        2.087060   -1.655573    3.132994
     25          6           0        7.110968   -1.880168    0.949857
     26          6           0       -3.164721    2.307143   -1.350346
     27          6           0       -1.230593   -1.664013    2.678185
     28          6           0       -3.122025    0.871362   -0.952548
     29          6           0       -1.595507    4.380751   -1.018104
     30          6           0        7.902621   -0.763654   -2.012381
     31          6           0       -1.498855    5.003924    0.431478
     32          6           0       -4.343812    3.066798   -1.807316
     33          6           0       -3.960834   -0.084440   -1.412823
     34          6           0       -2.658513   -1.667399    2.816436
     35          6           0       -3.690285   -1.507457   -1.165963
     36          6           0        9.141982   -0.917203   -1.523604
     37          6           0       -1.276311    6.476224    0.383598
     38          6           0       -4.537335   -2.601916   -1.369523
     39          6           0       -3.839146   -3.861714   -1.025615
     40          6           0       -2.567174   -3.323516   -0.511844
     41          6           0       -5.885978   -2.363993   -1.798665
     42          6           0       -4.152941   -5.222612   -1.106862
     43          6           0       -6.690351   -3.447481   -2.363797
     44          1           0        4.254377   -2.192327    0.136202
     45          1           0        5.133780    0.519403    1.341636
     46          1           0        4.598541   -1.055096    2.357356
     47          1           0        2.953558    1.339056   -0.267613
     48          1           0        3.276064   -0.469139   -1.319437
     49          1           0       -0.475924    0.147835    3.470974
     50          1           0       -1.427696    0.387921    1.949979
     51          1           0        0.777501    2.750567   -0.178806
     52          1           0        2.955878   -1.671515    3.642797
     53          1           0        1.330663   -1.554390    3.880692
     54          1           0        2.120715   -2.588368    2.835780
     55          1           0        6.490836   -2.771969    1.499966
     56          1           0        7.304506   -0.981811    1.563974
     57          1           0        8.217207   -2.049605    0.312407
     58          1           0       -0.910460   -2.371756    1.740734
     59          1           0       -0.503116   -1.992818    3.543094
     60          1           0       -1.501455   -0.358293   -0.175671
     61          1           0       -2.256679    4.758084   -1.630642
     62          1           0       -0.608744    4.574334   -1.603295
     63          1           0        7.706387   -0.386774   -3.035433
     64          1           0       -0.534393    4.637696    1.040383
     65          1           0       -2.554621    4.789938    0.977877
     66          1           0       -4.227056    4.105153   -2.195412
     67          1           0       -5.197159    3.384027   -0.910406
     68          1           0       -4.758723    2.440018   -2.694714
     69          1           0       -4.906090    0.201031   -1.695288
     70          1           0        9.489054   -0.917967   -0.468629
     71          1           0        9.902188   -0.703393   -2.406306
     72          1           0       -3.867652   -2.752531    3.392159
     73          1           0       -6.323632   -1.333702   -1.829060
     74          1           0       -5.329454   -5.446074   -0.790230
     75          1           0       -3.980229   -5.610924   -2.081746
     76          1           0       -3.279155   -5.808636   -0.658467
     77          1           0       -1.385628    7.954563    1.392686
     78          1           0       -7.657754   -3.058893   -2.779438
     79          1           0       -6.194178   -4.526728   -2.605176
 ---------------------------------------------------------------------

 SCF Done:  E(RB3LYP) =  -1947.77960503     A.U. after   17 cycles

 Excitation energies and oscillator strengths:

 Excited State   1:      Singlet-A      1.7373 eV  713.65 nm  f=0.2273  <S**2>=0.000
     154 ->156         0.35646
     155 ->156         0.60781
     155 <-156        -0.10701
 This state for optimization and/or second-order correction.
 Total Energy, E(TD-HF/TD-DFT) =  -1947.71575977
 Copying the excited state density for this state as the 1-particle RhoCI density.

 The electronic state is 1-A.
 Alpha  occ. eigenvalues --  -19.19872 -19.17721 -19.12939 -19.11660 -19.10416
 Alpha  occ. eigenvalues --  -19.10184 -14.39206 -14.36076 -14.35740 -14.28713
 Alpha  occ. eigenvalues --  -10.32516 -10.30957 -10.28448 -10.26236 -10.25676
 Alpha  occ. eigenvalues --  -10.24034 -10.23726 -10.23693 -10.23494 -10.23154
 Alpha  occ. eigenvalues --  -10.22917 -10.22876 -10.22671 -10.22015 -10.21941
 Alpha  occ. eigenvalues --  -10.21761 -10.21739 -10.21458 -10.20756 -10.20729
 Alpha  occ. eigenvalues --  -10.20385 -10.20384 -10.20326 -10.20323 -10.20281
 Alpha  occ. eigenvalues --  -10.20060 -10.19814 -10.19578 -10.19285 -10.19104
 Alpha  occ. eigenvalues --  -10.18668 -10.18366 -10.17454  -1.11896  -1.11506
 Alpha  occ. eigenvalues --   -1.05834  -1.00302  -0.99801  -0.99465  -0.99243
 Alpha  occ. eigenvalues --   -0.96927  -0.94838  -0.90377  -0.82336  -0.82028
 Alpha  occ. eigenvalues --   -0.81658  -0.80504  -0.79540  -0.79227  -0.77465
 Alpha  occ. eigenvalues --   -0.76843  -0.76742  -0.75915  -0.74651  -0.73562
 Alpha  occ. eigenvalues --   -0.71380  -0.70454  -0.69079  -0.68738  -0.67927
 Alpha  occ. eigenvalues --   -0.67718  -0.65619  -0.64000  -0.62417  -0.61269
 Alpha  occ. eigenvalues --   -0.59721  -0.58983  -0.57927  -0.57462  -0.57081
 Alpha  occ. eigenvalues --   -0.56037  -0.55088  -0.53897  -0.53418  -0.53090
 Alpha  occ. eigenvalues --   -0.51780  -0.50957  -0.50584  -0.50248  -0.49534
 Alpha  occ. eigenvalues --   -0.49256  -0.48842  -0.48700  -0.48602  -0.48244
 Alpha  occ. eigenvalues --   -0.47633  -0.47464  -0.46902  -0.46649  -0.45608
 Alpha  occ. eigenvalues --   -0.45494  -0.45194  -0.44482  -0.43905  -0.43670
 Alpha  occ. eigenvalues --   -0.43247  -0.42999  -0.42722  -0.42562  -0.42290
 Alpha  occ. eigenvalues --   -0.42131  -0.41956  -0.41634  -0.40969  -0.40858
 Alpha  occ. eigenvalues --   -0.40545  -0.40526  -0.40239  -0.39807  -0.39567
 Alpha  occ. eigenvalues --   -0.39312  -0.38964  -0.38935  -0.38823  -0.38453
 Alpha  occ. eigenvalues --   -0.38048  -0.37859  -0.37666  -0.37252  -0.36593
 Alpha  occ. eigenvalues --   -0.36471  -0.35495  -0.34516  -0.34457  -0.34051
 Alpha  occ. eigenvalues --   -0.33747  -0.33396  -0.32790  -0.32717  -0.32057
 Alpha  occ. eigenvalues --   -0.31607  -0.30740  -0.28297  -0.27792  -0.27530
 Alpha  occ. eigenvalues --   -0.27328  -0.26810  -0.26168  -0.25749  -0.24543
 Alpha  occ. eigenvalues --   -0.24044  -0.23923  -0.23659  -0.20642  -0.18600
 Alpha virt. eigenvalues --   -0.11515  -0.07637  -0.05802  -0.01954  -0.00983
 Alpha virt. eigenvalues --   -0.00107   0.00537   0.01235   0.02641   0.02771
 Alpha virt. eigenvalues --    0.03182   0.04306   0.04426   0.05249   0.05515

 Mulliken charges:
               1
     1  O   -0.155155
     2  O   -0.084174
     3  O   -0.256559
     4  O   -0.134978
     5  O   -0.266797
     6  O   -0.240989
     7  N   -0.136174
     8  N   -0.220370
     9  N   -0.166679
    10  N   -0.332415
    11  C    0.071175
    12  C    0.216682
    13  C   -0.128957
    14  C   -0.146974
    15  C   -0.043693
    16  C    0.017324
    17  C   -0.246436
    18  C    0.081538
    19  C   -0.041001
    20  C   -0.030482
    21  C    0.136702
    22  C    0.123102
    23  C   -0.108879
    24  C    0.246002
    25  C   -0.003445
    26  C   -0.111586
    27  C   -0.125681
    28  C    0.149072
    29  C    0.195845
    30  C   -0.007011
    31  C   -0.073383
    32  C   -0.018926
    33  C   -0.037473
    34  C    0.156900
    35  C    0.079008
    36  C   -0.070382
    37  C    0.128208
    38  C    0.053806
    39  C   -0.135413
    40  C    0.168185
    41  C   -0.095758
    42  C    0.055172
    43  C   -0.078995
    44  H    0.037576
    45  H   -0.015366
    46  H    0.041473
    47  H    0.166741
    48  H    0.143826
    49  H    0.004725
    50  H    0.030518
    51  H   -0.057772
    52  H   -0.047395
    53  H   -0.006170
    54  H   -0.030884
    55  H    0.062407
    56  H    0.043576
    57  H    0.063102
    58  H    0.105574
    59  H    0.051680
    60  H    0.212875
    61  H   -0.066265
    62  H    0.029100
    63  H    0.018490
    64  H    0.078746
    65  H    0.067914
    66  H    0.023526
    67  H    0.053752
    68  H    0.048050
    69  H   -0.062943
    70  H    0.044793
    71  H    0.048480
    72  H    0.127391
    73  H    0.021577
    74  H    0.059663
    75  H    0.019531
    76  H    0.027295
    77  H    0.167408
    78  H    0.038071
    79  H    0.068973
 Sum of Mulliken charges =  -0.00000

 Dipole moment (field-independent basis, Debye):
    X=              0.5220    Y=              1.8607    Z=              4.0818  Tot=              4.5162
 Quadrupole moment (field-independent basis, Debye-Ang):
   XX=           -225.4906   YY=           -248.1886   ZZ=           -259.4083
   XY=             -5.6393   XZ=             28.6855   YZ=              4.7063

 Normal termination of Gaussian 16 at Sat Sep 14 14:41:52 2019.
