 Gaussian 16, Revision A.03,
 Gaussian 16:  ES64L-G16RevA.03 25-Dec-2016

 --------------------------
 # td=(NStates=1) B3LYP/SVP
 --------------------------

 --
 TD
 --
 Symbolic Z-matrix:
 Charge =  0 Multiplicity = 1

                         Standard orientation:
 ---------------------------------------------------------------------
 Center     Atomic      Atomic             Coordinates (Angstroms)
 Number     Number       Type             X           Y           Z
 ---------------------------------------------------------------------
      1          8           0        5.305510    0.112506   -3.266102
      2          8           0       -3.104312   -2.956369    3.230389
      3          8           0       -3.362108   -0.670523    2.940668
      4          8           0       -1.534847    7.257378    1.511533
      5          8           0       -0.294563    7.026965   -0.398814
      6          8           0       -1.858641   -3.900134    0.228112
      7          7           0        2.355855    0.930442    0.636687
      8          7           0        4.356050   -0.609583   -1.197743
      9          7           0       -1.770461    0.733483   -0.337124
     10          7           0       -2.708574   -1.784942   -0.360720
     11          6           0        4.738108   -1.222832   -0.064495
     12          6           0        4.391835   -0.333786    1.299550
     13          6           0        2.966426   -0.091726    1.404874
     14          6           0        1.909470   -0.755071    2.108412
     15          6           0        0.673266   -0.077611    1.818412
     16          6           0        1.013217    0.969117    0.837909
     17          6           0        6.259024   -1.475768   -0.265020
     18          6           0       -0.723867   -0.212493    2.608574
     19          6           0        6.588374   -1.014815   -1.455324
     20          6           0        0.178540    1.976409    0.251512
     21          6           0       -1.113849    1.870402   -0.187576
     22          6           0        5.378393   -0.362979   -2.173459
     23          6           0       -1.915231    2.952777   -0.913163
     24          6           0        2.208866   -1.791266    3.179736
     25          6           0        6.996093   -2.123853    0.865357
     26          6           0       -3.025359    2.362849   -1.346756
     27          6           0       -1.149164   -1.752283    2.700568
     28          6           0       -3.069035    0.928630   -1.070791
     29          6           0       -1.442710    4.410221   -0.949290
     30          6           0        7.915309   -1.000010   -2.138121
     31          6           0       -1.629612    5.092281    0.372352
     32          6           0       -4.110871    3.035444   -2.032718
     33          6           0       -3.927619    0.002477   -1.363813
     34          6           0       -2.715996   -1.755677    2.954704
     35          6           0       -3.755100   -1.379043   -1.024576
     36          6           0        9.112059   -1.003236   -1.557125
     37          6           0       -1.047486    6.535900    0.412540
     38          6           0       -4.626160   -2.571893   -1.459583
     39          6           0       -3.957362   -3.742157   -1.006608
     40          6           0       -2.735642   -3.200166   -0.405169
     41          6           0       -5.915569   -2.382931   -2.301735
     42          6           0       -4.312033   -5.104957   -1.213620
     43          6           0       -6.616037   -3.380692   -2.887019
     44          1           0        4.173221   -2.143833    0.141502
     45          1           0        5.191911    0.465087    1.083876
     46          1           0        4.774685   -0.936424    2.331010
     47          1           0        2.884494    1.581154    0.126357
     48          1           0        3.423556   -0.398758   -1.451838
     49          1           0       -0.410610    0.154585    3.523866
     50          1           0       -1.585969    0.420133    2.079310
     51          1           0        0.650849    3.105129    0.147857
     52          1           0        3.342024   -1.879616    3.469015
     53          1           0        1.683546   -1.610913    4.187078
     54          1           0        1.819163   -2.853044    3.026133
     55          1           0        6.534247   -3.016769    1.362082
     56          1           0        7.291474   -1.538434    1.745451
     57          1           0        8.024290   -2.595761    0.390392
     58          1           0       -1.034901   -2.453162    1.787141
     59          1           0       -0.733662   -2.470154    3.432739
     60          1           0       -1.788123   -0.249538   -0.029578
     61          1           0       -1.916434    4.968852   -1.689951
     62          1           0       -0.450593    4.312587   -1.098705
     63          1           0        7.965467   -0.883267   -3.127624
     64          1           0       -1.152383    4.829534    1.416259
     65          1           0       -2.679300    5.284394    0.807798
     66          1           0       -3.715082    3.845713   -2.411842
     67          1           0       -4.973792    3.142169   -1.328590
     68          1           0       -4.349705    2.556196   -2.974619
     69          1           0       -4.809571    0.308602   -1.889903
     70          1           0        9.288521   -0.823434   -0.397683
     71          1           0        9.966035   -0.982250   -2.205422
     72          1           0       -4.022041   -3.070175    3.534106
     73          1           0       -6.417155   -1.305490   -2.662019
     74          1           0       -5.548821   -5.249196   -1.284945
     75          1           0       -4.037898   -5.550912   -2.356010
     76          1           0       -4.206075   -5.942527   -0.231713
     77          1           0       -1.238866    8.186724    1.515167
     78          1           0       -7.630728   -2.988390   -3.456604
     79          1           0       -6.391822   -4.470766   -2.655327
 ---------------------------------------------------------------------

 SCF Done:  E(RB3LYP) =  -1947.81139546     A.U. after   17 cycles

 Excitation energies and oscillator strengths:

 Excited State   1:      Singlet-A      1.6698 eV  742.51 nm  f=0.3453  <S**2>=0.000
     155 ->156         0.71108
     155 <-156        -0.12906
 This state for optimization and/or second-order correction.
 Total Energy, E(TD-HF/TD-DFT) =  -1947.75003136
 Copying the excited state density for this state as the 1-particle RhoCI density.

 The electronic state is 1-A.
 Alpha  occ. eigenvalues --  -19.18752 -19.17785 -19.13365 -19.11580 -19.10975
 Alpha  occ. eigenvalues --  -19.10285 -14.37799 -14.35152 -14.34723 -14.30426
 Alpha  occ. eigenvalues --  -10.32714 -10.30749 -10.29380 -10.27665 -10.24387
 Alpha  occ. eigenvalues --  -10.23827 -10.23799 -10.23723 -10.23434 -10.23133
 Alpha  occ. eigenvalues --  -10.23006 -10.22774 -10.22769 -10.22710 -10.22698
 Alpha  occ. eigenvalues --  -10.21724 -10.21445 -10.21413 -10.21401 -10.21323
 Alpha  occ. eigenvalues --  -10.20997 -10.20747 -10.20364 -10.20081 -10.19791
 Alpha  occ. eigenvalues --  -10.19605 -10.19571 -10.19558 -10.19551 -10.19151
 Alpha  occ. eigenvalues --  -10.18966 -10.18668 -10.18503  -1.09656  -1.08128
 Alpha  occ. eigenvalues --   -1.04035  -1.00320  -0.99261  -0.97506  -0.97199
 Alpha  occ. eigenvalues --   -0.96313  -0.95510  -0.92563  -0.83376  -0.82128
 Alpha  occ. eigenvalues --   -0.81761  -0.80475  -0.79464  -0.78608  -0.78324
 Alpha  occ. eigenvalues --   -0.76513  -0.75848  -0.74639  -0.73867  -0.72545
 Alpha  occ. eigenvalues --   -0.71010  -0.69820  -0.69260  -0.69078  -0.67874
 Alpha  occ. eigenvalues --   -0.67127  -0.66039  -0.63930  -0.60637  -0.60387
 Alpha  occ. eigenvalues --   -0.59803  -0.59646  -0.58382  -0.57970  -0.56263
 Alpha  occ. eigenvalues --   -0.56140  -0.55452  -0.54385  -0.53368  -0.53133
 Alpha  occ. eigenvalues --   -0.52014  -0.51450  -0.50996  -0.49921  -0.49613
 Alpha  occ. eigenvalues --   -0.48120  -0.47824  -0.47584  -0.47254  -0.47140
 Alpha  occ. eigenvalues --   -0.46891  -0.46658  -0.45899  -0.45603  -0.45443
 Alpha  occ. eigenvalues --   -0.44810  -0.44553  -0.44399  -0.43952  -0.43500
 Alpha  occ. eigenvalues --   -0.43316  -0.43047  -0.42843  -0.42474  -0.42098
 Alpha  occ. eigenvalues --   -0.41586  -0.41459  -0.41311  -0.41143  -0.40850
 Alpha  occ. eigenvalues --   -0.40483  -0.39673  -0.39547  -0.39406  -0.39055
 Alpha  occ. eigenvalues --   -0.39043  -0.38716  -0.38295  -0.38187  -0.37763
 Alpha  occ. eigenvalues --   -0.37278  -0.36976  -0.36792  -0.36529  -0.35702
 Alpha  occ. eigenvalues --   -0.35497  -0.35178  -0.34787  -0.34015  -0.33494
 Alpha  occ. eigenvalues --   -0.33161  -0.32699  -0.32571  -0.31981  -0.31431
 Alpha  occ. eigenvalues --   -0.31323  -0.30368  -0.28833  -0.28356  -0.28046
 Alpha  occ. eigenvalues --   -0.26700  -0.26105  -0.25783  -0.25435  -0.24726
 Alpha  occ. eigenvalues --   -0.24587  -0.23842  -0.23772  -0.23109  -0.18013
 Alpha virt. eigenvalues --   -0.11579  -0.06165  -0.04796  -0.01097   0.00141
 Alpha virt. eigenvalues --    0.00800   0.01304   0.02222   0.02904   0.03344
 Alpha virt. eigenvalues --    0.03865   0.03987   0.04196   0.04624   0.05064

 Mulliken charges:
               1
     1  O   -0.173372
     2  O   -0.127428
     3  O   -0.293489
     4  O   -0.241206
     5  O   -0.216686
     6  O   -0.254534
     7  N   -0.058790
     8  N   -0.166881
     9  N   -0.117529
    10  N   -0.247715
    11  C    0.058787
    12  C    0.018425
    13  C   -0.018475
    14  C   -0.072095
    15  C   -0.113913
    16  C    0.042660
    17  C   -0.096531
    18  C    0.125873
    19  C   -0.069441
    20  C   -0.136235
    21  C    0.086133
    22  C    0.174603
    23  C   -0.127829
    24  C    0.003782
    25  C    0.009384
    26  C   -0.174227
    27  C   -0.081255
    28  C    0.164363
    29  C    0.323782
    30  C    0.036191
    31  C   -0.092200
    32  C    0.232188
    33  C   -0.103818
    34  C    0.154009
    35  C    0.068632
    36  C   -0.050053
    37  C    0.131178
    38  C    0.037126
    39  C   -0.075757
    40  C    0.178554
    41  C   -0.056689
    42  C   -0.119463
    43  C   -0.084764
    44  H    0.012336
    45  H    0.013126
    46  H    0.034514
    47  H    0.094878
    48  H    0.110191
    49  H    0.001025
    50  H    0.073746
    51  H    0.024928
    52  H    0.017022
    53  H    0.019072
    54  H    0.034805
    55  H    0.026393
    56  H    0.039410
    57  H    0.043720
    58  H    0.076359
    59  H    0.011567
    60  H    0.156690
    61  H   -0.007601
    62  H   -0.023567
    63  H   -0.039758
    64  H    0.062809
    65  H    0.046254
    66  H   -0.062565
    67  H    0.045857
    68  H   -0.001158
    69  H   -0.042914
    70  H    0.041589
    71  H    0.019027
    72  H    0.184116
    73  H    0.049169
    74  H    0.040725
    75  H    0.076505
    76  H    0.070478
    77  H    0.188227
    78  H    0.053790
    79  H    0.033937
 Sum of Mulliken charges =  -0.00000

 Dipole moment (field-independent basis, Debye):
    X=             -2.2467    Y=              0.8921    Z=              2.2697  Tot=              3.3159
 Quadrupole moment (field-independent basis, Debye-Ang):
   XX=           -217.9713   YY=           -241.3995   ZZ=           -255.6847
   XY=             -2.3773   XZ=             29.4736   YZ=              0.8291

 Normal termination of Gaussian 16 at Sat Sep 14 02:05:03 2019.
