 Gaussian 16, Revision A.03,
 Gaussian 16:  ES64L-G16RevA.03 25-Dec-2016

 --------------------------
 # td=(NStates=1) B3LYP/SVP
 --------------------------

 --
 TD
 --
 Symbolic Z-matrix:
 Charge =  0 Multiplicity = 1

                         Standard orientation:
 ---------------------------------------------------------------------
 Center     Atomic      Atomic             Coordinates (Angstroms)
 Number     Number       Type             X           Y           Z
 ---------------------------------------------------------------------
      1          8           0       -3.341150   -1.697035   -2.724456
      2          8           0        3.036277    3.631257    2.726585
      3          8           0        3.792534    2.103056    4.196312
      4          8           0        7.843530   -1.804150   -0.661603
      5          8           0        6.567081   -3.298371   -1.702891
      6          8           0       -2.640562    1.668415    1.262582
      7          7           0       -0.158141   -2.263555    1.221970
      8          7           0       -2.653210   -1.260243   -0.464742
      9          7           0        1.172347    0.134798   -0.740842
     10          7           0       -0.914176    1.471145   -0.270648
     11          6           0       -3.371758   -1.269548    0.774217
     12          6           0       -2.645990   -2.151416    1.842120
     13          6           0       -1.175024   -1.775893    2.034300
     14          6           0       -0.600895   -0.902936    3.003789
     15          6           0        0.853039   -0.801013    2.683523
     16          6           0        1.030918   -1.634046    1.542127
     17          6           0       -4.662015   -1.843549    0.455829
     18          6           0        1.889400    0.071771    3.143303
     19          6           0       -4.658350   -2.217925   -0.839991
     20          6           0        2.160464   -1.664068    0.529051
     21          6           0        2.175008   -0.887260   -0.597017
     22          6           0       -3.550194   -1.768661   -1.508010
     23          6           0        2.933382   -0.773351   -1.790000
     24          6           0       -1.189994   -0.008807    4.027177
     25          6           0       -5.717009   -2.143814    1.540582
     26          6           0        2.583430    0.222351   -2.617173
     27          6           0        1.891950    1.502218    2.684769
     28          6           0        1.344133    0.778283   -2.036656
     29          6           0        4.207841   -1.697287   -1.895640
     30          6           0       -5.791053   -2.733457   -1.685077
     31          6           0        5.474397   -1.212454   -1.110533
     32          6           0        3.109563    0.765513   -3.869830
     33          6           0        0.502690    1.816426   -2.246174
     34          6           0        2.997593    2.320312    3.257089
     35          6           0       -0.651123    2.158124   -1.436310
     36          6           0       -6.729309   -3.502189   -1.307288
     37          6           0        6.601731   -2.214637   -1.168284
     38          6           0       -1.533651    3.294313   -1.589600
     39          6           0       -2.517295    3.270373   -0.524033
     40          6           0       -2.058334    2.047323    0.307880
     41          6           0       -1.485920    4.132007   -2.711088
     42          6           0       -3.572390    4.141024   -0.206240
     43          6           0       -2.168806    5.321391   -2.885928
     44          1           0       -3.120117   -0.271945    1.135787
     45          1           0       -2.735219   -3.198091    1.374670
     46          1           0       -3.177352   -2.242803    2.906382
     47          1           0       -0.358005   -2.869499    0.349535
     48          1           0       -1.936067   -0.546066   -0.855162
     49          1           0        1.689428    0.200209    4.307347
     50          1           0        2.880828   -0.461528    3.079603
     51          1           0        2.713640   -2.657363    0.684481
     52          1           0       -1.906343   -0.587725    4.343352
     53          1           0       -0.471003    0.251716    4.639509
     54          1           0       -1.669910    0.823023    3.464280
     55          1           0       -5.595948   -1.337820    2.316140
     56          1           0       -5.571845   -3.136334    2.107281
     57          1           0       -6.719519   -2.201585    1.159082
     58          1           0        1.987606    1.634774    1.542787
     59          1           0        0.957957    2.086188    2.984613
     60          1           0        0.175238    0.377161   -0.258541
     61          1           0        4.482071   -1.794785   -2.872645
     62          1           0        3.905498   -2.788485   -1.319471
     63          1           0       -5.557791   -2.688499   -2.764910
     64          1           0        5.340259   -1.000661   -0.016770
     65          1           0        5.957537   -0.215485   -1.397051
     66          1           0        4.297675    0.474904   -3.934587
     67          1           0        3.322118    1.928267   -3.803284
     68          1           0        2.444481    0.611846   -4.877346
     69          1           0        0.673652    2.644882   -3.018927
     70          1           0       -6.878779   -3.681455   -0.141357
     71          1           0       -7.483294   -4.053550   -1.900043
     72          1           0        3.413025    4.041068    3.529612
     73          1           0       -0.830139    3.818061   -3.641390
     74          1           0       -4.218372    4.293748   -0.968212
     75          1           0       -4.099056    3.666250    0.671615
     76          1           0       -3.121565    5.059563    0.066330
     77          1           0        8.288375   -2.781600   -0.730277
     78          1           0       -2.420819    5.829038   -3.733602
     79          1           0       -2.906245    5.539478   -2.226544
 ---------------------------------------------------------------------

 SCF Done:  E(RB3LYP) =  -1947.82041339     A.U. after   17 cycles

 Excitation energies and oscillator strengths:

 Excited State   1:      Singlet-A      0.9935 eV 1247.95 nm  f=0.0024  <S**2>=0.000
     155 ->156         0.70289
 This state for optimization and/or second-order correction.
 Total Energy, E(TD-HF/TD-DFT) =  -1947.78390287
 Copying the excited state density for this state as the 1-particle RhoCI density.

 The electronic state is 1-A.
 Alpha  occ. eigenvalues --  -19.18340 -19.16411 -19.13949 -19.13827 -19.12729
 Alpha  occ. eigenvalues --  -19.08787 -14.37190 -14.35431 -14.33004 -14.32145
 Alpha  occ. eigenvalues --  -10.32913 -10.31942 -10.29517 -10.26426 -10.26266
 Alpha  occ. eigenvalues --  -10.26229 -10.25518 -10.24405 -10.23406 -10.23312
 Alpha  occ. eigenvalues --  -10.23295 -10.23229 -10.23132 -10.22524 -10.22422
 Alpha  occ. eigenvalues --  -10.22034 -10.21872 -10.21657 -10.21337 -10.21283
 Alpha  occ. eigenvalues --  -10.21268 -10.21204 -10.20830 -10.20700 -10.19685
 Alpha  occ. eigenvalues --  -10.19518 -10.19344 -10.18647 -10.18462 -10.18306
 Alpha  occ. eigenvalues --  -10.17400 -10.17121 -10.15384  -1.09140  -1.07260
 Alpha  occ. eigenvalues --   -1.06796  -1.00091  -0.99305  -0.97650  -0.96645
 Alpha  occ. eigenvalues --   -0.95195  -0.93631  -0.92403  -0.83334  -0.82437
 Alpha  occ. eigenvalues --   -0.82025  -0.81011  -0.80904  -0.79082  -0.78306
 Alpha  occ. eigenvalues --   -0.77768  -0.76582  -0.75910  -0.74536  -0.73295
 Alpha  occ. eigenvalues --   -0.71811  -0.71669  -0.70808  -0.68389  -0.67440
 Alpha  occ. eigenvalues --   -0.66680  -0.66083  -0.63589  -0.62158  -0.59644
 Alpha  occ. eigenvalues --   -0.58749  -0.57788  -0.56978  -0.56580  -0.56067
 Alpha  occ. eigenvalues --   -0.55922  -0.54538  -0.54164  -0.53504  -0.52535
 Alpha  occ. eigenvalues --   -0.52392  -0.51220  -0.50481  -0.49970  -0.49427
 Alpha  occ. eigenvalues --   -0.49026  -0.48783  -0.48438  -0.48200  -0.47614
 Alpha  occ. eigenvalues --   -0.47447  -0.47243  -0.46591  -0.46363  -0.46148
 Alpha  occ. eigenvalues --   -0.46002  -0.45704  -0.45388  -0.45011  -0.44641
 Alpha  occ. eigenvalues --   -0.44244  -0.43655  -0.42892  -0.42428  -0.42372
 Alpha  occ. eigenvalues --   -0.42061  -0.41847  -0.41756  -0.41411  -0.41328
 Alpha  occ. eigenvalues --   -0.40841  -0.40716  -0.40532  -0.40357  -0.40060
 Alpha  occ. eigenvalues --   -0.39949  -0.39609  -0.39250  -0.38645  -0.38420
 Alpha  occ. eigenvalues --   -0.38151  -0.38032  -0.37714  -0.37569  -0.37335
 Alpha  occ. eigenvalues --   -0.36439  -0.35995  -0.35912  -0.35093  -0.34685
 Alpha  occ. eigenvalues --   -0.34031  -0.32429  -0.32374  -0.32300  -0.31404
 Alpha  occ. eigenvalues --   -0.31033  -0.30988  -0.30601  -0.29603  -0.29137
 Alpha  occ. eigenvalues --   -0.27627  -0.27299  -0.26794  -0.24607  -0.23968
 Alpha  occ. eigenvalues --   -0.23813  -0.23282  -0.22439  -0.21934  -0.19338
 Alpha virt. eigenvalues --   -0.13293  -0.08498  -0.04865  -0.03194  -0.01316
 Alpha virt. eigenvalues --   -0.01117   0.01705   0.02038   0.02422   0.02765
 Alpha virt. eigenvalues --    0.03348   0.04047   0.04265   0.04769   0.05263

 Mulliken charges:
               1
     1  O   -0.254738
     2  O   -0.234842
     3  O   -0.260645
     4  O   -0.270106
     5  O   -0.233016
     6  O   -0.160971
     7  N   -0.101888
     8  N   -0.313391
     9  N   -0.276066
    10  N   -0.341466
    11  C    0.106618
    12  C    0.106605
    13  C   -0.084608
    14  C   -0.210118
    15  C   -0.079980
    16  C   -0.036357
    17  C   -0.116817
    18  C    0.051843
    19  C   -0.043810
    20  C   -0.150937
    21  C    0.238806
    22  C    0.135928
    23  C   -0.067519
    24  C    0.294171
    25  C    0.064100
    26  C   -0.042966
    27  C    0.008441
    28  C    0.170592
    29  C    0.090010
    30  C    0.044379
    31  C   -0.004594
    32  C   -0.031454
    33  C   -0.111277
    34  C    0.146203
    35  C    0.068567
    36  C   -0.075482
    37  C    0.144724
    38  C    0.098933
    39  C   -0.222537
    40  C    0.184511
    41  C   -0.117330
    42  C    0.165400
    43  C    0.046662
    44  H    0.036242
    45  H   -0.021640
    46  H    0.031058
    47  H    0.147630
    48  H    0.160865
    49  H    0.015103
    50  H    0.019476
    51  H    0.041669
    52  H   -0.055294
    53  H   -0.046320
    54  H    0.032212
    55  H    0.028749
    56  H    0.047705
    57  H    0.032768
    58  H    0.052272
    59  H    0.058506
    60  H    0.240193
    61  H   -0.003271
    62  H    0.060301
    63  H    0.015516
    64  H    0.048512
    65  H    0.048471
    66  H    0.038150
    67  H    0.048413
    68  H    0.086583
    69  H    0.004736
    70  H    0.015430
    71  H    0.027171
    72  H    0.173293
    73  H    0.031010
    74  H    0.013877
    75  H    0.032399
    76  H    0.036955
    77  H    0.219930
    78  H   -0.000110
    79  H   -0.042138
 Sum of Mulliken charges =  -0.00000

 Dipole moment (field-independent basis, Debye):
    X=             -0.4792    Y=              2.5154    Z=             -1.4619  Tot=              2.9486
 Quadrupole moment (field-independent basis, Debye-Ang):
   XX=           -248.2612   YY=           -240.8287   ZZ=           -262.7517
   XY=             -5.1667   XZ=            -23.2335   YZ=            -17.1552

 Normal termination of Gaussian 16 at Sat Jul 27 11:50:57 2019.
