 Gaussian 16, Revision A.03,
 Gaussian 16:  ES64L-G16RevA.03 25-Dec-2016

 --------------------------
 # td=(NStates=1) B3LYP/SVP
 --------------------------

 --
 TD
 --
 Symbolic Z-matrix:
 Charge =  0 Multiplicity = 1

                         Standard orientation:
 ---------------------------------------------------------------------
 Center     Atomic      Atomic             Coordinates (Angstroms)
 Number     Number       Type             X           Y           Z
 ---------------------------------------------------------------------
      1          8           0        5.110007   -0.104662   -3.179262
      2          8           0       -3.054399   -2.867020    3.094868
      3          8           0       -3.396856   -0.696189    3.066304
      4          8           0       -2.050460    7.250936    1.265951
      5          8           0       -0.462877    6.931541   -0.357686
      6          8           0       -1.391077   -4.014560   -0.022965
      7          7           0        2.234924    0.871533    0.547265
      8          7           0        4.281561   -0.589256   -1.090679
      9          7           0       -1.797584    0.659449   -0.543145
     10          7           0       -2.350937   -1.882474   -0.608337
     11          6           0        4.729504   -1.104696    0.121609
     12          6           0        4.367254   -0.278509    1.434044
     13          6           0        2.851722   -0.040368    1.378571
     14          6           0        1.846891   -0.679760    2.030210
     15          6           0        0.634906    0.056845    1.813186
     16          6           0        0.925510    0.945355    0.717225
     17          6           0        6.240721   -1.251613   -0.110828
     18          6           0       -0.755765   -0.134651    2.539368
     19          6           0        6.517384   -0.753034   -1.357811
     20          6           0        0.157656    1.996994    0.159565
     21          6           0       -1.145479    1.819542   -0.390617
     22          6           0        5.279815   -0.474686   -1.999497
     23          6           0       -2.002215    2.909435   -0.868250
     24          6           0        2.048741   -1.596716    3.236434
     25          6           0        7.318853   -1.785225    0.922842
     26          6           0       -3.109209    2.295510   -1.394560
     27          6           0       -1.191742   -1.599630    2.665257
     28          6           0       -2.897869    0.834282   -1.078962
     29          6           0       -1.609858    4.311565   -1.004679
     30          6           0        7.834501   -0.713088   -2.093790
     31          6           0       -1.886591    5.090917    0.371843
     32          6           0       -4.433577    2.915756   -1.927695
     33          6           0       -3.798531   -0.200546   -1.409046
     34          6           0       -2.655502   -1.659195    2.888726
     35          6           0       -3.543603   -1.587594   -1.083593
     36          6           0        9.043698   -0.436627   -1.487498
     37          6           0       -1.410193    6.476803    0.339780
     38          6           0       -4.361682   -2.752065   -1.423080
     39          6           0       -3.566605   -3.777201   -0.970272
     40          6           0       -2.253952   -3.336405   -0.542549
     41          6           0       -5.710113   -2.636583   -2.011901
     42          6           0       -3.860236   -5.211426   -1.147135
     43          6           0       -6.529082   -3.684096   -2.470356
     44          1           0        4.489659   -2.213102    0.177876
     45          1           0        4.881312    0.654515    1.482430
     46          1           0        4.419633   -1.187188    2.203891
     47          1           0        2.664591    1.541618   -0.147036
     48          1           0        3.369528   -0.970090   -1.378949
     49          1           0       -0.657221    0.197383    3.641740
     50          1           0       -1.652232    0.415515    2.121529
     51          1           0        0.542588    2.991244    0.035816
     52          1           0        3.050708   -1.779129    3.640518
     53          1           0        1.401399   -1.197317    4.046707
     54          1           0        1.771932   -2.589504    2.947371
     55          1           0        6.967092   -2.419827    1.666430
     56          1           0        7.643633   -0.810883    1.579340
     57          1           0        8.451440   -2.021393    0.569071
     58          1           0       -1.207113   -1.931792    1.643769
     59          1           0       -0.896626   -2.326484    3.309934
     60          1           0       -1.588732   -0.542306   -0.394018
     61          1           0       -2.116713    5.049907   -1.800976
     62          1           0       -0.467655    4.452393   -1.276874
     63          1           0        7.734460   -0.545008   -3.241875
     64          1           0       -1.123999    4.596811    1.083235
     65          1           0       -2.992812    4.905116    0.701262
     66          1           0       -4.264674    3.871990   -2.294594
     67          1           0       -5.286441    2.764831   -1.072768
     68          1           0       -4.552060    2.480508   -2.956351
     69          1           0       -4.834997    0.163506   -2.031089
     70          1           0        8.973312   -0.474981   -0.374661
     71          1           0        9.810321   -0.187781   -2.147587
     72          1           0       -4.062811   -2.866937    3.282412
     73          1           0       -5.987219   -1.694865   -2.360317
     74          1           0       -4.732923   -5.669697   -0.585179
     75          1           0       -4.199416   -5.644435   -2.069154
     76          1           0       -3.005177   -5.999015   -0.644018
     77          1           0       -1.780948    8.001655    1.224939
     78          1           0       -7.500416   -3.511499   -2.878397
     79          1           0       -6.323994   -4.674615   -1.857090
 ---------------------------------------------------------------------

 SCF Done:  E(RB3LYP) =  -1947.78947038     A.U. after   16 cycles

 Excitation energies and oscillator strengths:

 Excited State   1:      Singlet-A      1.9721 eV  628.68 nm  f=0.3824  <S**2>=0.000
     153 ->156         0.11343
     155 ->156         0.70037
     155 <-156        -0.11003
 This state for optimization and/or second-order correction.
 Total Energy, E(TD-HF/TD-DFT) =  -1947.71699584
 Copying the excited state density for this state as the 1-particle RhoCI density.

 The electronic state is 1-A.
 Alpha  occ. eigenvalues --  -19.18049 -19.17771 -19.13393 -19.11415 -19.10097
 Alpha  occ. eigenvalues --  -19.08961 -14.38141 -14.35438 -14.35271 -14.30558
 Alpha  occ. eigenvalues --  -10.33430 -10.29806 -10.27637 -10.27550 -10.25338
 Alpha  occ. eigenvalues --  -10.24143 -10.23732 -10.23695 -10.23317 -10.23245
 Alpha  occ. eigenvalues --  -10.23202 -10.22797 -10.22777 -10.22552 -10.22133
 Alpha  occ. eigenvalues --  -10.21790 -10.21393 -10.21308 -10.21013 -10.20968
 Alpha  occ. eigenvalues --  -10.20929 -10.20928 -10.20831 -10.20430 -10.20183
 Alpha  occ. eigenvalues --  -10.20102 -10.20093 -10.19699 -10.19686 -10.19499
 Alpha  occ. eigenvalues --  -10.19059 -10.18610 -10.17482  -1.12361  -1.10107
 Alpha  occ. eigenvalues --   -1.02398  -1.01908  -1.01613  -1.00314  -0.99403
 Alpha  occ. eigenvalues --   -0.98095  -0.94971  -0.93469  -0.83134  -0.81683
 Alpha  occ. eigenvalues --   -0.81391  -0.80562  -0.80357  -0.78844  -0.78248
 Alpha  occ. eigenvalues --   -0.77244  -0.76386  -0.75199  -0.74161  -0.72327
 Alpha  occ. eigenvalues --   -0.71762  -0.70821  -0.70177  -0.69177  -0.68757
 Alpha  occ. eigenvalues --   -0.67003  -0.66533  -0.64253  -0.62321  -0.61151
 Alpha  occ. eigenvalues --   -0.60966  -0.59049  -0.58605  -0.57612  -0.56536
 Alpha  occ. eigenvalues --   -0.56210  -0.55832  -0.55303  -0.54742  -0.53457
 Alpha  occ. eigenvalues --   -0.52613  -0.51985  -0.50876  -0.50652  -0.49644
 Alpha  occ. eigenvalues --   -0.49208  -0.49024  -0.48473  -0.48367  -0.47649
 Alpha  occ. eigenvalues --   -0.47369  -0.47080  -0.46768  -0.46292  -0.46153
 Alpha  occ. eigenvalues --   -0.45208  -0.44775  -0.44201  -0.44022  -0.43525
 Alpha  occ. eigenvalues --   -0.43329  -0.43191  -0.42913  -0.42433  -0.42270
 Alpha  occ. eigenvalues --   -0.42193  -0.41395  -0.41146  -0.40895  -0.40743
 Alpha  occ. eigenvalues --   -0.40482  -0.40114  -0.39694  -0.39410  -0.39287
 Alpha  occ. eigenvalues --   -0.39034  -0.38894  -0.38476  -0.38324  -0.38104
 Alpha  occ. eigenvalues --   -0.37817  -0.37381  -0.37103  -0.36975  -0.36777
 Alpha  occ. eigenvalues --   -0.36446  -0.36086  -0.35240  -0.34738  -0.34284
 Alpha  occ. eigenvalues --   -0.34051  -0.33554  -0.33098  -0.32650  -0.30728
 Alpha  occ. eigenvalues --   -0.30705  -0.30448  -0.29362  -0.28933  -0.28506
 Alpha  occ. eigenvalues --   -0.26687  -0.26133  -0.25986  -0.25012  -0.24843
 Alpha  occ. eigenvalues --   -0.24512  -0.24109  -0.23396  -0.22573  -0.18988
 Alpha virt. eigenvalues --   -0.11148  -0.07037  -0.05681  -0.02219  -0.01869
 Alpha virt. eigenvalues --   -0.00486   0.01654   0.02538   0.02968   0.03078
 Alpha virt. eigenvalues --    0.04058   0.04389   0.04819   0.04990   0.05213

 Mulliken charges:
               1
     1  O   -0.255087
     2  O   -0.161565
     3  O   -0.273778
     4  O   -0.067398
     5  O   -0.269515
     6  O   -0.190888
     7  N   -0.043093
     8  N   -0.119723
     9  N   -0.008330
    10  N   -0.362763
    11  C    0.004785
    12  C    0.286942
    13  C   -0.123964
    14  C   -0.123520
    15  C   -0.081375
    16  C    0.045703
    17  C   -0.179292
    18  C    0.053974
    19  C   -0.048849
    20  C   -0.092255
    21  C    0.027283
    22  C    0.102824
    23  C    0.011879
    24  C    0.079711
    25  C    0.021556
    26  C   -0.177544
    27  C    0.089450
    28  C   -0.005882
    29  C   -0.060919
    30  C   -0.047783
    31  C   -0.026439
    32  C    0.127671
    33  C   -0.162547
    34  C    0.059014
    35  C    0.098493
    36  C    0.004604
    37  C    0.133406
    38  C    0.062726
    39  C   -0.148167
    40  C    0.204624
    41  C   -0.008478
    42  C   -0.009815
    43  C   -0.032185
    44  H    0.032026
    45  H   -0.008584
    46  H    0.027752
    47  H    0.132985
    48  H    0.146748
    49  H    0.013365
    50  H    0.044844
    51  H   -0.018595
    52  H    0.003983
    53  H    0.027658
    54  H    0.019230
    55  H    0.006272
    56  H    0.042736
    57  H    0.071034
    58  H    0.035809
    59  H   -0.000001
    60  H    0.251207
    61  H    0.045276
    62  H    0.055364
    63  H    0.042426
    64  H    0.066178
    65  H    0.067927
    66  H   -0.021999
    67  H    0.083316
    68  H    0.020012
    69  H    0.033049
    70  H    0.021440
    71  H    0.018756
    72  H    0.205438
    73  H   -0.022823
    74  H    0.015394
    75  H    0.022973
    76  H    0.044223
    77  H    0.074096
    78  H    0.026699
    79  H    0.040293
 Sum of Mulliken charges =  -0.00000

 Dipole moment (field-independent basis, Debye):
    X=             -0.6336    Y=              1.0264    Z=              3.4166  Tot=              3.6233
 Quadrupole moment (field-independent basis, Debye-Ang):
   XX=           -215.7157   YY=           -249.0512   ZZ=           -263.8348
   XY=             -7.8287   XZ=             33.1235   YZ=             -2.1383

 Normal termination of Gaussian 16 at Thu Oct 10 21:38:10 2019.
