 Gaussian 16, Revision A.03,
 Gaussian 16:  ES64L-G16RevA.03 25-Dec-2016

 --------------------------
 # td=(NStates=1) B3LYP/SVP
 --------------------------

 --
 TD
 --
 Symbolic Z-matrix:
 Charge =  0 Multiplicity = 1

                         Standard orientation:
 ---------------------------------------------------------------------
 Center     Atomic      Atomic             Coordinates (Angstroms)
 Number     Number       Type             X           Y           Z
 ---------------------------------------------------------------------
      1          8           0        5.517418   -0.341231   -3.353002
      2          8           0       -3.060933   -2.787842    3.017838
      3          8           0       -3.408599   -0.629511    3.035311
      4          8           0       -1.537658    7.039515    1.551276
      5          8           0       -0.715260    7.095231   -0.613098
      6          8           0       -1.725393   -3.929343    0.132269
      7          7           0        2.385665    0.946971    0.430753
      8          7           0        4.413390   -0.694250   -1.261011
      9          7           0       -1.804636    0.542288   -0.605075
     10          7           0       -2.608362   -1.934710   -0.467850
     11          6           0        4.727700   -1.199641    0.075966
     12          6           0        4.450584   -0.193708    1.263109
     13          6           0        2.951034    0.076248    1.335811
     14          6           0        1.955169   -0.534386    2.171029
     15          6           0        0.705585    0.079703    1.863019
     16          6           0        0.954507    1.003319    0.825298
     17          6           0        6.262707   -1.384382   -0.103530
     18          6           0       -0.640202   -0.072246    2.480045
     19          6           0        6.573225   -0.911868   -1.309641
     20          6           0        0.174621    1.977419    0.036156
     21          6           0       -1.103526    1.777810   -0.431266
     22          6           0        5.450375   -0.661641   -2.135000
     23          6           0       -1.897455    2.818226   -0.944371
     24          6           0        2.129959   -1.542810    3.208431
     25          6           0        7.043783   -1.892617    0.971071
     26          6           0       -3.164815    2.282802   -1.333841
     27          6           0       -1.181379   -1.448279    2.594382
     28          6           0       -3.132355    0.841516   -1.141414
     29          6           0       -1.441100    4.257286   -0.990924
     30          6           0        7.933120   -0.783656   -1.891609
     31          6           0       -1.678508    5.057446    0.347305
     32          6           0       -4.226461    3.030933   -1.914594
     33          6           0       -3.941158   -0.178961   -1.397121
     34          6           0       -2.652138   -1.495021    2.878940
     35          6           0       -3.663572   -1.488921   -1.130173
     36          6           0        9.149277   -0.890863   -1.395200
     37          6           0       -1.235183    6.448694    0.259699
     38          6           0       -4.629717   -2.633693   -1.435750
     39          6           0       -3.969108   -3.752262   -0.969218
     40          6           0       -2.668060   -3.241634   -0.348013
     41          6           0       -5.833017   -2.511047   -1.999828
     42          6           0       -4.255810   -5.130667   -0.839860
     43          6           0       -6.698798   -3.494765   -2.346774
     44          1           0        4.261721   -2.310815    0.225332
     45          1           0        4.946916    0.841700    1.167718
     46          1           0        4.698317   -0.664512    2.254484
     47          1           0        2.712857    1.438774   -0.273268
     48          1           0        3.441371   -0.355513   -1.582534
     49          1           0       -0.843659    0.557949    3.561081
     50          1           0       -1.138952    0.437594    1.557441
     51          1           0        0.591602    2.852507   -0.054803
     52          1           0        3.248881   -1.806214    3.090229
     53          1           0        1.977443   -0.936458    4.248167
     54          1           0        1.405583   -2.630804    3.181879
     55          1           0        6.466083   -2.613679    1.595249
     56          1           0        7.469636   -1.155685    1.806742
     57          1           0        8.170996   -2.370535    0.779761
     58          1           0       -0.871091   -1.932935    1.653917
     59          1           0       -0.565900   -2.009040    3.359251
     60          1           0       -1.593865   -0.357192   -0.196363
     61          1           0       -2.073354    4.851912   -1.737150
     62          1           0       -0.440355    4.424254   -1.294065
     63          1           0        7.865383   -0.724120   -3.022435
     64          1           0       -1.108005    4.627629    1.067436
     65          1           0       -2.730899    4.969754    0.736933
     66          1           0       -3.805762    3.842583   -2.680623
     67          1           0       -5.111302    3.270364   -1.060955
     68          1           0       -4.686726    2.246005   -2.768408
     69          1           0       -5.015595    0.156082   -1.671403
     70          1           0        9.446299   -1.065329   -0.180005
     71          1           0       10.026375   -1.125181   -2.018159
     72          1           0       -4.086252   -2.848787    2.606574
     73          1           0       -6.117705   -1.587229   -2.492002
     74          1           0       -5.172821   -5.468048   -0.192984
     75          1           0       -4.627360   -5.434986   -1.864611
     76          1           0       -3.388760   -6.101880   -0.636332
     77          1           0       -1.168712    7.896613    1.542774
     78          1           0       -7.594500   -3.151539   -2.899435
     79          1           0       -6.542604   -4.609871   -2.164690
 ---------------------------------------------------------------------

 SCF Done:  E(RB3LYP) =  -1947.77875462     A.U. after   19 cycles

 Excitation energies and oscillator strengths:

 Excited State   1:      Singlet-A      1.9882 eV  623.61 nm  f=0.3953  <S**2>=0.000
     154 ->156         0.11587
     155 ->156         0.69062
     155 <-156        -0.10765
 This state for optimization and/or second-order correction.
 Total Energy, E(TD-HF/TD-DFT) =  -1947.70569107
 Copying the excited state density for this state as the 1-particle RhoCI density.

 The electronic state is 1-A.
 Alpha  occ. eigenvalues --  -19.17019 -19.15490 -19.15486 -19.11614 -19.09953
 Alpha  occ. eigenvalues --  -19.09878 -14.38655 -14.36908 -14.36177 -14.29426
 Alpha  occ. eigenvalues --  -10.33748 -10.30044 -10.28270 -10.27270 -10.26078
 Alpha  occ. eigenvalues --  -10.25585 -10.24687 -10.24660 -10.24226 -10.23936
 Alpha  occ. eigenvalues --  -10.23911 -10.23756 -10.22805 -10.22538 -10.22315
 Alpha  occ. eigenvalues --  -10.22285 -10.22089 -10.21946 -10.21904 -10.21820
 Alpha  occ. eigenvalues --  -10.21258 -10.20673 -10.20355 -10.20332 -10.20318
 Alpha  occ. eigenvalues --  -10.20312 -10.20033 -10.19867 -10.19858 -10.19641
 Alpha  occ. eigenvalues --  -10.19595 -10.19533 -10.18932  -1.09018  -1.08472
 Alpha  occ. eigenvalues --   -1.01238  -1.01140  -1.00185  -0.98325  -0.97865
 Alpha  occ. eigenvalues --   -0.96240  -0.94332  -0.93095  -0.83940  -0.83196
 Alpha  occ. eigenvalues --   -0.82631  -0.82542  -0.82269  -0.80291  -0.79883
 Alpha  occ. eigenvalues --   -0.77868  -0.77586  -0.76217  -0.75502  -0.73708
 Alpha  occ. eigenvalues --   -0.72040  -0.71679  -0.70302  -0.69282  -0.68899
 Alpha  occ. eigenvalues --   -0.66852  -0.66573  -0.64021  -0.61200  -0.60399
 Alpha  occ. eigenvalues --   -0.59982  -0.59241  -0.58549  -0.58436  -0.56893
 Alpha  occ. eigenvalues --   -0.56601  -0.55948  -0.54596  -0.53763  -0.53276
 Alpha  occ. eigenvalues --   -0.53039  -0.51910  -0.51364  -0.50804  -0.50073
 Alpha  occ. eigenvalues --   -0.50020  -0.49636  -0.48743  -0.48340  -0.48167
 Alpha  occ. eigenvalues --   -0.47984  -0.47411  -0.47048  -0.46266  -0.45757
 Alpha  occ. eigenvalues --   -0.45708  -0.45255  -0.44603  -0.44298  -0.44207
 Alpha  occ. eigenvalues --   -0.43785  -0.43411  -0.42812  -0.42707  -0.42396
 Alpha  occ. eigenvalues --   -0.42057  -0.41823  -0.41596  -0.41438  -0.41067
 Alpha  occ. eigenvalues --   -0.40887  -0.40376  -0.40036  -0.39797  -0.39674
 Alpha  occ. eigenvalues --   -0.39438  -0.39214  -0.38951  -0.38793  -0.38532
 Alpha  occ. eigenvalues --   -0.38420  -0.38109  -0.37786  -0.37617  -0.37003
 Alpha  occ. eigenvalues --   -0.36683  -0.36454  -0.35298  -0.34988  -0.34359
 Alpha  occ. eigenvalues --   -0.33639  -0.33137  -0.32710  -0.32056  -0.31629
 Alpha  occ. eigenvalues --   -0.30872  -0.30432  -0.30283  -0.28805  -0.27159
 Alpha  occ. eigenvalues --   -0.27012  -0.26777  -0.26048  -0.25706  -0.25419
 Alpha  occ. eigenvalues --   -0.24353  -0.24242  -0.23874  -0.22329  -0.19985
 Alpha virt. eigenvalues --   -0.12131  -0.07599  -0.06059  -0.02196  -0.02020
 Alpha virt. eigenvalues --   -0.00504   0.00689   0.00862   0.01602   0.02126
 Alpha virt. eigenvalues --    0.03102   0.03309   0.03900   0.04329   0.04534

 Mulliken charges:
               1
     1  O   -0.270406
     2  O   -0.278732
     3  O   -0.161279
     4  O   -0.244577
     5  O   -0.192703
     6  O   -0.234356
     7  N   -0.090282
     8  N   -0.224670
     9  N   -0.178484
    10  N   -0.175928
    11  C    0.071402
    12  C    0.166638
    13  C   -0.068431
    14  C   -0.099517
    15  C   -0.065010
    16  C    0.063085
    17  C   -0.116763
    18  C    0.029730
    19  C   -0.017269
    20  C   -0.035963
    21  C    0.138997
    22  C    0.163387
    23  C   -0.050551
    24  C   -0.053922
    25  C   -0.034561
    26  C   -0.073000
    27  C   -0.036362
    28  C    0.174438
    29  C    0.083961
    30  C    0.016098
    31  C    0.048036
    32  C   -0.069021
    33  C   -0.190582
    34  C    0.141414
    35  C    0.118615
    36  C   -0.100130
    37  C    0.153239
    38  C    0.140316
    39  C   -0.140177
    40  C    0.102529
    41  C   -0.094886
    42  C   -0.061310
    43  C   -0.055752
    44  H    0.064674
    45  H    0.029852
    46  H    0.019345
    47  H    0.064988
    48  H    0.145255
    49  H    0.046145
    50  H    0.012839
    51  H   -0.074223
    52  H    0.011050
    53  H    0.054356
    54  H    0.090854
    55  H    0.022365
    56  H    0.049896
    57  H    0.056423
    58  H    0.063066
    59  H    0.036105
    60  H    0.139261
    61  H    0.017575
    62  H    0.010995
    63  H    0.032792
    64  H    0.008522
    65  H    0.061530
    66  H    0.063279
    67  H    0.081717
    68  H    0.038830
    69  H    0.013361
    70  H    0.027066
    71  H    0.033377
    72  H    0.233988
    73  H   -0.014522
    74  H    0.047275
    75  H    0.030602
    76  H    0.073389
    77  H    0.155729
    78  H    0.025621
    79  H    0.029362
 Sum of Mulliken charges =  -0.00000

 Dipole moment (field-independent basis, Debye):
    X=             -0.7311    Y=              2.5204    Z=              2.3040  Tot=              3.4922
 Quadrupole moment (field-independent basis, Debye-Ang):
   XX=           -230.2174   YY=           -253.4093   ZZ=           -271.2445
   XY=             -4.6034   XZ=             42.8858   YZ=              3.8780

 Normal termination of Gaussian 16 at Sun Sep 22 08:10:31 2019.
