 Gaussian 16, Revision A.03,
 Gaussian 16:  ES64L-G16RevA.03 25-Dec-2016

 --------------------------
 # td=(NStates=1) B3LYP/SVP
 --------------------------

 --
 TD
 --
 Symbolic Z-matrix:
 Charge =  0 Multiplicity = 1

                         Standard orientation:
 ---------------------------------------------------------------------
 Center     Atomic      Atomic             Coordinates (Angstroms)
 Number     Number       Type             X           Y           Z
 ---------------------------------------------------------------------
      1          8           0        5.084613   -0.101642   -3.259099
      2          8           0       -3.143614   -2.831410    3.256348
      3          8           0       -3.333899   -0.628506    3.073835
      4          8           0       -1.768615    7.272365    1.322349
      5          8           0       -0.178364    6.877042   -0.384219
      6          8           0       -1.588479   -4.000838    0.240806
      7          7           0        2.369812    0.987444    0.699230
      8          7           0        4.257829   -0.582527   -1.223095
      9          7           0       -1.871285    0.680758   -0.458370
     10          7           0       -2.518186   -1.983099   -0.443797
     11          6           0        4.694661   -1.237869    0.131168
     12          6           0        4.400336   -0.158920    1.296925
     13          6           0        2.969540   -0.017863    1.444540
     14          6           0        1.905983   -0.492741    2.229813
     15          6           0        0.658663    0.123804    1.940689
     16          6           0        0.882140    1.063430    0.880374
     17          6           0        6.192855   -1.417136   -0.158342
     18          6           0       -0.671802   -0.146094    2.549541
     19          6           0        6.605146   -0.875102   -1.401241
     20          6           0        0.128841    2.018062    0.224805
     21          6           0       -1.194447    1.857424   -0.353161
     22          6           0        5.267195   -0.498131   -2.102621
     23          6           0       -1.995157    2.899561   -0.949548
     24          6           0        2.255529   -1.562531    3.367437
     25          6           0        7.020466   -1.990164    0.865944
     26          6           0       -3.170163    2.318065   -1.291788
     27          6           0       -1.190197   -1.582097    2.699032
     28          6           0       -3.090310    0.859690   -1.085874
     29          6           0       -1.616481    4.385642   -1.066058
     30          6           0        7.850885   -0.799655   -2.145407
     31          6           0       -1.878627    5.192774    0.224384
     32          6           0       -4.328750    3.001317   -2.084394
     33          6           0       -3.843143   -0.182180   -1.433551
     34          6           0       -2.597964   -1.567396    3.149166
     35          6           0       -3.565988   -1.608930   -1.130953
     36          6           0        9.026022   -0.794667   -1.591264
     37          6           0       -1.175962    6.507437    0.289039
     38          6           0       -4.429636   -2.706568   -1.549243
     39          6           0       -3.775765   -3.865998   -1.079845
     40          6           0       -2.525269   -3.382136   -0.369082
     41          6           0       -5.668843   -2.563399   -2.279161
     42          6           0       -3.918750   -5.251624   -1.377603
     43          6           0       -6.608780   -3.666349   -2.327819
     44          1           0        4.247379   -2.124738    0.200145
     45          1           0        4.882692    0.785843    1.008873
     46          1           0        4.725284   -0.523928    2.148019
     47          1           0        2.881422    1.327296   -0.266523
     48          1           0        3.285879   -0.962953   -1.660926
     49          1           0       -0.682757    0.150720    3.548704
     50          1           0       -1.567084    0.496619    2.281742
     51          1           0        0.534923    3.011246   -0.199506
     52          1           0        3.383284   -1.941184    3.387583
     53          1           0        1.852926   -1.196140    4.223726
     54          1           0        1.682097   -2.545438    2.925432
     55          1           0        6.473357   -2.688979    1.737141
     56          1           0        7.718920   -1.329920    1.442702
     57          1           0        7.843874   -2.787013    0.356141
     58          1           0       -1.193197   -2.127396    1.670984
     59          1           0       -0.619934   -2.224247    3.438786
     60          1           0       -1.413183   -0.272077   -0.155562
     61          1           0       -2.237605    4.676568   -1.794311
     62          1           0       -0.543013    4.479408   -1.416584
     63          1           0        7.880067   -0.766893   -3.284945
     64          1           0       -1.554586    4.586817    1.114331
     65          1           0       -2.994966    5.258777    0.196919
     66          1           0       -3.948303    3.988878   -2.353016
     67          1           0       -5.207340    2.899718   -1.654291
     68          1           0       -4.701896    2.302392   -2.787501
     69          1           0       -4.745891    0.176086   -1.835487
     70          1           0        9.057334   -0.818746   -0.576947
     71          1           0       10.214035   -0.734470   -2.071369
     72          1           0       -4.026733   -2.588887    3.216022
     73          1           0       -5.898340   -1.448811   -2.793052
     74          1           0       -4.799774   -5.419388   -0.345665
     75          1           0       -4.465871   -5.340119   -2.308349
     76          1           0       -3.036259   -5.771028   -0.912136
     77          1           0       -1.044057    8.082812    1.134720
     78          1           0       -7.510312   -3.519297   -2.876627
     79          1           0       -6.386063   -4.663599   -1.852495
 ---------------------------------------------------------------------

 SCF Done:  E(RB3LYP) =  -1947.75662407     A.U. after   18 cycles

 Excitation energies and oscillator strengths:

 Excited State   1:      Singlet-A      1.8248 eV  679.43 nm  f=0.4168  <S**2>=0.000
     154 ->156         0.17914
     155 ->156         0.68797
     155 <-156        -0.13716
 This state for optimization and/or second-order correction.
 Total Energy, E(TD-HF/TD-DFT) =  -1947.68956266
 Copying the excited state density for this state as the 1-particle RhoCI density.

 The electronic state is 1-A.
 Alpha  occ. eigenvalues --  -19.19845 -19.15738 -19.15046 -19.11940 -19.11177
 Alpha  occ. eigenvalues --  -19.09672 -14.37616 -14.36380 -14.36209 -14.29037
 Alpha  occ. eigenvalues --  -10.33924 -10.30423 -10.28524 -10.27204 -10.25786
 Alpha  occ. eigenvalues --  -10.23876 -10.23816 -10.23767 -10.23625 -10.23598
 Alpha  occ. eigenvalues --  -10.23487 -10.23002 -10.22867 -10.22310 -10.22219
 Alpha  occ. eigenvalues --  -10.21917 -10.21848 -10.21618 -10.21086 -10.21017
 Alpha  occ. eigenvalues --  -10.20857 -10.20743 -10.20692 -10.20664 -10.20603
 Alpha  occ. eigenvalues --  -10.20449 -10.20385 -10.19959 -10.19925 -10.19357
 Alpha  occ. eigenvalues --  -10.19340 -10.18760 -10.18464  -1.09388  -1.07582
 Alpha  occ. eigenvalues --   -1.01666  -0.99948  -0.99449  -0.99380  -0.97795
 Alpha  occ. eigenvalues --   -0.95151  -0.92266  -0.92225  -0.82826  -0.82593
 Alpha  occ. eigenvalues --   -0.82010  -0.80742  -0.80147  -0.79990  -0.78191
 Alpha  occ. eigenvalues --   -0.77860  -0.76151  -0.76027  -0.75014  -0.72915
 Alpha  occ. eigenvalues --   -0.71148  -0.70619  -0.69467  -0.68794  -0.68374
 Alpha  occ. eigenvalues --   -0.66608  -0.66426  -0.64225  -0.60519  -0.60244
 Alpha  occ. eigenvalues --   -0.58971  -0.57582  -0.57095  -0.56827  -0.56232
 Alpha  occ. eigenvalues --   -0.55327  -0.55087  -0.54308  -0.54059  -0.53365
 Alpha  occ. eigenvalues --   -0.51932  -0.51796  -0.51019  -0.50365  -0.49673
 Alpha  occ. eigenvalues --   -0.49371  -0.48404  -0.48338  -0.47872  -0.47659
 Alpha  occ. eigenvalues --   -0.47441  -0.47159  -0.46927  -0.46356  -0.45749
 Alpha  occ. eigenvalues --   -0.45380  -0.44494  -0.44274  -0.44020  -0.43721
 Alpha  occ. eigenvalues --   -0.43482  -0.43301  -0.42531  -0.42343  -0.42307
 Alpha  occ. eigenvalues --   -0.42036  -0.41880  -0.41678  -0.41563  -0.41347
 Alpha  occ. eigenvalues --   -0.40791  -0.40512  -0.40227  -0.40137  -0.39806
 Alpha  occ. eigenvalues --   -0.39184  -0.38852  -0.38801  -0.38687  -0.38526
 Alpha  occ. eigenvalues --   -0.38347  -0.37834  -0.37565  -0.37347  -0.36848
 Alpha  occ. eigenvalues --   -0.36531  -0.35758  -0.35577  -0.34983  -0.34464
 Alpha  occ. eigenvalues --   -0.33936  -0.33707  -0.32956  -0.32675  -0.32387
 Alpha  occ. eigenvalues --   -0.31264  -0.30427  -0.29932  -0.28205  -0.27432
 Alpha  occ. eigenvalues --   -0.27218  -0.27060  -0.26048  -0.25319  -0.24934
 Alpha  occ. eigenvalues --   -0.24658  -0.24353  -0.23846  -0.21093  -0.18034
 Alpha virt. eigenvalues --   -0.11196  -0.07061  -0.06567  -0.02893  -0.02008
 Alpha virt. eigenvalues --    0.00080   0.00366   0.00694   0.02079   0.02307
 Alpha virt. eigenvalues --    0.02977   0.03496   0.03790   0.04295   0.04539

 Mulliken charges:
               1
     1  O   -0.242340
     2  O   -0.165124
     3  O   -0.228354
     4  O   -0.267935
     5  O   -0.263659
     6  O   -0.256613
     7  N   -0.223114
     8  N   -0.247361
     9  N   -0.115581
    10  N   -0.236536
    11  C    0.126973
    12  C    0.320012
    13  C   -0.051863
    14  C   -0.170000
    15  C    0.007170
    16  C    0.120057
    17  C   -0.137220
    18  C    0.052642
    19  C   -0.001945
    20  C   -0.097289
    21  C   -0.007832
    22  C    0.124943
    23  C   -0.142913
    24  C    0.038012
    25  C   -0.070144
    26  C   -0.141216
    27  C   -0.047482
    28  C    0.101315
    29  C    0.153562
    30  C   -0.020924
    31  C    0.012461
    32  C    0.246569
    33  C   -0.081524
    34  C    0.120411
    35  C    0.095185
    36  C   -0.045858
    37  C    0.199157
    38  C    0.032910
    39  C   -0.209671
    40  C    0.182958
    41  C   -0.086973
    42  C    0.046126
    43  C   -0.044752
    44  H   -0.013207
    45  H    0.014115
    46  H   -0.051754
    47  H    0.168882
    48  H    0.178687
    49  H   -0.026790
    50  H    0.033734
    51  H    0.015813
    52  H    0.028305
    53  H    0.017438
    54  H    0.060552
    55  H    0.043309
    56  H    0.063487
    57  H    0.059467
    58  H    0.109434
    59  H    0.028400
    60  H    0.193540
    61  H   -0.042370
    62  H    0.037301
    63  H    0.037800
    64  H    0.069054
    65  H    0.047495
    66  H    0.028969
    67  H   -0.046920
    68  H   -0.021096
    69  H   -0.073136
    70  H   -0.025533
    71  H    0.062159
    72  H    0.134273
    73  H    0.048269
    74  H    0.049928
    75  H    0.051919
    76  H    0.059897
    77  H    0.221521
    78  H    0.021981
    79  H    0.038843
 Sum of Mulliken charges =  -0.00000

 Dipole moment (field-independent basis, Debye):
    X=              1.1311    Y=              0.8456    Z=              1.9124  Tot=              2.3773
 Quadrupole moment (field-independent basis, Debye-Ang):
   XX=           -213.6470   YY=           -251.8090   ZZ=           -265.0065
   XY=            -14.6329   XZ=             35.2733   YZ=              2.6496

 Normal termination of Gaussian 16 at Mon Sep 30 11:14:00 2019.
