 Gaussian 16, Revision A.03,
 Gaussian 16:  ES64L-G16RevA.03 25-Dec-2016

 --------------------------
 # td=(NStates=1) B3LYP/SVP
 --------------------------

 --
 TD
 --
 Symbolic Z-matrix:
 Charge =  0 Multiplicity = 1

                         Standard orientation:
 ---------------------------------------------------------------------
 Center     Atomic      Atomic             Coordinates (Angstroms)
 Number     Number       Type             X           Y           Z
 ---------------------------------------------------------------------
      1          8           0       -3.232829   -1.260883   -2.902522
      2          8           0        3.101435    2.923532    3.220322
      3          8           0        4.037859    1.052102    4.234198
      4          8           0        7.613584   -1.671416   -0.500348
      5          8           0        6.656842   -2.768898   -2.356828
      6          8           0       -2.633396    1.664026    1.577509
      7          7           0       -0.361144   -2.498384    0.750974
      8          7           0       -2.766197   -1.131635   -0.708688
      9          7           0        1.058152    0.076108   -0.791881
     10          7           0       -1.001129    1.503157   -0.099041
     11          6           0       -3.352034   -1.359796    0.627177
     12          6           0       -2.663837   -2.361918    1.575055
     13          6           0       -1.204161   -2.153032    1.628464
     14          6           0       -0.590825   -1.365834    2.712886
     15          6           0        0.744865   -1.290468    2.435213
     16          6           0        0.954972   -1.920622    1.135510
     17          6           0       -4.797245   -1.757700    0.171288
     18          6           0        1.917930   -0.637842    3.173314
     19          6           0       -4.801806   -1.942456   -1.088630
     20          6           0        2.043393   -1.874565    0.221710
     21          6           0        1.996522   -0.892312   -0.703717
     22          6           0       -3.566754   -1.423032   -1.781739
     23          6           0        2.938948   -0.633784   -1.847557
     24          6           0       -1.327846   -0.774820    3.888280
     25          6           0       -5.883392   -2.020974    1.174330
     26          6           0        2.521760    0.515428   -2.473604
     27          6           0        1.837347    0.883023    2.966599
     28          6           0        1.343070    0.999729   -1.778764
     29          6           0        4.215227   -1.447856   -2.145236
     30          6           0       -5.886596   -2.450027   -2.032532
     31          6           0        5.434804   -1.026830   -1.241326
     32          6           0        3.116851    1.216833   -3.768318
     33          6           0        0.550997    2.107907   -1.919512
     34          6           0        3.098210    1.579723    3.452968
     35          6           0       -0.580784    2.394006   -1.063601
     36          6           0       -6.976735   -3.214326   -1.788725
     37          6           0        6.568658   -1.961984   -1.401584
     38          6           0       -1.285904    3.699258   -1.145284
     39          6           0       -2.229322    3.484880   -0.065963
     40          6           0       -1.892168    2.148611    0.604284
     41          6           0       -1.168627    4.710745   -2.040758
     42          6           0       -3.206759    4.390613    0.596614
     43          6           0       -1.922978    5.890770   -2.057468
     44          1           0       -3.346459   -0.251839    1.245571
     45          1           0       -2.774351   -3.181844    1.178205
     46          1           0       -3.178876   -2.410209    2.384084
     47          1           0       -0.552474   -3.153755   -0.093257
     48          1           0       -1.996193   -0.572483   -0.588896
     49          1           0        1.753870   -0.783283    4.250565
     50          1           0        2.871199   -0.996464    2.883206
     51          1           0        2.767405   -2.775689    0.311269
     52          1           0       -2.432567   -1.302597    3.855871
     53          1           0       -0.615311   -0.892640    4.918085
     54          1           0       -1.518832    0.411476    3.537424
     55          1           0       -5.846516   -0.929806    1.847526
     56          1           0       -5.780884   -3.009412    1.948509
     57          1           0       -6.903462   -1.926062    0.694471
     58          1           0        1.786410    1.210125    1.721930
     59          1           0        1.025807    1.427584    3.540306
     60          1           0        0.313928    0.417042   -0.132840
     61          1           0        4.365621   -1.556902   -3.294319
     62          1           0        4.100222   -2.461951   -1.817391
     63          1           0       -5.713735   -2.461648   -3.160717
     64          1           0        5.100891   -0.824305   -0.312490
     65          1           0        5.853672   -0.042055   -1.556616
     66          1           0        4.165818    0.650828   -3.895230
     67          1           0        2.985016    2.515248   -3.572100
     68          1           0        2.308867    1.007941   -4.543730
     69          1           0        0.811663    2.753973   -2.858863
     70          1           0       -7.317869   -3.400765   -0.632563
     71          1           0       -7.581013   -3.805530   -2.528440
     72          1           0        3.736570    3.463319    3.617904
     73          1           0       -0.225103    4.504247   -2.591833
     74          1           0       -4.230912    4.513973   -0.158116
     75          1           0       -3.714845    3.835424    1.579015
     76          1           0       -2.520928    5.332324    0.940385
     77          1           0        8.565213   -1.994299   -0.775753
     78          1           0       -2.043364    6.506992   -2.890908
     79          1           0       -2.748893    5.962516   -1.404718
 ---------------------------------------------------------------------

 SCF Done:  E(RB3LYP) =  -1947.68739073     A.U. after   21 cycles

 Excitation energies and oscillator strengths:

 Excited State   1:      Singlet-A      0.5021 eV 2469.26 nm  f=0.0008  <S**2>=0.000
     155 ->156         0.70363
 This state for optimization and/or second-order correction.
 Total Energy, E(TD-HF/TD-DFT) =  -1947.66893849
 Copying the excited state density for this state as the 1-particle RhoCI density.

 The electronic state is 1-A.
 Alpha  occ. eigenvalues --  -19.19216 -19.18159 -19.14341 -19.11749 -19.11616
 Alpha  occ. eigenvalues --  -19.08697 -14.38352 -14.37161 -14.32154 -14.31663
 Alpha  occ. eigenvalues --  -10.34194 -10.32941 -10.28272 -10.27135 -10.26817
 Alpha  occ. eigenvalues --  -10.26658 -10.25662 -10.25275 -10.23410 -10.23060
 Alpha  occ. eigenvalues --  -10.23009 -10.22819 -10.22760 -10.22512 -10.22486
 Alpha  occ. eigenvalues --  -10.22368 -10.22342 -10.22253 -10.22213 -10.21778
 Alpha  occ. eigenvalues --  -10.21600 -10.20882 -10.20607 -10.20275 -10.20236
 Alpha  occ. eigenvalues --  -10.19634 -10.19621 -10.19563 -10.19478 -10.18531
 Alpha  occ. eigenvalues --  -10.18022 -10.16675 -10.16406  -1.07941  -1.07057
 Alpha  occ. eigenvalues --   -1.02798  -1.00600  -0.99695  -0.99646  -0.97355
 Alpha  occ. eigenvalues --   -0.95138  -0.93516  -0.92061  -0.83455  -0.83208
 Alpha  occ. eigenvalues --   -0.82757  -0.80660  -0.80483  -0.79418  -0.79167
 Alpha  occ. eigenvalues --   -0.77235  -0.76164  -0.75454  -0.73760  -0.72638
 Alpha  occ. eigenvalues --   -0.70664  -0.69949  -0.69308  -0.69086  -0.67555
 Alpha  occ. eigenvalues --   -0.65980  -0.64715  -0.63301  -0.63035  -0.61161
 Alpha  occ. eigenvalues --   -0.60690  -0.60137  -0.59080  -0.57649  -0.56905
 Alpha  occ. eigenvalues --   -0.56142  -0.55431  -0.54708  -0.53430  -0.52677
 Alpha  occ. eigenvalues --   -0.52460  -0.52062  -0.50567  -0.49888  -0.49442
 Alpha  occ. eigenvalues --   -0.48724  -0.48335  -0.47886  -0.47722  -0.47241
 Alpha  occ. eigenvalues --   -0.46677  -0.46515  -0.46292  -0.45873  -0.45708
 Alpha  occ. eigenvalues --   -0.45314  -0.45025  -0.44614  -0.43741  -0.43209
 Alpha  occ. eigenvalues --   -0.43151  -0.42899  -0.41907  -0.41835  -0.41720
 Alpha  occ. eigenvalues --   -0.41533  -0.41169  -0.41101  -0.40778  -0.40296
 Alpha  occ. eigenvalues --   -0.39951  -0.39778  -0.39585  -0.39511  -0.39326
 Alpha  occ. eigenvalues --   -0.39006  -0.38651  -0.38527  -0.38050  -0.37896
 Alpha  occ. eigenvalues --   -0.36995  -0.36673  -0.36614  -0.36500  -0.36146
 Alpha  occ. eigenvalues --   -0.35715  -0.35589  -0.35220  -0.34631  -0.34091
 Alpha  occ. eigenvalues --   -0.33700  -0.32992  -0.32908  -0.32152  -0.31447
 Alpha  occ. eigenvalues --   -0.30137  -0.30095  -0.29594  -0.29415  -0.28912
 Alpha  occ. eigenvalues --   -0.27560  -0.26412  -0.25932  -0.24605  -0.24085
 Alpha  occ. eigenvalues --   -0.23923  -0.23292  -0.22987  -0.22736  -0.17739
 Alpha virt. eigenvalues --   -0.13413  -0.08293  -0.03921  -0.03588  -0.03171
 Alpha virt. eigenvalues --   -0.02378   0.00672   0.01543   0.02261   0.03114
 Alpha virt. eigenvalues --    0.03462   0.03927   0.04238   0.04352   0.04449

 Mulliken charges:
               1
     1  O   -0.180573
     2  O   -0.170578
     3  O   -0.330771
     4  O   -0.277601
     5  O   -0.251346
     6  O   -0.304104
     7  N   -0.045789
     8  N   -0.174443
     9  N   -0.084152
    10  N   -0.241169
    11  C   -0.101887
    12  C    0.565649
    13  C   -0.202319
    14  C   -0.135260
    15  C   -0.068069
    16  C   -0.067075
    17  C   -0.137279
    18  C    0.220016
    19  C   -0.049238
    20  C   -0.186537
    21  C    0.184993
    22  C    0.157024
    23  C   -0.105790
    24  C   -0.048862
    25  C   -0.044619
    26  C   -0.109944
    27  C   -0.098796
    28  C    0.092477
    29  C    0.080115
    30  C   -0.005696
    31  C    0.064905
    32  C   -0.012661
    33  C   -0.145352
    34  C    0.182307
    35  C    0.126530
    36  C   -0.111415
    37  C    0.199097
    38  C    0.052848
    39  C   -0.169811
    40  C    0.193041
    41  C   -0.042211
    42  C   -0.071840
    43  C    0.022521
    44  H    0.093813
    45  H   -0.156789
    46  H   -0.093751
    47  H    0.156798
    48  H    0.093209
    49  H    0.004323
    50  H   -0.004541
    51  H    0.042593
    52  H    0.029466
    53  H    0.044328
    54  H    0.074201
    55  H    0.044324
    56  H    0.072821
    57  H    0.046993
    58  H    0.062981
    59  H    0.072865
    60  H    0.198234
    61  H    0.052018
    62  H    0.002631
    63  H    0.024232
    64  H    0.003814
    65  H    0.045363
    66  H    0.073314
    67  H    0.062648
    68  H    0.067735
    69  H    0.020482
    70  H    0.024555
    71  H    0.038793
    72  H    0.167015
    73  H   -0.009316
    74  H    0.072997
    75  H    0.075119
    76  H    0.077104
    77  H    0.228629
    78  H    0.018461
    79  H    0.006199
 Sum of Mulliken charges =  -0.00000

 Dipole moment (field-independent basis, Debye):
    X=              3.3963    Y=              2.6265    Z=             -1.4955  Tot=              4.5464
 Quadrupole moment (field-independent basis, Debye-Ang):
   XX=           -239.5688   YY=           -234.3920   ZZ=           -272.7586
   XY=              9.2149   XZ=            -19.8227   YZ=             -9.7462

 Normal termination of Gaussian 16 at Wed Jul 24 09:28:47 2019.
