 Gaussian 16, Revision A.03,
 Gaussian 16:  ES64L-G16RevA.03 25-Dec-2016

 --------------------------
 # td=(NStates=1) B3LYP/SVP
 --------------------------

 --
 TD
 --
 Symbolic Z-matrix:
 Charge =  0 Multiplicity = 1

                         Standard orientation:
 ---------------------------------------------------------------------
 Center     Atomic      Atomic             Coordinates (Angstroms)
 Number     Number       Type             X           Y           Z
 ---------------------------------------------------------------------
      1          8           0       -3.495867   -1.227703   -2.945899
      2          8           0        3.354111    2.964591    2.948293
      3          8           0        3.681605    1.410222    4.557661
      4          8           0        7.743067   -1.465492   -0.830014
      5          8           0        6.658669   -3.048407   -1.953312
      6          8           0       -2.687203    1.628904    1.577396
      7          7           0       -0.311904   -2.385831    0.957621
      8          7           0       -2.684833   -1.034714   -0.657986
      9          7           0        1.194508    0.010416   -0.705267
     10          7           0       -1.067477    1.444498   -0.113786
     11          6           0       -3.323660   -1.260123    0.622773
     12          6           0       -2.689552   -2.357840    1.660742
     13          6           0       -1.253674   -2.001423    1.825339
     14          6           0       -0.565470   -1.139732    2.768621
     15          6           0        0.788049   -1.118594    2.403169
     16          6           0        1.016219   -1.849266    1.236564
     17          6           0       -4.726047   -1.823833    0.316202
     18          6           0        1.873464   -0.428892    3.135088
     19          6           0       -4.888551   -2.110227   -1.023541
     20          6           0        2.100237   -1.955471    0.244386
     21          6           0        2.111945   -0.929119   -0.678953
     22          6           0       -3.562791   -1.460410   -1.745520
     23          6           0        3.019031   -0.743875   -1.814364
     24          6           0       -1.265109   -0.349238    3.795232
     25          6           0       -5.694935   -2.174461    1.383152
     26          6           0        2.452016    0.389134   -2.504236
     27          6           0        2.146187    1.063093    2.597638
     28          6           0        1.243843    0.871066   -1.855314
     29          6           0        4.262480   -1.544718   -2.100081
     30          6           0       -6.031635   -2.516639   -1.898505
     31          6           0        5.400863   -1.105125   -1.148547
     32          6           0        3.081174    1.071435   -3.651868
     33          6           0        0.470446    1.924397   -2.092558
     34          6           0        3.170224    1.808267    3.486965
     35          6           0       -0.628709    2.224134   -1.152956
     36          6           0       -7.213374   -3.049985   -1.516559
     37          6           0        6.568088   -1.989531   -1.378283
     38          6           0       -1.418103    3.448604   -1.207936
     39          6           0       -2.300188    3.432322   -0.134590
     40          6           0       -2.013358    2.125269    0.588527
     41          6           0       -1.308856    4.434516   -2.264292
     42          6           0       -3.245301    4.304100    0.374711
     43          6           0       -1.834236    5.666241   -2.373059
     44          1           0       -3.402844   -0.308238    1.201334
     45          1           0       -2.721853   -3.362807    1.079721
     46          1           0       -3.244165   -2.394180    2.485225
     47          1           0       -0.704185   -2.983902    0.150691
     48          1           0       -2.027432   -0.225623   -0.957061
     49          1           0        1.770972   -0.554848    4.163738
     50          1           0        2.869219   -0.945470    2.934715
     51          1           0        2.770785   -2.733091    0.287203
     52          1           0       -1.987620   -0.983868    4.684072
     53          1           0       -0.614208    0.137957    4.607538
     54          1           0       -2.036293    0.339729    3.317824
     55          1           0       -5.398293   -1.445642    2.273018
     56          1           0       -5.684278   -3.093020    1.616738
     57          1           0       -6.713841   -1.753297    1.130129
     58          1           0        2.826034    1.001159    1.492338
     59          1           0        1.259701    1.612077    2.523249
     60          1           0        0.330842    0.209720   -0.134214
     61          1           0        4.630647   -1.638953   -3.103602
     62          1           0        4.022818   -2.592470   -1.884487
     63          1           0       -5.539108   -2.338658   -3.070115
     64          1           0        5.194460   -1.362971   -0.208133
     65          1           0        5.737517   -0.090614   -1.281337
     66          1           0        3.919186    0.606420   -4.030712
     67          1           0        3.495320    2.069880   -3.506608
     68          1           0        2.426557    1.217902   -4.574301
     69          1           0        0.744382    2.634205   -2.820158
     70          1           0       -7.352046   -3.459316   -0.384282
     71          1           0       -7.807812   -3.354218   -2.521458
     72          1           0        3.989546    3.519366    3.450385
     73          1           0       -0.864509    4.090451   -3.480575
     74          1           0       -3.969383    4.952753   -0.257706
     75          1           0       -3.908369    3.958168    1.206832
     76          1           0       -2.793505    5.364357    0.694884
     77          1           0        8.517035   -2.062506   -1.036826
     78          1           0       -1.819105    6.339571   -3.405647
     79          1           0       -2.307586    6.168030   -1.227178
 ---------------------------------------------------------------------

 SCF Done:  E(RB3LYP) =  -1947.76904649     A.U. after   21 cycles

 Excitation energies and oscillator strengths:

 Excited State   1:      Singlet-A      0.5241 eV 2365.88 nm  f=0.0039  <S**2>=0.000
     155 ->156         0.70459
 This state for optimization and/or second-order correction.
 Total Energy, E(TD-HF/TD-DFT) =  -1947.74978797
 Copying the excited state density for this state as the 1-particle RhoCI density.

 The electronic state is 1-A.
 Alpha  occ. eigenvalues --  -19.19340 -19.17908 -19.14073 -19.13242 -19.11530
 Alpha  occ. eigenvalues --  -19.10371 -14.37165 -14.36611 -14.34033 -14.32292
 Alpha  occ. eigenvalues --  -10.33207 -10.31645 -10.29613 -10.28150 -10.27189
 Alpha  occ. eigenvalues --  -10.26596 -10.25521 -10.23965 -10.23738 -10.23569
 Alpha  occ. eigenvalues --  -10.23155 -10.22891 -10.22630 -10.22559 -10.22421
 Alpha  occ. eigenvalues --  -10.22051 -10.21974 -10.21968 -10.21548 -10.21184
 Alpha  occ. eigenvalues --  -10.20643 -10.20534 -10.20304 -10.20195 -10.20156
 Alpha  occ. eigenvalues --  -10.20047 -10.19932 -10.18870 -10.18865 -10.18601
 Alpha  occ. eigenvalues --  -10.18163 -10.16826 -10.16102  -1.11137  -1.09310
 Alpha  occ. eigenvalues --   -1.01084  -1.00744  -1.00214  -0.99743  -0.98453
 Alpha  occ. eigenvalues --   -0.95118  -0.94164  -0.90146  -0.84327  -0.83754
 Alpha  occ. eigenvalues --   -0.82559  -0.80117  -0.79778  -0.79539  -0.78203
 Alpha  occ. eigenvalues --   -0.77145  -0.75852  -0.74752  -0.74301  -0.73346
 Alpha  occ. eigenvalues --   -0.71942  -0.70205  -0.69869  -0.68751  -0.67897
 Alpha  occ. eigenvalues --   -0.66572  -0.64855  -0.63686  -0.61228  -0.60590
 Alpha  occ. eigenvalues --   -0.60257  -0.59747  -0.58354  -0.57208  -0.56962
 Alpha  occ. eigenvalues --   -0.55984  -0.54270  -0.53927  -0.53607  -0.52701
 Alpha  occ. eigenvalues --   -0.52400  -0.51880  -0.51080  -0.50422  -0.49547
 Alpha  occ. eigenvalues --   -0.48936  -0.48554  -0.48376  -0.48319  -0.47880
 Alpha  occ. eigenvalues --   -0.47164  -0.46828  -0.46329  -0.45958  -0.45589
 Alpha  occ. eigenvalues --   -0.45210  -0.45015  -0.44906  -0.44602  -0.44001
 Alpha  occ. eigenvalues --   -0.43718  -0.43314  -0.42958  -0.42691  -0.42136
 Alpha  occ. eigenvalues --   -0.41911  -0.41849  -0.41531  -0.41338  -0.41084
 Alpha  occ. eigenvalues --   -0.40815  -0.40349  -0.40033  -0.39900  -0.39638
 Alpha  occ. eigenvalues --   -0.39367  -0.39020  -0.38758  -0.38375  -0.37888
 Alpha  occ. eigenvalues --   -0.37496  -0.36984  -0.36798  -0.36616  -0.36298
 Alpha  occ. eigenvalues --   -0.35982  -0.35824  -0.35173  -0.33961  -0.33154
 Alpha  occ. eigenvalues --   -0.33059  -0.32877  -0.32388  -0.31492  -0.31285
 Alpha  occ. eigenvalues --   -0.30928  -0.30087  -0.29719  -0.29389  -0.29223
 Alpha  occ. eigenvalues --   -0.26986  -0.26866  -0.26488  -0.24965  -0.24265
 Alpha  occ. eigenvalues --   -0.23981  -0.22985  -0.22656  -0.22061  -0.18258
 Alpha virt. eigenvalues --   -0.14005  -0.08592  -0.03770  -0.02686  -0.00865
 Alpha virt. eigenvalues --    0.00507   0.01164   0.01710   0.01847   0.02391
 Alpha virt. eigenvalues --    0.02860   0.03134   0.04172   0.04497   0.04618

 Mulliken charges:
               1
     1  O   -0.238026
     2  O   -0.130635
     3  O   -0.271139
     4  O   -0.248579
     5  O   -0.215370
     6  O   -0.263011
     7  N   -0.110031
     8  N   -0.276594
     9  N   -0.096068
    10  N   -0.302510
    11  C    0.088916
    12  C    0.237787
    13  C   -0.098138
    14  C   -0.053530
    15  C   -0.098636
    16  C    0.014756
    17  C   -0.219251
    18  C    0.122071
    19  C   -0.086955
    20  C   -0.073401
    21  C    0.113618
    22  C    0.167861
    23  C   -0.051343
    24  C   -0.049554
    25  C    0.120750
    26  C   -0.125777
    27  C   -0.065761
    28  C    0.191225
    29  C    0.097247
    30  C   -0.039341
    31  C    0.126365
    32  C    0.103193
    33  C   -0.076642
    34  C    0.131748
    35  C    0.087804
    36  C   -0.108033
    37  C    0.094924
    38  C    0.073099
    39  C   -0.082649
    40  C    0.201853
    41  C   -0.062458
    42  C   -0.030077
    43  C   -0.152689
    44  H    0.059041
    45  H   -0.008597
    46  H   -0.047512
    47  H    0.131785
    48  H    0.176812
    49  H    0.001729
    50  H   -0.012929
    51  H   -0.024109
    52  H   -0.008275
    53  H    0.014755
    54  H    0.064143
    55  H    0.024697
    56  H   -0.007980
    57  H    0.044331
    58  H    0.061134
    59  H    0.038497
    60  H    0.196900
    61  H    0.015870
    62  H    0.021071
    63  H    0.066670
    64  H    0.004226
    65  H    0.041239
    66  H   -0.022569
    67  H    0.019920
    68  H    0.028948
    69  H   -0.024853
    70  H    0.060686
    71  H    0.055345
    72  H    0.184549
    73  H    0.047922
    74  H    0.035936
    75  H    0.050910
    76  H    0.045124
    77  H    0.198510
    78  H    0.076468
    79  H    0.042584
 Sum of Mulliken charges =  -0.00000

 Dipole moment (field-independent basis, Debye):
    X=              3.9878    Y=              4.3396    Z=             -2.5569  Tot=              6.4243
 Quadrupole moment (field-independent basis, Debye-Ang):
   XX=           -243.5874   YY=           -230.5166   ZZ=           -273.8914
   XY=              3.8407   XZ=            -26.0170   YZ=            -11.4309

 Normal termination of Gaussian 16 at Wed Jul 31 10:34:41 2019.
