 Gaussian 16, Revision A.03,
 Gaussian 16:  ES64L-G16RevA.03 25-Dec-2016

 --------------------------
 # td=(NStates=1) B3LYP/SVP
 --------------------------

 --
 TD
 --
 Symbolic Z-matrix:
 Charge =  0 Multiplicity = 1

                         Standard orientation:
 ---------------------------------------------------------------------
 Center     Atomic      Atomic             Coordinates (Angstroms)
 Number     Number       Type             X           Y           Z
 ---------------------------------------------------------------------
      1          8           0        5.405996    0.168978   -3.164318
      2          8           0       -3.173665   -2.783493    3.121411
      3          8           0       -3.410786   -0.602501    2.962391
      4          8           0       -1.868963    7.253000    1.338169
      5          8           0       -0.595945    6.923428   -0.438329
      6          8           0       -1.479671   -3.913112    0.002259
      7          7           0        2.305119    1.033557    0.623727
      8          7           0        4.409548   -0.466720   -1.216655
      9          7           0       -1.815329    0.725964   -0.550122
     10          7           0       -2.386812   -1.919609   -0.561575
     11          6           0        4.722991   -1.088586    0.058135
     12          6           0        4.335799   -0.296721    1.273475
     13          6           0        2.835495    0.043300    1.386184
     14          6           0        1.943265   -0.654619    2.112169
     15          6           0        0.719738    0.032000    1.859263
     16          6           0        0.924168    1.070117    0.834978
     17          6           0        6.324257   -1.277911   -0.109177
     18          6           0       -0.587018   -0.136486    2.506626
     19          6           0        6.744217   -0.715714   -1.330806
     20          6           0        0.020502    2.076120    0.230213
     21          6           0       -1.185386    1.927531   -0.286174
     22          6           0        5.471917   -0.222928   -2.044258
     23          6           0       -2.047652    2.862979   -0.992999
     24          6           0        2.164504   -1.769397    3.090232
     25          6           0        7.136758   -2.103297    0.914332
     26          6           0       -3.244012    2.278907   -1.405894
     27          6           0       -1.226118   -1.484165    2.665464
     28          6           0       -3.008411    0.830460   -1.082477
     29          6           0       -1.792061    4.346649   -1.000210
     30          6           0        8.033569   -0.787792   -2.022487
     31          6           0       -1.882599    5.062466    0.402154
     32          6           0       -4.368842    2.860913   -2.021429
     33          6           0       -3.836350   -0.208448   -1.472946
     34          6           0       -2.780756   -1.568018    2.880298
     35          6           0       -3.571979   -1.649391   -1.179653
     36          6           0        9.253034   -0.885920   -1.350523
     37          6           0       -1.292362    6.495298    0.340022
     38          6           0       -4.475044   -2.706168   -1.442662
     39          6           0       -3.784209   -3.837485   -1.014903
     40          6           0       -2.444313   -3.345101   -0.479238
     41          6           0       -5.836124   -2.742412   -2.047907
     42          6           0       -4.083365   -5.339218   -0.852837
     43          6           0       -6.566867   -3.789703   -2.435958
     44          1           0        4.443119   -1.965072    0.087603
     45          1           0        4.873665    0.605155    1.167042
     46          1           0        4.549982   -1.031201    2.283810
     47          1           0        2.916191    1.742662   -0.081262
     48          1           0        3.390876   -0.519697   -1.540196
     49          1           0       -0.886135    0.589026    3.557140
     50          1           0       -1.296857    0.528186    2.036753
     51          1           0        0.682904    2.812842   -0.052618
     52          1           0        3.323281   -1.740607    3.400016
     53          1           0        1.893840   -1.554999    4.150424
     54          1           0        1.918194   -2.691499    2.801006
     55          1           0        6.385289   -2.618566    1.528710
     56          1           0        7.671608   -1.417663    1.576252
     57          1           0        7.390644   -3.046337    0.138053
     58          1           0       -1.102908   -2.248591    1.630705
     59          1           0       -0.643051   -2.144058    3.362389
     60          1           0       -1.399729   -0.312556   -0.380812
     61          1           0       -2.472450    4.893309   -1.760337
     62          1           0       -0.748112    4.398256   -1.350384
     63          1           0        8.030935   -0.760344   -3.068492
     64          1           0       -1.097013    4.523426    1.100762
     65          1           0       -2.855078    5.009764    0.998355
     66          1           0       -4.177521    3.975709   -2.045704
     67          1           0       -5.181373    2.732971   -1.398382
     68          1           0       -4.307273    2.322742   -3.007811
     69          1           0       -4.927831   -0.081106   -2.007753
     70          1           0        9.342494   -0.865961   -0.150958
     71          1           0       10.079234   -0.867112   -1.892681
     72          1           0       -4.080040   -2.906373    3.236929
     73          1           0       -6.250674   -1.734290   -2.213182
     74          1           0       -5.031283   -5.494156   -0.465090
     75          1           0       -4.219629   -5.636827   -1.963395
     76          1           0       -3.153346   -5.918568   -0.421276
     77          1           0       -1.415316    8.127313    1.397440
     78          1           0       -7.655816   -3.483977   -2.677930
     79          1           0       -6.294715   -4.868108   -2.501444
 ---------------------------------------------------------------------

 SCF Done:  E(RB3LYP) =  -1947.77032559     A.U. after   16 cycles

 Excitation energies and oscillator strengths:

 Excited State   1:      Singlet-A      1.8976 eV  653.37 nm  f=0.3234  <S**2>=0.000
     155 ->156         0.70002
     155 <-156        -0.10705
 This state for optimization and/or second-order correction.
 Total Energy, E(TD-HF/TD-DFT) =  -1947.70058973
 Copying the excited state density for this state as the 1-particle RhoCI density.

 The electronic state is 1-A.
 Alpha  occ. eigenvalues --  -19.16975 -19.16922 -19.13610 -19.10892 -19.10610
 Alpha  occ. eigenvalues --  -19.09520 -14.39500 -14.36189 -14.35153 -14.29082
 Alpha  occ. eigenvalues --  -10.31711 -10.30096 -10.28100 -10.26650 -10.24179
 Alpha  occ. eigenvalues --  -10.23639 -10.23630 -10.23178 -10.22871 -10.22480
 Alpha  occ. eigenvalues --  -10.22475 -10.22190 -10.22045 -10.21819 -10.21594
 Alpha  occ. eigenvalues --  -10.21409 -10.21201 -10.21008 -10.20879 -10.20834
 Alpha  occ. eigenvalues --  -10.20659 -10.20344 -10.20299 -10.20236 -10.20208
 Alpha  occ. eigenvalues --  -10.20184 -10.19747 -10.19682 -10.19642 -10.19245
 Alpha  occ. eigenvalues --  -10.18962 -10.18953 -10.18414  -1.11640  -1.10879
 Alpha  occ. eigenvalues --   -1.03377  -1.01991  -1.01962  -1.01796  -0.98780
 Alpha  occ. eigenvalues --   -0.97806  -0.93277  -0.91499  -0.82408  -0.82023
 Alpha  occ. eigenvalues --   -0.80622  -0.80480  -0.80347  -0.79129  -0.77201
 Alpha  occ. eigenvalues --   -0.76324  -0.75637  -0.74556  -0.74162  -0.72261
 Alpha  occ. eigenvalues --   -0.71022  -0.70828  -0.70230  -0.69301  -0.67356
 Alpha  occ. eigenvalues --   -0.67087  -0.65765  -0.63552  -0.61211  -0.60987
 Alpha  occ. eigenvalues --   -0.59708  -0.59070  -0.58238  -0.56778  -0.56292
 Alpha  occ. eigenvalues --   -0.55684  -0.54839  -0.54584  -0.53949  -0.52597
 Alpha  occ. eigenvalues --   -0.51578  -0.51412  -0.50858  -0.50057  -0.49335
 Alpha  occ. eigenvalues --   -0.48975  -0.48353  -0.48125  -0.47929  -0.47301
 Alpha  occ. eigenvalues --   -0.47152  -0.46771  -0.46582  -0.46315  -0.46065
 Alpha  occ. eigenvalues --   -0.45850  -0.44771  -0.44603  -0.44188  -0.43892
 Alpha  occ. eigenvalues --   -0.43728  -0.43499  -0.43083  -0.42450  -0.42131
 Alpha  occ. eigenvalues --   -0.42000  -0.41737  -0.41649  -0.41444  -0.41257
 Alpha  occ. eigenvalues --   -0.41068  -0.40047  -0.39908  -0.39619  -0.39344
 Alpha  occ. eigenvalues --   -0.39170  -0.39041  -0.38759  -0.38430  -0.38202
 Alpha  occ. eigenvalues --   -0.37659  -0.37433  -0.37313  -0.37184  -0.36283
 Alpha  occ. eigenvalues --   -0.35653  -0.35338  -0.34917  -0.34656  -0.33833
 Alpha  occ. eigenvalues --   -0.33246  -0.33146  -0.32101  -0.31645  -0.31380
 Alpha  occ. eigenvalues --   -0.30740  -0.29306  -0.28979  -0.28842  -0.28315
 Alpha  occ. eigenvalues --   -0.26566  -0.26147  -0.25256  -0.24848  -0.24595
 Alpha  occ. eigenvalues --   -0.24061  -0.23427  -0.23170  -0.22234  -0.18555
 Alpha virt. eigenvalues --   -0.10942  -0.06442  -0.05322  -0.01096   0.00330
 Alpha virt. eigenvalues --    0.01096   0.01663   0.02117   0.02615   0.03839
 Alpha virt. eigenvalues --    0.04006   0.04352   0.04660   0.04783   0.05525

 Mulliken charges:
               1
     1  O   -0.191304
     2  O   -0.117288
     3  O   -0.175237
     4  O   -0.232559
     5  O   -0.120763
     6  O   -0.190665
     7  N   -0.137252
     8  N   -0.237419
     9  N   -0.085807
    10  N   -0.303060
    11  C    0.231067
    12  C    0.202372
    13  C   -0.099661
    14  C   -0.096500
    15  C   -0.068239
    16  C   -0.024221
    17  C   -0.261891
    18  C    0.078726
    19  C   -0.048012
    20  C   -0.066186
    21  C    0.200714
    22  C    0.134473
    23  C   -0.103674
    24  C    0.116170
    25  C    0.081088
    26  C   -0.164158
    27  C   -0.141967
    28  C    0.140708
    29  C    0.079247
    30  C   -0.018484
    31  C   -0.051219
    32  C    0.152783
    33  C   -0.185444
    34  C    0.105409
    35  C    0.057420
    36  C   -0.004310
    37  C    0.097849
    38  C    0.026479
    39  C   -0.231736
    40  C    0.148792
    41  C    0.010503
    42  C    0.090093
    43  C   -0.057435
    44  H   -0.088443
    45  H   -0.043064
    46  H    0.026802
    47  H    0.189786
    48  H    0.150278
    49  H    0.007616
    50  H   -0.024599
    51  H   -0.037192
    52  H   -0.011208
    53  H    0.027100
    54  H    0.017637
    55  H   -0.000185
    56  H    0.060420
    57  H    0.082598
    58  H    0.092029
    59  H    0.023135
    60  H    0.208082
    61  H    0.028124
    62  H    0.013633
    63  H   -0.002898
    64  H    0.049247
    65  H    0.051687
    66  H    0.010414
    67  H    0.014413
    68  H    0.056597
    69  H    0.012199
    70  H    0.046043
    71  H   -0.011754
    72  H    0.150838
    73  H   -0.008000
    74  H    0.014314
    75  H    0.038464
    76  H    0.068061
    77  H    0.179729
    78  H    0.040452
    79  H    0.028240
 Sum of Mulliken charges =  -0.00000

 Dipole moment (field-independent basis, Debye):
    X=             -1.2628    Y=              0.1294    Z=              2.3083  Tot=              2.6343
 Quadrupole moment (field-independent basis, Debye-Ang):
   XX=           -222.5055   YY=           -238.2261   ZZ=           -263.6270
   XY=             -0.0060   XZ=             30.1587   YZ=              3.8334

 Normal termination of Gaussian 16 at Fri Oct  4 04:13:45 2019.
