 Gaussian 16, Revision A.03,
 Gaussian 16:  ES64L-G16RevA.03 25-Dec-2016

 --------------------------
 # td=(NStates=1) B3LYP/SVP
 --------------------------

 --
 TD
 --
 Symbolic Z-matrix:
 Charge =  0 Multiplicity = 1

                         Standard orientation:
 ---------------------------------------------------------------------
 Center     Atomic      Atomic             Coordinates (Angstroms)
 Number     Number       Type             X           Y           Z
 ---------------------------------------------------------------------
      1          8           0       -3.235622   -1.296564   -2.830469
      2          8           0        3.207949    3.155711    3.001104
      3          8           0        4.002577    1.377257    4.133932
      4          8           0        7.683999   -1.524241   -0.633552
      5          8           0        6.835702   -2.973541   -2.099858
      6          8           0       -2.536457    1.652750    1.591846
      7          7           0       -0.232512   -2.263536    0.916554
      8          7           0       -2.666857   -1.183320   -0.553000
      9          7           0        1.128452    0.142642   -0.738115
     10          7           0       -0.957843    1.510069   -0.118211
     11          6           0       -3.384586   -1.319751    0.687489
     12          6           0       -2.631028   -2.370493    1.628917
     13          6           0       -1.208020   -1.997794    1.910483
     14          6           0       -0.564848   -1.145668    2.839971
     15          6           0        0.780371   -1.104119    2.479166
     16          6           0        0.927893   -1.752238    1.234409
     17          6           0       -4.815843   -1.932631    0.261734
     18          6           0        1.836510   -0.331772    3.236533
     19          6           0       -4.802329   -2.072040   -1.095723
     20          6           0        2.070385   -1.856451    0.341245
     21          6           0        2.030036   -0.849782   -0.637272
     22          6           0       -3.431739   -1.395881   -1.688426
     23          6           0        2.961526   -0.596030   -1.827784
     24          6           0       -1.315323   -0.525886    3.954680
     25          6           0       -5.953343   -2.273504    1.262290
     26          6           0        2.456627    0.352952   -2.602342
     27          6           0        1.980255    1.158812    2.730042
     28          6           0        1.306271    0.946680   -1.861780
     29          6           0        4.174256   -1.544399   -2.082429
     30          6           0       -5.771936   -2.569930   -1.995651
     31          6           0        5.430363   -1.206995   -1.236699
     32          6           0        3.196477    1.025419   -3.728645
     33          6           0        0.488281    2.088076   -1.979844
     34          6           0        3.172480    1.792200    3.429500
     35          6           0       -0.585936    2.312589   -1.169810
     36          6           0       -6.910740   -3.272451   -1.695183
     37          6           0        6.638180   -2.055558   -1.399006
     38          6           0       -1.520260    3.513669   -1.168223
     39          6           0       -2.411547    3.331825   -0.127153
     40          6           0       -1.943015    2.092967    0.576090
     41          6           0       -1.402258    4.582820   -2.130591
     42          6           0       -3.592664    4.126873    0.239809
     43          6           0       -2.077660    5.714949   -2.327914
     44          1           0       -3.291433   -0.396553    1.274341
     45          1           0       -2.432151   -3.524176    1.414900
     46          1           0       -3.109893   -2.701582    2.634457
     47          1           0       -0.314217   -2.662315    0.078850
     48          1           0       -2.168969   -0.166655   -0.543178
     49          1           0        1.529860   -0.443022    4.337552
     50          1           0        2.671261   -0.755294    2.972640
     51          1           0        2.881703   -2.649615    0.269257
     52          1           0       -1.996510   -1.152163    4.608066
     53          1           0       -0.484699   -0.063527    4.525966
     54          1           0       -1.882795    0.361901    3.391402
     55          1           0       -5.661625   -1.718089    2.330672
     56          1           0       -5.816525   -3.265892    1.519444
     57          1           0       -6.864549   -2.025848    0.821221
     58          1           0        2.167757    1.130487    1.529082
     59          1           0        1.246789    1.895825    2.712287
     60          1           0        0.140826    0.049520   -0.347543
     61          1           0        4.258466   -1.726831   -3.260442
     62          1           0        3.668885   -2.697803   -1.769484
     63          1           0       -5.826642   -2.284258   -3.127210
     64          1           0        5.188494   -1.332090   -0.149402
     65          1           0        5.718627   -0.160705   -1.374931
     66          1           0        3.698105    0.152876   -4.370507
     67          1           0        3.826900    1.941490   -3.013375
     68          1           0        2.442693    1.396687   -4.567421
     69          1           0        0.726782    2.858414   -2.572211
     70          1           0       -7.315891   -3.366872   -0.609982
     71          1           0       -7.551603   -3.488184   -2.553014
     72          1           0        4.519139    3.508976    2.990192
     73          1           0       -0.665435    4.423805   -2.898443
     74          1           0       -4.536521    3.929981   -0.439407
     75          1           0       -4.149977    3.665318    1.134335
     76          1           0       -3.553835    5.374883    0.387860
     77          1           0        8.237512   -2.193948   -0.542352
     78          1           0       -1.819855    6.222936   -3.244125
     79          1           0       -2.805563    6.091629   -1.751428
 ---------------------------------------------------------------------

 SCF Done:  E(RB3LYP) =  -1947.71666564     A.U. after   19 cycles

 Excitation energies and oscillator strengths:

 Excited State   1:      Singlet-A      0.7128 eV 1739.33 nm  f=0.0001  <S**2>=0.000
     155 ->156         0.70445
 This state for optimization and/or second-order correction.
 Total Energy, E(TD-HF/TD-DFT) =  -1947.69046969
 Copying the excited state density for this state as the 1-particle RhoCI density.

 The electronic state is 1-A.
 Alpha  occ. eigenvalues --  -19.17303 -19.16411 -19.15027 -19.12880 -19.11991
 Alpha  occ. eigenvalues --  -19.10652 -14.38483 -14.35748 -14.33992 -14.31317
 Alpha  occ. eigenvalues --  -10.33563 -10.30612 -10.28736 -10.28304 -10.27895
 Alpha  occ. eigenvalues --  -10.26371 -10.26022 -10.25706 -10.25698 -10.23868
 Alpha  occ. eigenvalues --  -10.23808 -10.23710 -10.23627 -10.23241 -10.21867
 Alpha  occ. eigenvalues --  -10.21711 -10.21348 -10.21223 -10.20964 -10.20708
 Alpha  occ. eigenvalues --  -10.20463 -10.20357 -10.20284 -10.19950 -10.19400
 Alpha  occ. eigenvalues --  -10.19360 -10.19123 -10.18586 -10.18408 -10.18178
 Alpha  occ. eigenvalues --  -10.17621 -10.16319 -10.16200  -1.12075  -1.07555
 Alpha  occ. eigenvalues --   -1.04654  -1.03621  -1.01931  -1.00883  -0.97977
 Alpha  occ. eigenvalues --   -0.95593  -0.93998  -0.92267  -0.84469  -0.83286
 Alpha  occ. eigenvalues --   -0.81732  -0.80385  -0.80358  -0.79666  -0.79021
 Alpha  occ. eigenvalues --   -0.76689  -0.76166  -0.75151  -0.73791  -0.72611
 Alpha  occ. eigenvalues --   -0.70816  -0.69772  -0.69478  -0.68780  -0.67669
 Alpha  occ. eigenvalues --   -0.66858  -0.65840  -0.63519  -0.61810  -0.61033
 Alpha  occ. eigenvalues --   -0.60668  -0.58815  -0.57818  -0.56253  -0.56009
 Alpha  occ. eigenvalues --   -0.55553  -0.54360  -0.53928  -0.52879  -0.52689
 Alpha  occ. eigenvalues --   -0.52506  -0.52034  -0.50627  -0.50276  -0.50015
 Alpha  occ. eigenvalues --   -0.49457  -0.49103  -0.48685  -0.48372  -0.47957
 Alpha  occ. eigenvalues --   -0.47467  -0.47058  -0.47034  -0.46233  -0.45841
 Alpha  occ. eigenvalues --   -0.45314  -0.45113  -0.44882  -0.44375  -0.44219
 Alpha  occ. eigenvalues --   -0.43721  -0.43434  -0.43183  -0.42886  -0.42425
 Alpha  occ. eigenvalues --   -0.42020  -0.41814  -0.41740  -0.41574  -0.40919
 Alpha  occ. eigenvalues --   -0.40351  -0.40286  -0.39932  -0.39834  -0.39497
 Alpha  occ. eigenvalues --   -0.38954  -0.38762  -0.38293  -0.38076  -0.37878
 Alpha  occ. eigenvalues --   -0.37640  -0.37558  -0.37095  -0.36245  -0.36025
 Alpha  occ. eigenvalues --   -0.35585  -0.35536  -0.35408  -0.35085  -0.34311
 Alpha  occ. eigenvalues --   -0.34084  -0.33841  -0.33541  -0.32325  -0.30843
 Alpha  occ. eigenvalues --   -0.30324  -0.30101  -0.29945  -0.29570  -0.29065
 Alpha  occ. eigenvalues --   -0.28087  -0.27574  -0.26538  -0.25942  -0.24421
 Alpha  occ. eigenvalues --   -0.24000  -0.23460  -0.22481  -0.22023  -0.18879
 Alpha virt. eigenvalues --   -0.13674  -0.08082  -0.05319  -0.04005  -0.02577
 Alpha virt. eigenvalues --   -0.01284  -0.00168   0.01147   0.01712   0.02340
 Alpha virt. eigenvalues --    0.02711   0.03272   0.03862   0.04592   0.04897

 Mulliken charges:
               1
     1  O   -0.148647
     2  O   -0.377164
     3  O   -0.157180
     4  O   -0.174008
     5  O   -0.156692
     6  O   -0.244604
     7  N    0.037964
     8  N   -0.260735
     9  N   -0.085222
    10  N   -0.311296
    11  C    0.111502
    12  C    0.101632
    13  C   -0.125362
    14  C   -0.111971
    15  C   -0.136767
    16  C   -0.079134
    17  C   -0.154889
    18  C    0.249452
    19  C   -0.059584
    20  C   -0.093531
    21  C    0.054013
    22  C    0.135730
    23  C   -0.043452
    24  C    0.049403
    25  C    0.111561
    26  C   -0.123782
    27  C   -0.046678
    28  C    0.141240
    29  C   -0.052765
    30  C   -0.079145
    31  C    0.039630
    32  C   -0.019354
    33  C   -0.029391
    34  C    0.162266
    35  C    0.092277
    36  C   -0.073112
    37  C    0.107813
    38  C    0.110236
    39  C   -0.140351
    40  C    0.166331
    41  C   -0.048058
    42  C   -0.037149
    43  C    0.042518
    44  H    0.049082
    45  H   -0.001634
    46  H   -0.003168
    47  H    0.056269
    48  H    0.194808
    49  H    0.034784
    50  H   -0.069812
    51  H    0.029204
    52  H    0.030794
    53  H   -0.016195
    54  H    0.069573
    55  H    0.034621
    56  H    0.018089
    57  H    0.041518
    58  H    0.057046
    59  H    0.017939
    60  H    0.216379
    61  H    0.059153
    62  H    0.052328
    63  H    0.029852
    64  H    0.054203
    65  H    0.051493
    66  H    0.053225
    67  H    0.096956
    68  H    0.051835
    69  H   -0.069534
    70  H    0.021570
    71  H    0.019330
    72  H    0.244924
    73  H   -0.024932
    74  H    0.044531
    75  H    0.032498
    76  H    0.069212
    77  H    0.121471
    78  H    0.020377
    79  H   -0.031332
 Sum of Mulliken charges =  -0.00000

 Dipole moment (field-independent basis, Debye):
    X=              2.8759    Y=              2.0166    Z=             -3.1773  Tot=              4.7363
 Quadrupole moment (field-independent basis, Debye-Ang):
   XX=           -242.3338   YY=           -244.2048   ZZ=           -270.2705
   XY=             -1.2378   XZ=            -17.4675   YZ=            -20.7576

 Normal termination of Gaussian 16 at Wed Jul 31 07:33:48 2019.
