 Gaussian 16, Revision A.03,
 Gaussian 16:  ES64L-G16RevA.03 25-Dec-2016

 --------------------------
 # td=(NStates=1) B3LYP/SVP
 --------------------------

 --
 TD
 --
 Symbolic Z-matrix:
 Charge =  0 Multiplicity = 1

                         Standard orientation:
 ---------------------------------------------------------------------
 Center     Atomic      Atomic             Coordinates (Angstroms)
 Number     Number       Type             X           Y           Z
 ---------------------------------------------------------------------
      1          8           0        5.163012   -0.243642   -3.336878
      2          8           0       -3.110380   -2.629758    3.346262
      3          8           0       -3.493018   -0.473097    3.113703
      4          8           0       -1.222655    7.165923    1.438796
      5          8           0       -0.444237    7.045414   -0.706567
      6          8           0       -1.810835   -3.971904    0.279401
      7          7           0        2.391595    0.952439    0.636106
      8          7           0        4.228111   -0.712620   -1.191054
      9          7           0       -1.845579    0.659765   -0.389614
     10          7           0       -2.557793   -1.955555   -0.450150
     11          6           0        4.710858   -1.307391    0.107720
     12          6           0        4.475819   -0.421975    1.316937
     13          6           0        2.978634    0.030758    1.451045
     14          6           0        1.896911   -0.558751    2.230165
     15          6           0        0.697220   -0.003032    1.814467
     16          6           0        1.002394    1.017700    0.894943
     17          6           0        6.260221   -1.358420   -0.115288
     18          6           0       -0.616472   -0.070845    2.536196
     19          6           0        6.508268   -1.051969   -1.415251
     20          6           0        0.186044    1.975701    0.172519
     21          6           0       -1.040278    1.798971   -0.379807
     22          6           0        5.304171   -0.644248   -2.174751
     23          6           0       -1.908729    2.916432   -0.910472
     24          6           0        2.081542   -1.533990    3.267178
     25          6           0        7.080843   -2.006056    1.029756
     26          6           0       -3.119418    2.346208   -1.394178
     27          6           0       -1.286748   -1.462189    2.422432
     28          6           0       -3.078174    0.962042   -1.106336
     29          6           0       -1.440073    4.373110   -1.026055
     30          6           0        7.790416   -1.006124   -2.144300
     31          6           0       -1.602853    5.118544    0.241743
     32          6           0       -4.183734    2.958761   -1.984405
     33          6           0       -3.776487   -0.139459   -1.424379
     34          6           0       -2.721603   -1.408747    2.907757
     35          6           0       -3.646494   -1.472402   -1.127268
     36          6           0        9.088263   -1.115880   -1.575602
     37          6           0       -1.077380    6.549947    0.249199
     38          6           0       -4.470205   -2.605778   -1.465442
     39          6           0       -3.938074   -3.805681   -1.005897
     40          6           0       -2.660804   -3.273517   -0.257197
     41          6           0       -5.742316   -2.520238   -2.157627
     42          6           0       -4.308368   -5.169802   -1.123542
     43          6           0       -6.752592   -3.485348   -2.503405
     44          1           0        4.221645   -2.180167    0.344010
     45          1           0        4.888951    0.597435    1.062457
     46          1           0        4.842746   -0.967188    2.312445
     47          1           0        2.883141    1.452394   -0.107743
     48          1           0        3.251250   -0.802747   -1.388386
     49          1           0       -0.318162    0.360087    3.576056
     50          1           0       -1.458034    0.465610    2.179126
     51          1           0        0.810048    2.802651   -0.257735
     52          1           0        3.207102   -1.625714    3.454158
     53          1           0        1.878181   -1.025662    4.252674
     54          1           0        1.696027   -2.530873    3.107629
     55          1           0        6.226365   -2.586380    1.682918
     56          1           0        7.608911   -1.248166    1.662414
     57          1           0        7.815545   -2.700583    0.278303
     58          1           0       -1.254284   -1.959342    1.485019
     59          1           0       -0.819809   -2.192353    3.065363
     60          1           0       -1.795005   -0.349940   -0.020927
     61          1           0       -1.869472    4.820506   -1.853128
     62          1           0       -0.359317    4.062716   -1.381283
     63          1           0        7.919104   -0.517877   -3.176503
     64          1           0       -1.205400    4.663872    1.255703
     65          1           0       -2.722088    5.418794    0.467308
     66          1           0       -4.018471    3.881175   -2.432868
     67          1           0       -5.153921    3.040608   -1.392291
     68          1           0       -4.471046    2.139291   -2.824489
     69          1           0       -4.664029    0.091514   -1.956065
     70          1           0        9.138172   -1.239067   -0.421375
     71          1           0       10.026319   -0.746881   -2.139760
     72          1           0       -4.024850   -2.493730    3.696851
     73          1           0       -6.018446   -1.416856   -2.343582
     74          1           0       -5.190826   -5.452949   -0.600125
     75          1           0       -4.610846   -5.399372   -2.330759
     76          1           0       -3.496054   -5.928253   -0.759732
     77          1           0       -0.962365    7.983745    1.266819
     78          1           0       -7.811957   -3.350024   -2.946925
     79          1           0       -6.503377   -4.575962   -2.235458
 ---------------------------------------------------------------------

 SCF Done:  E(RB3LYP) =  -1947.84957460     A.U. after   19 cycles

 Excitation energies and oscillator strengths:

 Excited State   1:      Singlet-A      1.9873 eV  623.89 nm  f=0.3875  <S**2>=0.000
     154 ->156        -0.28078
     155 ->156         0.64811
     155 <-156        -0.12108
 This state for optimization and/or second-order correction.
 Total Energy, E(TD-HF/TD-DFT) =  -1947.77654393
 Copying the excited state density for this state as the 1-particle RhoCI density.

 The electronic state is 1-A.
 Alpha  occ. eigenvalues --  -19.19408 -19.16208 -19.13355 -19.11631 -19.11253
 Alpha  occ. eigenvalues --  -19.09505 -14.39279 -14.35641 -14.35520 -14.28510
 Alpha  occ. eigenvalues --  -10.33274 -10.30541 -10.30235 -10.25657 -10.24975
 Alpha  occ. eigenvalues --  -10.24966 -10.24516 -10.24371 -10.24178 -10.23823
 Alpha  occ. eigenvalues --  -10.23757 -10.23437 -10.23435 -10.23173 -10.22396
 Alpha  occ. eigenvalues --  -10.22057 -10.22037 -10.21996 -10.21982 -10.21950
 Alpha  occ. eigenvalues --  -10.21112 -10.20878 -10.20725 -10.20465 -10.20214
 Alpha  occ. eigenvalues --  -10.19774 -10.19721 -10.19670 -10.19378 -10.19160
 Alpha  occ. eigenvalues --  -10.18992 -10.18545 -10.18244  -1.12417  -1.07883
 Alpha  occ. eigenvalues --   -1.01946  -1.00678  -1.00594  -0.98440  -0.97573
 Alpha  occ. eigenvalues --   -0.95713  -0.92720  -0.91943  -0.83357  -0.82646
 Alpha  occ. eigenvalues --   -0.82135  -0.81968  -0.80244  -0.79778  -0.78990
 Alpha  occ. eigenvalues --   -0.77605  -0.76997  -0.74939  -0.73878  -0.73108
 Alpha  occ. eigenvalues --   -0.72182  -0.71410  -0.69521  -0.69331  -0.68545
 Alpha  occ. eigenvalues --   -0.67112  -0.66078  -0.63840  -0.61584  -0.60617
 Alpha  occ. eigenvalues --   -0.59993  -0.59037  -0.58898  -0.58182  -0.56944
 Alpha  occ. eigenvalues --   -0.56150  -0.55274  -0.54919  -0.53095  -0.52656
 Alpha  occ. eigenvalues --   -0.51806  -0.51558  -0.51413  -0.50719  -0.49845
 Alpha  occ. eigenvalues --   -0.49632  -0.49337  -0.48678  -0.48290  -0.47863
 Alpha  occ. eigenvalues --   -0.46976  -0.46799  -0.46422  -0.46088  -0.45528
 Alpha  occ. eigenvalues --   -0.45416  -0.45290  -0.44773  -0.44304  -0.43981
 Alpha  occ. eigenvalues --   -0.43678  -0.43196  -0.42883  -0.42777  -0.42728
 Alpha  occ. eigenvalues --   -0.42273  -0.41923  -0.41845  -0.41524  -0.41216
 Alpha  occ. eigenvalues --   -0.40912  -0.40885  -0.40652  -0.40000  -0.39980
 Alpha  occ. eigenvalues --   -0.39872  -0.39785  -0.39134  -0.38846  -0.38535
 Alpha  occ. eigenvalues --   -0.38027  -0.37540  -0.37283  -0.37247  -0.37140
 Alpha  occ. eigenvalues --   -0.36983  -0.36584  -0.35031  -0.34651  -0.34151
 Alpha  occ. eigenvalues --   -0.33830  -0.33090  -0.32717  -0.32005  -0.31670
 Alpha  occ. eigenvalues --   -0.30818  -0.30327  -0.28442  -0.27901  -0.27217
 Alpha  occ. eigenvalues --   -0.26786  -0.26704  -0.26621  -0.25435  -0.24893
 Alpha  occ. eigenvalues --   -0.24485  -0.23863  -0.23292  -0.21288  -0.18959
 Alpha virt. eigenvalues --   -0.11395  -0.07547  -0.06511  -0.01630  -0.01290
 Alpha virt. eigenvalues --   -0.01230   0.00443   0.01238   0.01568   0.03315
 Alpha virt. eigenvalues --    0.03586   0.03874   0.04773   0.04978   0.05590

 Mulliken charges:
               1
     1  O   -0.217885
     2  O   -0.191121
     3  O   -0.260199
     4  O   -0.104670
     5  O   -0.261389
     6  O   -0.223699
     7  N   -0.080940
     8  N   -0.272571
     9  N   -0.196782
    10  N   -0.285317
    11  C    0.097882
    12  C    0.140707
    13  C   -0.089497
    14  C   -0.173852
    15  C   -0.055148
    16  C    0.036219
    17  C   -0.122230
    18  C    0.064975
    19  C   -0.032739
    20  C   -0.092684
    21  C    0.163173
    22  C    0.216599
    23  C   -0.138401
    24  C    0.118655
    25  C   -0.020486
    26  C   -0.021535
    27  C    0.015173
    28  C    0.115156
    29  C    0.148670
    30  C   -0.049066
    31  C   -0.030728
    32  C    0.036618
    33  C   -0.069689
    34  C    0.130385
    35  C    0.131273
    36  C   -0.101012
    37  C    0.119280
    38  C    0.070328
    39  C   -0.148821
    40  C    0.122657
    41  C   -0.068085
    42  C    0.004888
    43  C   -0.088372
    44  H    0.000459
    45  H   -0.001197
    46  H    0.041568
    47  H    0.124361
    48  H    0.127000
    49  H    0.035300
    50  H    0.006484
    51  H   -0.000795
    52  H   -0.032568
    53  H    0.016498
    54  H    0.051640
    55  H    0.061417
    56  H    0.068130
    57  H    0.093068
    58  H    0.057447
    59  H    0.013170
    60  H    0.179786
    61  H   -0.012942
    62  H    0.045301
    63  H    0.046027
    64  H    0.079023
    65  H    0.053386
    66  H   -0.006147
    67  H    0.047089
    68  H    0.037170
    69  H   -0.067677
    70  H    0.032284
    71  H    0.059014
    72  H    0.177905
    73  H    0.001234
    74  H    0.032250
    75  H    0.052698
    76  H    0.049029
    77  H    0.124352
    78  H    0.053185
    79  H    0.019333
 Sum of Mulliken charges =  -0.00000

 Dipole moment (field-independent basis, Debye):
    X=              1.8687    Y=              2.9180    Z=              3.2843  Tot=              4.7743
 Quadrupole moment (field-independent basis, Debye-Ang):
   XX=           -218.1130   YY=           -249.2967   ZZ=           -265.9883
   XY=            -11.1599   XZ=             30.5223   YZ=              1.6952

 Normal termination of Gaussian 16 at Sat Sep 21 03:53:22 2019.
