 Gaussian 16, Revision A.03,
 Gaussian 16:  ES64L-G16RevA.03 25-Dec-2016

 --------------------------
 # td=(NStates=1) B3LYP/SVP
 --------------------------

 --
 TD
 --
 Symbolic Z-matrix:
 Charge =  0 Multiplicity = 1

                         Standard orientation:
 ---------------------------------------------------------------------
 Center     Atomic      Atomic             Coordinates (Angstroms)
 Number     Number       Type             X           Y           Z
 ---------------------------------------------------------------------
      1          8           0        5.548047   -0.082191   -3.308849
      2          8           0       -3.122338   -2.781975    3.166571
      3          8           0       -3.368724   -0.560429    3.050740
      4          8           0       -1.726874    7.310736    1.372933
      5          8           0       -0.960396    7.096465   -0.738528
      6          8           0       -1.656005   -4.057394    0.048235
      7          7           0        2.441540    1.012103    0.574555
      8          7           0        4.476210   -0.513868   -1.271188
      9          7           0       -1.870840    0.608220   -0.405064
     10          7           0       -2.496860   -1.997796   -0.519912
     11          6           0        4.845812   -1.152449    0.043564
     12          6           0        4.458464   -0.276770    1.307763
     13          6           0        3.005920    0.048728    1.372912
     14          6           0        1.929382   -0.657483    2.136072
     15          6           0        0.742762   -0.051755    1.816314
     16          6           0        0.931889    0.902247    0.753868
     17          6           0        6.346639   -1.134381   -0.074050
     18          6           0       -0.595049   -0.321032    2.518364
     19          6           0        6.782351   -0.831285   -1.431419
     20          6           0        0.046921    1.789382    0.145128
     21          6           0       -1.155687    1.706705   -0.336861
     22          6           0        5.566386   -0.444999   -2.102284
     23          6           0       -1.973243    2.842680   -0.873897
     24          6           0        2.137039   -1.798718    3.106886
     25          6           0        7.131396   -1.747595    1.072270
     26          6           0       -3.187698    2.238990   -1.267777
     27          6           0       -1.173327   -1.691262    2.553666
     28          6           0       -3.079867    0.903702   -1.000441
     29          6           0       -1.610551    4.303508   -0.898628
     30          6           0        8.047902   -0.679868   -1.949944
     31          6           0       -1.799385    5.098679    0.443157
     32          6           0       -4.453992    2.923030   -1.718612
     33          6           0       -3.881988   -0.178731   -1.341895
     34          6           0       -2.744923   -1.578407    2.960691
     35          6           0       -3.632440   -1.475658   -1.078507
     36          6           0        9.253699   -0.744002   -1.379573
     37          6           0       -1.452786    6.567600    0.237305
     38          6           0       -4.561530   -2.691287   -1.437822
     39          6           0       -3.863062   -3.820283   -1.134373
     40          6           0       -2.575341   -3.380519   -0.477037
     41          6           0       -5.848418   -2.578905   -2.165641
     42          6           0       -4.240411   -5.238091   -1.148678
     43          6           0       -6.657484   -3.550898   -2.602610
     44          1           0        4.579845   -2.244146    0.271122
     45          1           0        5.028716    0.729384    1.111637
     46          1           0        4.827566   -0.886588    2.135427
     47          1           0        2.899215    1.431614   -0.279722
     48          1           0        3.554891   -0.457709   -1.553407
     49          1           0       -0.088071    0.139869    3.652463
     50          1           0       -1.326539    0.369699    2.135282
     51          1           0        0.499979    2.669007   -0.190910
     52          1           0        3.214523   -2.165135    3.475338
     53          1           0        1.820448   -1.421439    3.949613
     54          1           0        1.456635   -2.671185    2.777272
     55          1           0        6.662041   -2.668338    1.570315
     56          1           0        7.408495   -1.033960    1.775665
     57          1           0        8.005690   -2.225714    0.520722
     58          1           0       -1.140510   -2.076853    1.348109
     59          1           0       -0.682391   -2.608253    3.194150
     60          1           0       -1.764599   -0.225569   -0.181440
     61          1           0       -2.356425    4.609448   -1.735848
     62          1           0       -0.508179    4.367573   -1.038076
     63          1           0        8.030417   -0.608450   -2.908490
     64          1           0       -0.764145    4.685136    1.068547
     65          1           0       -2.885709    5.076832    0.913330
     66          1           0       -4.138609    4.064140   -2.068095
     67          1           0       -5.194205    3.303594   -0.596047
     68          1           0       -5.030575    2.445348   -2.553902
     69          1           0       -4.678213    0.216669   -1.873720
     70          1           0        9.321722   -0.741651   -0.370581
     71          1           0       10.079466   -0.597826   -2.049933
     72          1           0       -4.075911   -2.629308    3.547515
     73          1           0       -6.129636   -1.503670   -2.277076
     74          1           0       -5.226112   -5.179418   -0.602189
     75          1           0       -4.500298   -5.751689   -2.176818
     76          1           0       -3.538537   -5.908712   -0.636725
     77          1           0       -1.399439    8.456270    1.283191
     78          1           0       -7.546747   -3.337142   -2.949774
     79          1           0       -6.411110   -4.589371   -2.351976
 ---------------------------------------------------------------------

 SCF Done:  E(RB3LYP) =  -1947.73544988     A.U. after   20 cycles

 Excitation energies and oscillator strengths:

 Excited State   1:      Singlet-A      2.0094 eV  617.02 nm  f=0.4625  <S**2>=0.000
     154 ->156         0.14886
     155 ->156         0.69062
     155 <-156        -0.12610
 This state for optimization and/or second-order correction.
 Total Energy, E(TD-HF/TD-DFT) =  -1947.66160524
 Copying the excited state density for this state as the 1-particle RhoCI density.

 The electronic state is 1-A.
 Alpha  occ. eigenvalues --  -19.19201 -19.18802 -19.13289 -19.11987 -19.09537
 Alpha  occ. eigenvalues --  -19.08775 -14.39978 -14.36397 -14.35204 -14.27793
 Alpha  occ. eigenvalues --  -10.32833 -10.30987 -10.28693 -10.26453 -10.25362
 Alpha  occ. eigenvalues --  -10.25237 -10.25039 -10.24506 -10.24124 -10.23613
 Alpha  occ. eigenvalues --  -10.23587 -10.23482 -10.23459 -10.22884 -10.22628
 Alpha  occ. eigenvalues --  -10.22402 -10.21819 -10.21093 -10.20977 -10.20953
 Alpha  occ. eigenvalues --  -10.20710 -10.20630 -10.20470 -10.20396 -10.20187
 Alpha  occ. eigenvalues --  -10.19730 -10.19421 -10.18970 -10.18846 -10.18821
 Alpha  occ. eigenvalues --  -10.18318 -10.17609 -10.17596  -1.11407  -1.07469
 Alpha  occ. eigenvalues --   -1.01156  -1.01102  -1.00981  -0.98578  -0.98143
 Alpha  occ. eigenvalues --   -0.96451  -0.93423  -0.89589  -0.83704  -0.83648
 Alpha  occ. eigenvalues --   -0.83353  -0.81813  -0.80555  -0.79401  -0.78711
 Alpha  occ. eigenvalues --   -0.77714  -0.76452  -0.75459  -0.74651  -0.72978
 Alpha  occ. eigenvalues --   -0.72474  -0.71096  -0.69570  -0.69249  -0.68511
 Alpha  occ. eigenvalues --   -0.66573  -0.65905  -0.64121  -0.63344  -0.61192
 Alpha  occ. eigenvalues --   -0.59666  -0.59323  -0.58526  -0.57907  -0.57315
 Alpha  occ. eigenvalues --   -0.56504  -0.55420  -0.54722  -0.54478  -0.53262
 Alpha  occ. eigenvalues --   -0.52332  -0.51564  -0.50818  -0.50658  -0.50480
 Alpha  occ. eigenvalues --   -0.49652  -0.49068  -0.48754  -0.48219  -0.47600
 Alpha  occ. eigenvalues --   -0.47143  -0.47041  -0.46791  -0.46427  -0.45703
 Alpha  occ. eigenvalues --   -0.45539  -0.45206  -0.44940  -0.44430  -0.43952
 Alpha  occ. eigenvalues --   -0.43683  -0.43451  -0.43155  -0.42923  -0.42479
 Alpha  occ. eigenvalues --   -0.42167  -0.41848  -0.41791  -0.41347  -0.40745
 Alpha  occ. eigenvalues --   -0.40583  -0.40173  -0.39926  -0.39813  -0.39434
 Alpha  occ. eigenvalues --   -0.39234  -0.39126  -0.38865  -0.38372  -0.38207
 Alpha  occ. eigenvalues --   -0.37881  -0.37752  -0.37516  -0.37250  -0.36942
 Alpha  occ. eigenvalues --   -0.36816  -0.36084  -0.35119  -0.34828  -0.33806
 Alpha  occ. eigenvalues --   -0.33765  -0.33338  -0.32701  -0.32246  -0.32143
 Alpha  occ. eigenvalues --   -0.31321  -0.31158  -0.28567  -0.28419  -0.27210
 Alpha  occ. eigenvalues --   -0.27091  -0.26349  -0.25811  -0.25153  -0.25000
 Alpha  occ. eigenvalues --   -0.23846  -0.23405  -0.22860  -0.21556  -0.18455
 Alpha virt. eigenvalues --   -0.10739  -0.07926  -0.05870  -0.02080  -0.01744
 Alpha virt. eigenvalues --   -0.00852  -0.00231   0.00292   0.01247   0.02147
 Alpha virt. eigenvalues --    0.02521   0.02990   0.03477   0.03930   0.04302

 Mulliken charges:
               1
     1  O   -0.268639
     2  O   -0.125478
     3  O   -0.225202
     4  O   -0.318097
     5  O   -0.220861
     6  O   -0.256219
     7  N   -0.160768
     8  N   -0.170362
     9  N    0.125848
    10  N   -0.301971
    11  C    0.057000
    12  C    0.157443
    13  C   -0.044792
    14  C   -0.150368
    15  C   -0.055177
    16  C    0.067561
    17  C   -0.205380
    18  C    0.080409
    19  C    0.036650
    20  C   -0.101275
    21  C    0.112351
    22  C    0.150680
    23  C   -0.068356
    24  C    0.112057
    25  C    0.061469
    26  C   -0.087572
    27  C   -0.178764
    28  C    0.019235
    29  C    0.072753
    30  C    0.005610
    31  C   -0.071635
    32  C   -0.047612
    33  C   -0.066578
    34  C    0.137554
    35  C    0.172200
    36  C    0.060086
    37  C    0.168942
    38  C    0.021652
    39  C   -0.185448
    40  C    0.158788
    41  C   -0.034330
    42  C    0.037241
    43  C    0.056466
    44  H    0.056453
    45  H    0.020537
    46  H    0.003828
    47  H    0.148351
    48  H    0.106485
    49  H    0.029759
    50  H    0.013550
    51  H   -0.054275
    52  H    0.020193
    53  H   -0.028032
    54  H    0.068160
    55  H    0.038222
    56  H    0.032563
    57  H    0.045135
    58  H    0.142953
    59  H    0.058448
    60  H   -0.007738
    61  H    0.048943
    62  H    0.023909
    63  H   -0.071771
    64  H    0.082683
    65  H    0.080284
    66  H    0.033245
    67  H    0.062341
    68  H    0.065197
    69  H   -0.084195
    70  H   -0.024000
    71  H    0.025834
    72  H    0.191384
    73  H   -0.011438
    74  H    0.037066
    75  H    0.043913
    76  H    0.030597
    77  H    0.267469
    78  H   -0.027554
    79  H    0.004389
 Sum of Mulliken charges =  -0.00000

 Dipole moment (field-independent basis, Debye):
    X=              1.2276    Y=              2.8604    Z=              4.9187  Tot=              5.8209
 Quadrupole moment (field-independent basis, Debye-Ang):
   XX=           -220.3813   YY=           -246.1637   ZZ=           -264.6436
   XY=            -10.9158   XZ=             30.1139   YZ=              0.2563

 Normal termination of Gaussian 16 at Fri Sep 27 15:48:14 2019.
