 Gaussian 16, Revision A.03,
 Gaussian 16:  ES64L-G16RevA.03 25-Dec-2016

 --------------------------
 # td=(NStates=1) B3LYP/SVP
 --------------------------

 --
 TD
 --
 Symbolic Z-matrix:
 Charge =  0 Multiplicity = 1

                         Standard orientation:
 ---------------------------------------------------------------------
 Center     Atomic      Atomic             Coordinates (Angstroms)
 Number     Number       Type             X           Y           Z
 ---------------------------------------------------------------------
      1          8           0        5.347093    0.158146   -3.284521
      2          8           0       -3.082202   -2.868614    3.250624
      3          8           0       -3.369933   -0.661899    2.907998
      4          8           0       -1.515218    7.013209    1.640209
      5          8           0       -1.061696    7.201473   -0.510190
      6          8           0       -1.714299   -4.029591    0.159274
      7          7           0        2.286127    0.853506    0.613190
      8          7           0        4.401105   -0.631018   -1.234965
      9          7           0       -1.879318    0.740564   -0.348507
     10          7           0       -2.453709   -1.880542   -0.464864
     11          6           0        4.753102   -1.115874    0.034482
     12          6           0        4.378983   -0.322862    1.258962
     13          6           0        2.867290    0.001668    1.430489
     14          6           0        1.954442   -0.539096    2.185494
     15          6           0        0.692976   -0.025621    1.812438
     16          6           0        0.917614    1.027515    0.738657
     17          6           0        6.309628   -1.346311   -0.148439
     18          6           0       -0.573367   -0.129356    2.544199
     19          6           0        6.631170   -0.834200   -1.350831
     20          6           0        0.122605    2.046602    0.186287
     21          6           0       -1.124075    1.876760   -0.323836
     22          6           0        5.415407   -0.362757   -2.123192
     23          6           0       -1.949655    2.940962   -0.976743
     24          6           0        2.136481   -1.595823    3.205848
     25          6           0        7.068069   -2.063590    0.909846
     26          6           0       -2.995146    2.337314   -1.460889
     27          6           0       -1.193267   -1.615644    2.458320
     28          6           0       -3.025412    0.904768   -1.110922
     29          6           0       -1.670984    4.319729   -0.892863
     30          6           0        7.990468   -0.722944   -1.997538
     31          6           0       -1.789298    5.094411    0.392486
     32          6           0       -4.217250    2.940910   -2.147978
     33          6           0       -3.876970   -0.068399   -1.514355
     34          6           0       -2.689380   -1.666765    2.804664
     35          6           0       -3.621592   -1.536916   -1.131539
     36          6           0        9.268419   -0.870284   -1.491004
     37          6           0       -1.339975    6.501892    0.424372
     38          6           0       -4.484595   -2.681956   -1.443930
     39          6           0       -3.817951   -3.845441   -0.979642
     40          6           0       -2.579553   -3.324461   -0.338330
     41          6           0       -5.824896   -2.660902   -2.126825
     42          6           0       -4.300892   -5.256933   -1.083185
     43          6           0       -6.569638   -3.603052   -2.434792
     44          1           0        4.481448   -2.247747    0.152554
     45          1           0        4.869537    0.671144    1.267981
     46          1           0        5.072720   -1.018598    2.091932
     47          1           0        3.001761    1.507030    0.062346
     48          1           0        3.423634   -0.372971   -1.657006
     49          1           0       -0.473275    0.235843    3.659193
     50          1           0       -1.478966    0.284202    2.127815
     51          1           0        0.857801    2.928281   -0.226424
     52          1           0        3.207677   -1.831418    3.473783
     53          1           0        1.648471   -1.516243    4.018793
     54          1           0        1.660099   -2.533055    2.783876
     55          1           0        6.580517   -2.756297    1.388958
     56          1           0        7.770864   -1.269134    1.653765
     57          1           0        7.820916   -2.667068    0.475893
     58          1           0       -0.991655   -2.267252    1.404306
     59          1           0       -0.411744   -2.127223    3.261969
     60          1           0       -1.497827   -0.329620   -0.411447
     61          1           0       -2.305036    4.882887   -1.564302
     62          1           0       -0.732775    4.590082   -1.243069
     63          1           0        7.752209   -0.594455   -3.122394
     64          1           0       -1.177937    4.558185    1.125370
     65          1           0       -2.825345    5.118028    0.896677
     66          1           0       -3.987225    3.962009   -2.230590
     67          1           0       -5.094374    2.632960   -1.334575
     68          1           0       -4.408571    2.389471   -3.191310
     69          1           0       -4.839000    0.139599   -2.040440
     70          1           0        9.446077   -0.994190   -0.285636
     71          1           0       10.403032   -0.857345   -2.013307
     72          1           0       -3.978756   -2.847633    3.389465
     73          1           0       -6.061132   -1.499201   -2.286767
     74          1           0       -5.376481   -5.417225   -0.675637
     75          1           0       -4.257794   -5.537936   -2.156427
     76          1           0       -3.600123   -5.777302   -0.385985
     77          1           0       -1.076878    7.820954    1.691467
     78          1           0       -7.538785   -3.507882   -3.182448
     79          1           0       -6.369017   -4.650285   -2.037786
 ---------------------------------------------------------------------

 SCF Done:  E(RB3LYP) =  -1947.75963233     A.U. after   16 cycles

 Excitation energies and oscillator strengths:

 Excited State   1:      Singlet-A      1.8147 eV  683.21 nm  f=0.3084  <S**2>=0.000
     155 ->156         0.70649
     155 <-156        -0.11769
 This state for optimization and/or second-order correction.
 Total Energy, E(TD-HF/TD-DFT) =  -1947.69294210
 Copying the excited state density for this state as the 1-particle RhoCI density.

 The electronic state is 1-A.
 Alpha  occ. eigenvalues --  -19.18141 -19.16939 -19.12926 -19.12129 -19.11370
 Alpha  occ. eigenvalues --  -19.10613 -14.38981 -14.36874 -14.36339 -14.31080
 Alpha  occ. eigenvalues --  -10.32265 -10.30965 -10.29424 -10.28034 -10.25942
 Alpha  occ. eigenvalues --  -10.25568 -10.24298 -10.24178 -10.23994 -10.23277
 Alpha  occ. eigenvalues --  -10.22622 -10.22616 -10.22211 -10.22151 -10.21611
 Alpha  occ. eigenvalues --  -10.21562 -10.21500 -10.21491 -10.21177 -10.21122
 Alpha  occ. eigenvalues --  -10.20996 -10.20992 -10.20814 -10.20772 -10.20396
 Alpha  occ. eigenvalues --  -10.20092 -10.20067 -10.19965 -10.19435 -10.19188
 Alpha  occ. eigenvalues --  -10.18356 -10.17925 -10.17532  -1.11738  -1.09484
 Alpha  occ. eigenvalues --   -1.02618  -1.01704  -1.00692  -0.99697  -0.99639
 Alpha  occ. eigenvalues --   -0.97956  -0.94417  -0.91158  -0.84231  -0.82025
 Alpha  occ. eigenvalues --   -0.81822  -0.81391  -0.80796  -0.79493  -0.78651
 Alpha  occ. eigenvalues --   -0.77182  -0.76363  -0.74896  -0.74672  -0.72391
 Alpha  occ. eigenvalues --   -0.71507  -0.71013  -0.70750  -0.69873  -0.68771
 Alpha  occ. eigenvalues --   -0.66999  -0.66016  -0.64515  -0.61646  -0.60850
 Alpha  occ. eigenvalues --   -0.59863  -0.59182  -0.58495  -0.57985  -0.56293
 Alpha  occ. eigenvalues --   -0.56089  -0.55430  -0.54294  -0.54116  -0.53643
 Alpha  occ. eigenvalues --   -0.52067  -0.51056  -0.50714  -0.50198  -0.50105
 Alpha  occ. eigenvalues --   -0.48869  -0.48477  -0.47906  -0.47347  -0.47081
 Alpha  occ. eigenvalues --   -0.46973  -0.46822  -0.46184  -0.45915  -0.45696
 Alpha  occ. eigenvalues --   -0.45428  -0.45084  -0.44647  -0.44630  -0.44046
 Alpha  occ. eigenvalues --   -0.43174  -0.43092  -0.42997  -0.42608  -0.42350
 Alpha  occ. eigenvalues --   -0.42135  -0.42009  -0.41806  -0.41578  -0.41329
 Alpha  occ. eigenvalues --   -0.40868  -0.40515  -0.40378  -0.40073  -0.39846
 Alpha  occ. eigenvalues --   -0.39600  -0.39452  -0.39068  -0.38747  -0.38696
 Alpha  occ. eigenvalues --   -0.38017  -0.37708  -0.37515  -0.36859  -0.36248
 Alpha  occ. eigenvalues --   -0.35829  -0.35264  -0.35152  -0.34285  -0.34086
 Alpha  occ. eigenvalues --   -0.33304  -0.33114  -0.32202  -0.31558  -0.31171
 Alpha  occ. eigenvalues --   -0.30981  -0.29857  -0.29408  -0.28624  -0.28395
 Alpha  occ. eigenvalues --   -0.26900  -0.26603  -0.26519  -0.26007  -0.25119
 Alpha  occ. eigenvalues --   -0.24873  -0.24300  -0.23859  -0.23154  -0.18772
 Alpha virt. eigenvalues --   -0.11639  -0.06595  -0.06126  -0.00812  -0.00320
 Alpha virt. eigenvalues --    0.00184   0.00652   0.00958   0.01846   0.02828
 Alpha virt. eigenvalues --    0.03605   0.04169   0.04365   0.04933   0.05164

 Mulliken charges:
               1
     1  O   -0.278693
     2  O   -0.128979
     3  O   -0.241348
     4  O   -0.136270
     5  O   -0.212568
     6  O   -0.196521
     7  N   -0.077969
     8  N   -0.206577
     9  N   -0.123488
    10  N   -0.343008
    11  C    0.074075
    12  C    0.103464
    13  C   -0.070416
    14  C   -0.123140
    15  C   -0.095988
    16  C    0.032878
    17  C   -0.196139
    18  C    0.050247
    19  C   -0.075739
    20  C   -0.122728
    21  C    0.094850
    22  C    0.178903
    23  C   -0.014359
    24  C    0.186389
    25  C    0.130684
    26  C   -0.152604
    27  C   -0.194613
    28  C    0.136189
    29  C    0.161988
    30  C    0.022751
    31  C   -0.029152
    32  C    0.064463
    33  C   -0.116150
    34  C    0.177316
    35  C    0.081063
    36  C   -0.134455
    37  C    0.094559
    38  C   -0.018351
    39  C   -0.197190
    40  C    0.172799
    41  C    0.058142
    42  C    0.056010
    43  C   -0.105962
    44  H    0.037879
    45  H   -0.003781
    46  H    0.050649
    47  H    0.142642
    48  H    0.160845
    49  H    0.033830
    50  H    0.020835
    51  H    0.028304
    52  H   -0.003223
    53  H   -0.048446
    54  H    0.032275
    55  H   -0.025917
    56  H    0.065706
    57  H    0.012864
    58  H    0.122487
    59  H    0.036731
    60  H    0.214977
    61  H   -0.011934
    62  H   -0.024172
    63  H    0.040233
    64  H    0.026909
    65  H    0.055204
    66  H    0.003404
    67  H    0.061060
    68  H    0.054661
    69  H   -0.004132
    70  H    0.034178
    71  H    0.073081
    72  H    0.138695
    73  H    0.010081
    74  H    0.055891
    75  H    0.053227
    76  H    0.038450
    77  H    0.152224
    78  H    0.055102
    79  H    0.024818
 Sum of Mulliken charges =  -0.00000

 Dipole moment (field-independent basis, Debye):
    X=             -0.2509    Y=             -0.1088    Z=              2.8780  Tot=              2.8910
 Quadrupole moment (field-independent basis, Debye-Ang):
   XX=           -221.0177   YY=           -249.2210   ZZ=           -266.2638
   XY=              1.1609   XZ=             36.4324   YZ=             10.2913

 Normal termination of Gaussian 16 at Tue Sep 17 02:52:35 2019.
