 Gaussian 16, Revision A.03,
 Gaussian 16:  ES64L-G16RevA.03 25-Dec-2016

 --------------------------
 # td=(NStates=1) B3LYP/SVP
 --------------------------

 --
 TD
 --
 Symbolic Z-matrix:
 Charge =  0 Multiplicity = 1

                         Standard orientation:
 ---------------------------------------------------------------------
 Center     Atomic      Atomic             Coordinates (Angstroms)
 Number     Number       Type             X           Y           Z
 ---------------------------------------------------------------------
      1          8           0       -3.272871   -1.685335   -2.716992
      2          8           0        2.859678    3.356536    2.966314
      3          8           0        3.721331    1.824819    4.302456
      4          8           0        7.895909   -1.430529   -0.859306
      5          8           0        6.802541   -3.131527   -1.845192
      6          8           0       -2.668486    1.613128    1.321386
      7          7           0       -0.219629   -2.356721    1.155084
      8          7           0       -2.730664   -1.351889   -0.543843
      9          7           0        1.095407   -0.042651   -0.722254
     10          7           0       -0.928474    1.434051   -0.308840
     11          6           0       -3.453045   -1.331510    0.687670
     12          6           0       -2.652468   -2.239627    1.817198
     13          6           0       -1.223553   -1.884353    1.932294
     14          6           0       -0.589433   -1.052665    2.930986
     15          6           0        0.857660   -0.922096    2.652770
     16          6           0        1.062719   -1.741070    1.500629
     17          6           0       -4.741047   -1.685552    0.338774
     18          6           0        1.968152   -0.129549    3.265041
     19          6           0       -4.827082   -2.074135   -0.956746
     20          6           0        2.186507   -1.807846    0.545391
     21          6           0        2.134345   -0.933878   -0.496175
     22          6           0       -3.526850   -1.627329   -1.572999
     23          6           0        2.990941   -0.844220   -1.656915
     24          6           0       -1.284312   -0.168382    3.914942
     25          6           0       -5.886393   -1.850233    1.345339
     26          6           0        2.542313    0.236650   -2.446161
     27          6           0        1.914062    1.350138    2.821068
     28          6           0        1.332898    0.740813   -1.879598
     29          6           0        4.256512   -1.682188   -1.820078
     30          6           0       -5.805984   -2.757804   -1.733569
     31          6           0        5.542334   -1.061723   -1.235132
     32          6           0        3.151295    0.711946   -3.703230
     33          6           0        0.506382    1.921177   -2.267300
     34          6           0        2.952624    2.166092    3.441859
     35          6           0       -0.648332    2.177754   -1.472411
     36          6           0       -6.948728   -3.459401   -1.412363
     37          6           0        6.777451   -1.931680   -1.364351
     38          6           0       -1.479607    3.443219   -1.517012
     39          6           0       -2.325723    3.319093   -0.393910
     40          6           0       -2.079965    2.095604    0.335834
     41          6           0       -1.304944    4.395021   -2.598689
     42          6           0       -3.468472    4.295971   -0.061805
     43          6           0       -2.109454    5.379678   -2.867416
     44          1           0       -3.461132   -0.352871    1.105703
     45          1           0       -2.664980   -3.287818    1.309224
     46          1           0       -3.366090   -2.132037    2.655236
     47          1           0       -0.341241   -3.317366    0.477277
     48          1           0       -2.032987   -0.624988   -0.551892
     49          1           0        1.701246   -0.049096    4.510491
     50          1           0        2.903411   -0.660667    3.347821
     51          1           0        2.940386   -2.479558    0.709232
     52          1           0       -1.866889   -0.728040    4.675568
     53          1           0       -0.583062    0.544229    4.714937
     54          1           0       -1.784440    0.721656    3.555722
     55          1           0       -5.764485   -1.011336    1.953377
     56          1           0       -5.797074   -2.808064    1.915129
     57          1           0       -6.804631   -1.549707    0.553959
     58          1           0        2.122360    1.496577    1.637065
     59          1           0        0.848452    1.687087    2.688111
     60          1           0        0.438579    0.245878   -0.050575
     61          1           0        4.467468   -1.997106   -2.893857
     62          1           0        4.200107   -2.700119   -1.490402
     63          1           0       -5.730708   -2.808602   -2.929540
     64          1           0        5.508342   -0.898018   -0.122335
     65          1           0        5.893090   -0.132020   -1.523740
     66          1           0        4.038020   -0.058908   -3.975107
     67          1           0        3.349098    1.666824   -3.630588
     68          1           0        2.463736    0.846454   -4.502993
     69          1           0        0.472786    2.386589   -3.218570
     70          1           0       -7.089026   -3.481818   -0.301427
     71          1           0       -7.553260   -3.965563   -2.174438
     72          1           0        3.642215    3.969363    3.385422
     73          1           0       -0.632714    4.195210   -3.248024
     74          1           0       -4.201943    4.065914   -1.029450
     75          1           0       -3.923348    4.102556    0.849720
     76          1           0       -3.071215    5.241139   -0.040547
     77          1           0        8.574818   -2.151297   -1.027060
     78          1           0       -1.919933    5.882963   -3.750330
     79          1           0       -3.121053    5.698820   -2.437088
 ---------------------------------------------------------------------

 SCF Done:  E(RB3LYP) =  -1947.79378361     A.U. after   20 cycles

 Excitation energies and oscillator strengths:

 Excited State   1:      Singlet-A      0.9712 eV 1276.58 nm  f=0.0025  <S**2>=0.000
     155 ->156         0.70188
 This state for optimization and/or second-order correction.
 Total Energy, E(TD-HF/TD-DFT) =  -1947.75809174
 Copying the excited state density for this state as the 1-particle RhoCI density.

 The electronic state is 1-A.
 Alpha  occ. eigenvalues --  -19.20722 -19.18961 -19.13059 -19.12615 -19.11549
 Alpha  occ. eigenvalues --  -19.06937 -14.38116 -14.37170 -14.31488 -14.30297
 Alpha  occ. eigenvalues --  -10.33844 -10.30944 -10.28394 -10.27754 -10.25319
 Alpha  occ. eigenvalues --  -10.24909 -10.24802 -10.23255 -10.22988 -10.22793
 Alpha  occ. eigenvalues --  -10.22734 -10.22534 -10.22047 -10.21922 -10.21791
 Alpha  occ. eigenvalues --  -10.21660 -10.21472 -10.21162 -10.20703 -10.20699
 Alpha  occ. eigenvalues --  -10.20488 -10.20334 -10.20210 -10.20203 -10.19879
 Alpha  occ. eigenvalues --  -10.19691 -10.18901 -10.18862 -10.18624 -10.18282
 Alpha  occ. eigenvalues --  -10.18093 -10.18002 -10.17034  -1.11223  -1.10842
 Alpha  occ. eigenvalues --   -1.02178  -1.01705  -1.00314  -0.98908  -0.97879
 Alpha  occ. eigenvalues --   -0.94652  -0.93713  -0.90568  -0.83754  -0.82619
 Alpha  occ. eigenvalues --   -0.81913  -0.80307  -0.80060  -0.79489  -0.77995
 Alpha  occ. eigenvalues --   -0.76697  -0.75537  -0.75155  -0.74578  -0.73397
 Alpha  occ. eigenvalues --   -0.70819  -0.70506  -0.70041  -0.69154  -0.67464
 Alpha  occ. eigenvalues --   -0.66281  -0.65415  -0.63861  -0.61849  -0.61237
 Alpha  occ. eigenvalues --   -0.59828  -0.59576  -0.58946  -0.58409  -0.57257
 Alpha  occ. eigenvalues --   -0.56135  -0.54589  -0.53868  -0.52900  -0.52843
 Alpha  occ. eigenvalues --   -0.51654  -0.51178  -0.50881  -0.50339  -0.49796
 Alpha  occ. eigenvalues --   -0.49601  -0.49481  -0.48893  -0.48461  -0.48208
 Alpha  occ. eigenvalues --   -0.47915  -0.47731  -0.46481  -0.46228  -0.46109
 Alpha  occ. eigenvalues --   -0.45563  -0.45250  -0.44697  -0.44310  -0.44070
 Alpha  occ. eigenvalues --   -0.43512  -0.43327  -0.43107  -0.42723  -0.42460
 Alpha  occ. eigenvalues --   -0.41949  -0.41703  -0.41530  -0.41324  -0.40913
 Alpha  occ. eigenvalues --   -0.40784  -0.40480  -0.40295  -0.40023  -0.39681
 Alpha  occ. eigenvalues --   -0.39474  -0.39131  -0.39017  -0.38553  -0.37739
 Alpha  occ. eigenvalues --   -0.37368  -0.37124  -0.37115  -0.36361  -0.36093
 Alpha  occ. eigenvalues --   -0.35876  -0.35593  -0.35548  -0.35111  -0.34111
 Alpha  occ. eigenvalues --   -0.32440  -0.32070  -0.32066  -0.31319  -0.30979
 Alpha  occ. eigenvalues --   -0.30493  -0.29694  -0.28977  -0.28652  -0.28505
 Alpha  occ. eigenvalues --   -0.27863  -0.27071  -0.25438  -0.24382  -0.23823
 Alpha  occ. eigenvalues --   -0.23208  -0.22721  -0.21928  -0.21599  -0.19138
 Alpha virt. eigenvalues --   -0.13146  -0.08566  -0.04042  -0.02103  -0.01567
 Alpha virt. eigenvalues --    0.00228   0.00963   0.01994   0.02745   0.02967
 Alpha virt. eigenvalues --    0.03420   0.03867   0.04111   0.04429   0.05193

 Mulliken charges:
               1
     1  O   -0.184317
     2  O   -0.183655
     3  O   -0.228623
     4  O   -0.164742
     5  O   -0.317993
     6  O   -0.221887
     7  N   -0.170973
     8  N   -0.138358
     9  N   -0.070259
    10  N   -0.406441
    11  C    0.068064
    12  C    0.185678
    13  C   -0.037471
    14  C   -0.088807
    15  C   -0.060512
    16  C   -0.025912
    17  C   -0.229432
    18  C    0.069867
    19  C   -0.011347
    20  C   -0.047305
    21  C    0.137987
    22  C    0.079837
    23  C   -0.051593
    24  C   -0.014390
    25  C    0.072674
    26  C   -0.156088
    27  C   -0.084399
    28  C    0.138311
    29  C    0.089925
    30  C   -0.110013
    31  C    0.062483
    32  C    0.196566
    33  C   -0.055983
    34  C    0.141730
    35  C    0.073337
    36  C   -0.044134
    37  C    0.122319
    38  C    0.067436
    39  C   -0.230414
    40  C    0.224475
    41  C    0.086648
    42  C    0.125490
    43  C   -0.008680
    44  H    0.027969
    45  H   -0.011813
    46  H    0.002652
    47  H    0.184471
    48  H    0.125633
    49  H    0.031669
    50  H    0.010245
    51  H   -0.022187
    52  H    0.014020
    53  H   -0.002750
    54  H    0.041731
    55  H   -0.002916
    56  H    0.058022
    57  H    0.064186
    58  H    0.039793
    59  H    0.064773
    60  H    0.155087
    61  H    0.030175
    62  H    0.008809
    63  H    0.024896
    64  H    0.044245
    65  H    0.007342
    66  H    0.052000
    67  H   -0.034949
    68  H    0.001906
    69  H   -0.003604
    70  H    0.010539
    71  H    0.027660
    72  H    0.221638
    73  H   -0.099658
    74  H    0.062740
    75  H    0.004634
    76  H    0.014021
    77  H    0.206822
    78  H   -0.001774
    79  H    0.042879
 Sum of Mulliken charges =  -0.00000

 Dipole moment (field-independent basis, Debye):
    X=              4.2713    Y=              4.3773    Z=             -1.7004  Tot=              6.3479
 Quadrupole moment (field-independent basis, Debye-Ang):
   XX=           -239.8614   YY=           -235.2953   ZZ=           -265.9564
   XY=              0.2945   XZ=            -19.3177   YZ=            -18.2317

 Normal termination of Gaussian 16 at Thu Jul 25 14:25:40 2019.
