 Gaussian 16, Revision A.03,
 Gaussian 16:  ES64L-G16RevA.03 25-Dec-2016

 --------------------------
 # td=(NStates=1) B3LYP/SVP
 --------------------------

 --
 TD
 --
 Symbolic Z-matrix:
 Charge =  0 Multiplicity = 1

                         Standard orientation:
 ---------------------------------------------------------------------
 Center     Atomic      Atomic             Coordinates (Angstroms)
 Number     Number       Type             X           Y           Z
 ---------------------------------------------------------------------
      1          8           0       -3.288933   -1.868319   -2.548485
      2          8           0        3.065104    3.782768    2.558098
      3          8           0        3.827126    2.307334    3.984723
      4          8           0        7.814429   -1.539549   -0.773219
      5          8           0        6.498078   -3.517960   -1.148176
      6          8           0       -2.545569    1.923581    1.188591
      7          7           0       -0.201284   -2.090552    1.401691
      8          7           0       -2.590545   -1.361160   -0.341792
      9          7           0        1.011101   -0.020883   -0.785430
     10          7           0       -0.989980    1.277401   -0.473947
     11          6           0       -3.334503   -1.286272    0.877261
     12          6           0       -2.644551   -1.988647    2.057482
     13          6           0       -1.150864   -1.527369    2.232333
     14          6           0       -0.464985   -0.545644    3.020917
     15          6           0        0.890998   -0.586340    2.700743
     16          6           0        1.028022   -1.507568    1.629974
     17          6           0       -4.753024   -1.960263    0.696052
     18          6           0        1.972631    0.318259    3.143933
     19          6           0       -4.842457   -2.245078   -0.621880
     20          6           0        2.158513   -1.774269    0.669412
     21          6           0        2.046596   -1.010287   -0.533421
     22          6           0       -3.551615   -1.875466   -1.315315
     23          6           0        2.930258   -1.015514   -1.671607
     24          6           0       -1.056512    0.409600    4.061707
     25          6           0       -5.828308   -1.890542    1.662048
     26          6           0        2.465715   -0.117708   -2.578433
     27          6           0        1.935106    1.613808    2.529674
     28          6           0        1.226824    0.444963   -2.037711
     29          6           0        4.224473   -1.814066   -1.741312
     30          6           0       -5.901305   -2.748894   -1.495589
     31          6           0        5.512502   -1.227219   -1.160341
     32          6           0        3.042251    0.170025   -3.972826
     33          6           0        0.369411    1.426696   -2.454120
     34          6           0        3.050975    2.581140    3.111615
     35          6           0       -0.719917    1.871879   -1.595513
     36          6           0       -7.071220   -3.265263   -0.972248
     37          6           0        6.646756   -2.267720   -1.039675
     38          6           0       -1.523880    3.122385   -1.889321
     39          6           0       -2.308299    3.178227   -0.836746
     40          6           0       -1.998685    2.135666    0.131524
     41          6           0       -1.350672    3.869821   -3.027334
     42          6           0       -3.295657    4.387128   -0.390294
     43          6           0       -2.061352    4.991392   -3.526197
     44          1           0       -3.708224   -0.241791    1.357700
     45          1           0       -2.674672   -3.036896    1.866264
     46          1           0       -2.999148   -1.740844    3.009644
     47          1           0       -0.514486   -2.803094    0.804783
     48          1           0       -1.759606   -0.568382   -0.414891
     49          1           0        1.931755    0.598338    4.216627
     50          1           0        3.051654   -0.242480    2.802427
     51          1           0        3.070536   -2.364638    0.887115
     52          1           0       -2.200964   -0.013468    4.409651
     53          1           0       -0.325699    0.838950    4.714576
     54          1           0       -1.362004    1.419388    3.368278
     55          1           0       -5.429830   -1.141580    2.393186
     56          1           0       -5.772380   -2.785270    2.245661
     57          1           0       -6.961270   -1.474276    1.311066
     58          1           0        1.915021    1.498340    1.317338
     59          1           0        1.166995    2.231344    2.744515
     60          1           0        0.212374    0.236021   -0.320328
     61          1           0        4.686664   -2.249456   -2.746317
     62          1           0        4.053661   -2.765862   -1.014682
     63          1           0       -5.411105   -2.858213   -2.569964
     64          1           0        5.147293   -0.952693    0.018806
     65          1           0        5.781914   -0.226966   -1.705135
     66          1           0        3.666704   -0.638469   -4.230715
     67          1           0        3.355195    1.316347   -4.112433
     68          1           0        2.184690   -0.043739   -4.833478
     69          1           0        0.670020    1.884073   -3.372282
     70          1           0       -7.354945   -3.234986    0.040399
     71          1           0       -7.794295   -3.796147   -1.617082
     72          1           0        3.771408    4.270168    3.061738
     73          1           0       -0.540467    3.672307   -3.647996
     74          1           0       -4.296976    4.455034   -1.119511
     75          1           0       -3.668498    4.090141    0.666773
     76          1           0       -2.924362    5.448047   -0.359293
     77          1           0        8.401016   -2.276831   -0.722480
     78          1           0       -2.037421    5.513779   -4.263573
     79          1           0       -2.756837    5.446150   -2.871052
 ---------------------------------------------------------------------

 SCF Done:  E(RB3LYP) =  -1947.76238292     A.U. after   16 cycles

 Excitation energies and oscillator strengths:

 Excited State   1:      Singlet-A      1.1887 eV 1043.01 nm  f=0.0111  <S**2>=0.000
     155 ->156         0.70198
 This state for optimization and/or second-order correction.
 Total Energy, E(TD-HF/TD-DFT) =  -1947.71869852
 Copying the excited state density for this state as the 1-particle RhoCI density.

 The electronic state is 1-A.
 Alpha  occ. eigenvalues --  -19.20559 -19.18310 -19.15902 -19.13413 -19.12049
 Alpha  occ. eigenvalues --  -19.09053 -14.36412 -14.36055 -14.33691 -14.32037
 Alpha  occ. eigenvalues --  -10.35176 -10.31335 -10.29194 -10.27800 -10.25903
 Alpha  occ. eigenvalues --  -10.25652 -10.25379 -10.24270 -10.23309 -10.23139
 Alpha  occ. eigenvalues --  -10.23072 -10.22989 -10.22776 -10.22586 -10.21984
 Alpha  occ. eigenvalues --  -10.21691 -10.21496 -10.21304 -10.21265 -10.20797
 Alpha  occ. eigenvalues --  -10.20460 -10.20422 -10.20157 -10.20129 -10.19946
 Alpha  occ. eigenvalues --  -10.19927 -10.19777 -10.19617 -10.19081 -10.18834
 Alpha  occ. eigenvalues --  -10.18682 -10.17309 -10.17125  -1.10663  -1.10157
 Alpha  occ. eigenvalues --   -1.04682  -1.01596  -1.00287  -0.99341  -0.98618
 Alpha  occ. eigenvalues --   -0.96382  -0.95320  -0.90427  -0.84363  -0.82799
 Alpha  occ. eigenvalues --   -0.81711  -0.80824  -0.80759  -0.78769  -0.77372
 Alpha  occ. eigenvalues --   -0.76499  -0.76300  -0.75448  -0.74008  -0.72184
 Alpha  occ. eigenvalues --   -0.70429  -0.69978  -0.69267  -0.68850  -0.66538
 Alpha  occ. eigenvalues --   -0.66356  -0.65337  -0.63782  -0.61862  -0.60650
 Alpha  occ. eigenvalues --   -0.59986  -0.59333  -0.58910  -0.57515  -0.56466
 Alpha  occ. eigenvalues --   -0.55820  -0.55324  -0.54953  -0.53816  -0.52610
 Alpha  occ. eigenvalues --   -0.51845  -0.51152  -0.50609  -0.50349  -0.50055
 Alpha  occ. eigenvalues --   -0.49408  -0.48914  -0.48674  -0.48369  -0.47964
 Alpha  occ. eigenvalues --   -0.47749  -0.47511  -0.46834  -0.46205  -0.46043
 Alpha  occ. eigenvalues --   -0.45522  -0.45163  -0.44951  -0.44092  -0.43761
 Alpha  occ. eigenvalues --   -0.43626  -0.43131  -0.42815  -0.42658  -0.42269
 Alpha  occ. eigenvalues --   -0.42112  -0.41698  -0.41404  -0.41151  -0.40843
 Alpha  occ. eigenvalues --   -0.40471  -0.39919  -0.39802  -0.39514  -0.39146
 Alpha  occ. eigenvalues --   -0.38917  -0.38775  -0.38122  -0.37846  -0.37573
 Alpha  occ. eigenvalues --   -0.37398  -0.37311  -0.36469  -0.36237  -0.36199
 Alpha  occ. eigenvalues --   -0.35643  -0.35458  -0.34927  -0.34603  -0.34402
 Alpha  occ. eigenvalues --   -0.34334  -0.34085  -0.32587  -0.32328  -0.31940
 Alpha  occ. eigenvalues --   -0.31497  -0.30817  -0.30554  -0.30321  -0.29343
 Alpha  occ. eigenvalues --   -0.27705  -0.27294  -0.26908  -0.24839  -0.24506
 Alpha  occ. eigenvalues --   -0.23703  -0.22740  -0.22409  -0.22217  -0.18919
 Alpha virt. eigenvalues --   -0.12298  -0.08201  -0.04875  -0.04027  -0.02745
 Alpha virt. eigenvalues --    0.00889   0.01315   0.01583   0.02177   0.03490
 Alpha virt. eigenvalues --    0.03604   0.04106   0.04735   0.04879   0.05525

 Mulliken charges:
               1
     1  O   -0.270860
     2  O   -0.167960
     3  O   -0.226593
     4  O   -0.169686
     5  O   -0.251238
     6  O   -0.172442
     7  N   -0.039750
     8  N   -0.289214
     9  N   -0.068834
    10  N   -0.336508
    11  C    0.005189
    12  C    0.286941
    13  C   -0.169611
    14  C   -0.119245
    15  C   -0.047442
    16  C   -0.007972
    17  C   -0.172708
    18  C    0.087769
    19  C   -0.081766
    20  C   -0.096197
    21  C    0.112728
    22  C    0.194991
    23  C    0.009713
    24  C    0.018614
    25  C    0.087407
    26  C   -0.114404
    27  C   -0.014531
    28  C    0.091250
    29  C   -0.037274
    30  C   -0.004821
    31  C   -0.090679
    32  C    0.047610
    33  C   -0.091191
    34  C    0.102672
    35  C    0.100854
    36  C   -0.032389
    37  C    0.201977
    38  C    0.183560
    39  C   -0.187907
    40  C    0.197698
    41  C   -0.081311
    42  C   -0.025576
    43  C    0.131263
    44  H    0.054470
    45  H   -0.039821
    46  H   -0.033937
    47  H    0.096637
    48  H    0.219839
    49  H    0.005963
    50  H    0.023848
    51  H    0.028381
    52  H    0.036935
    53  H    0.001520
    54  H    0.050865
    55  H    0.003545
    56  H    0.018877
    57  H    0.079826
    58  H    0.053381
    59  H   -0.007579
    60  H    0.127192
    61  H    0.049922
    62  H    0.049765
    63  H    0.050923
    64  H    0.072359
    65  H    0.064355
    66  H    0.009625
    67  H    0.066191
    68  H    0.046372
    69  H   -0.044434
    70  H    0.008880
    71  H    0.025865
    72  H    0.184584
    73  H   -0.028855
    74  H    0.047951
    75  H    0.049234
    76  H    0.050897
    77  H    0.161226
    78  H   -0.074312
    79  H   -0.002614
 Sum of Mulliken charges =  -0.00000

 Dipole moment (field-independent basis, Debye):
    X=              2.6591    Y=              3.5073    Z=             -1.8910  Tot=              4.7904
 Quadrupole moment (field-independent basis, Debye-Ang):
   XX=           -234.0555   YY=           -241.1334   ZZ=           -260.5314
   XY=             -0.4417   XZ=            -26.6744   YZ=            -16.9866

 Normal termination of Gaussian 16 at Wed Jul 24 05:00:46 2019.
