 Gaussian 16, Revision A.03,
 Gaussian 16:  ES64L-G16RevA.03 25-Dec-2016

 --------------------------
 # td=(NStates=1) B3LYP/SVP
 --------------------------

 --
 TD
 --
 Symbolic Z-matrix:
 Charge =  0 Multiplicity = 1

                         Standard orientation:
 ---------------------------------------------------------------------
 Center     Atomic      Atomic             Coordinates (Angstroms)
 Number     Number       Type             X           Y           Z
 ---------------------------------------------------------------------
      1          8           0       -3.148156   -1.476630   -2.777402
      2          8           0        3.125906    3.252890    3.023824
      3          8           0        3.845590    1.491949    4.269485
      4          8           0        7.594307   -1.574629   -0.704955
      5          8           0        6.502699   -3.092104   -1.875956
      6          8           0       -2.737720    1.605592    1.467893
      7          7           0       -0.171935   -2.452674    0.998731
      8          7           0       -2.619725   -1.212552   -0.482282
      9          7           0        1.094035    0.013366   -0.762469
     10          7           0       -1.145973    1.469765   -0.213361
     11          6           0       -3.223566   -1.409910    0.818719
     12          6           0       -2.578038   -2.352573    1.799537
     13          6           0       -1.105636   -1.935256    1.880832
     14          6           0       -0.442130   -1.119726    2.806270
     15          6           0        0.919977   -1.019196    2.470913
     16          6           0        1.008075   -1.907424    1.237435
     17          6           0       -4.539746   -1.912140    0.343508
     18          6           0        1.955951   -0.389303    3.126070
     19          6           0       -4.659496   -2.128840   -0.989739
     20          6           0        2.064296   -1.905714    0.184744
     21          6           0        2.063305   -1.067006   -0.823158
     22          6           0       -3.437290   -1.518655   -1.607795
     23          6           0        2.934656   -0.703016   -1.924385
     24          6           0       -1.158381   -0.249097    3.860061
     25          6           0       -5.810768   -2.147709    1.265933
     26          6           0        2.419800    0.500115   -2.539079
     27          6           0        2.103067    1.076412    2.614627
     28          6           0        1.278250    0.893151   -1.794839
     29          6           0        4.198116   -1.425915   -2.208930
     30          6           0       -5.769208   -2.588616   -1.924415
     31          6           0        5.333035   -1.059859   -1.227495
     32          6           0        2.985050    1.148839   -3.712436
     33          6           0        0.343536    1.956720   -2.073522
     34          6           0        3.147576    2.011749    3.373559
     35          6           0       -0.765259    2.237981   -1.275979
     36          6           0       -6.800906   -3.256520   -1.531108
     37          6           0        6.523274   -1.961726   -1.378571
     38          6           0       -1.588552    3.499405   -1.251578
     39          6           0       -2.422837    3.363967   -0.177252
     40          6           0       -2.131392    2.069477    0.468297
     41          6           0       -1.292990    4.575919   -2.215620
     42          6           0       -3.401695    4.216350    0.407218
     43          6           0       -2.065968    5.711578   -2.415260
     44          1           0       -3.349766   -0.444229    1.186836
     45          1           0       -2.703145   -3.407933    1.407198
     46          1           0       -3.278559   -2.450149    2.538461
     47          1           0       -0.481272   -2.908030    0.111944
     48          1           0       -1.876058   -0.332300   -0.524023
     49          1           0        1.944518   -0.286786    4.246435
     50          1           0        2.965963   -0.840858    3.084280
     51          1           0        2.887159   -2.714619    0.382513
     52          1           0       -1.683467   -0.992525    4.486509
     53          1           0       -0.398344    0.112584    4.526740
     54          1           0       -1.655648    0.726963    3.402307
     55          1           0       -5.699780   -1.460366    2.190941
     56          1           0       -5.631802   -3.099500    1.728641
     57          1           0       -6.723153   -2.091765    0.637503
     58          1           0        2.363773    1.209247    1.520533
     59          1           0        1.043940    1.427584    2.708410
     60          1           0        0.188733    0.123309   -0.300844
     61          1           0        4.521069   -1.256709   -3.272252
     62          1           0        3.933400   -2.522572   -1.956569
     63          1           0       -5.829614   -2.267395   -2.841132
     64          1           0        5.006599   -0.897670   -0.003970
     65          1           0        5.588327    0.001041   -1.421598
     66          1           0        3.832665    0.826942   -4.301326
     67          1           0        2.914133    2.329128   -3.511356
     68          1           0        2.158295    1.079777   -4.591886
     69          1           0        0.347250    2.486015   -3.124050
     70          1           0       -6.813467   -3.924767   -0.510710
     71          1           0       -7.742584   -3.367925   -2.193130
     72          1           0        3.836514    3.544417    3.819605
     73          1           0       -0.416895    4.359163   -2.882416
     74          1           0       -4.253524    4.454480   -0.218740
     75          1           0       -3.997431    3.650992    1.142545
     76          1           0       -2.818603    5.112410    0.771267
     77          1           0        8.315078   -2.229875   -0.833314
     78          1           0       -1.652657    6.483083   -3.206914
     79          1           0       -2.902117    5.966194   -1.725249
 ---------------------------------------------------------------------

 SCF Done:  E(RB3LYP) =  -1947.85223858     A.U. after   19 cycles

 Excitation energies and oscillator strengths:

 Excited State   1:      Singlet-A      0.8765 eV 1414.51 nm  f=0.0023  <S**2>=0.000
     155 ->156         0.70461
 This state for optimization and/or second-order correction.
 Total Energy, E(TD-HF/TD-DFT) =  -1947.82002726
 Copying the excited state density for this state as the 1-particle RhoCI density.

 The electronic state is 1-A.
 Alpha  occ. eigenvalues --  -19.21135 -19.19810 -19.13432 -19.12430 -19.11325
 Alpha  occ. eigenvalues --  -19.07933 -14.38097 -14.37740 -14.31283 -14.30442
 Alpha  occ. eigenvalues --  -10.33648 -10.32282 -10.27518 -10.27201 -10.26098
 Alpha  occ. eigenvalues --  -10.25706 -10.25154 -10.24459 -10.24132 -10.23912
 Alpha  occ. eigenvalues --  -10.23773 -10.23507 -10.23297 -10.21985 -10.21878
 Alpha  occ. eigenvalues --  -10.21807 -10.21565 -10.21032 -10.20460 -10.20184
 Alpha  occ. eigenvalues --  -10.20086 -10.19979 -10.19581 -10.19374 -10.18994
 Alpha  occ. eigenvalues --  -10.18831 -10.18679 -10.18405 -10.17686 -10.17677
 Alpha  occ. eigenvalues --  -10.17585 -10.17508 -10.17136  -1.11597  -1.11488
 Alpha  occ. eigenvalues --   -1.01240  -1.00524  -1.00106  -0.99380  -0.99278
 Alpha  occ. eigenvalues --   -0.97787  -0.93384  -0.90684  -0.84446  -0.83302
 Alpha  occ. eigenvalues --   -0.81048  -0.80967  -0.79536  -0.79071  -0.78333
 Alpha  occ. eigenvalues --   -0.77321  -0.75590  -0.74989  -0.74072  -0.73706
 Alpha  occ. eigenvalues --   -0.70426  -0.70234  -0.69775  -0.68152  -0.67627
 Alpha  occ. eigenvalues --   -0.66503  -0.65797  -0.62955  -0.62154  -0.60779
 Alpha  occ. eigenvalues --   -0.59470  -0.58317  -0.57503  -0.57281  -0.56777
 Alpha  occ. eigenvalues --   -0.56008  -0.55386  -0.54053  -0.53233  -0.52988
 Alpha  occ. eigenvalues --   -0.52191  -0.51945  -0.51405  -0.50651  -0.50570
 Alpha  occ. eigenvalues --   -0.49155  -0.49105  -0.48630  -0.48203  -0.48058
 Alpha  occ. eigenvalues --   -0.47839  -0.47024  -0.46740  -0.46145  -0.46067
 Alpha  occ. eigenvalues --   -0.45427  -0.45107  -0.44745  -0.44295  -0.43658
 Alpha  occ. eigenvalues --   -0.43611  -0.43317  -0.42950  -0.42784  -0.42325
 Alpha  occ. eigenvalues --   -0.41654  -0.41580  -0.41171  -0.41090  -0.40551
 Alpha  occ. eigenvalues --   -0.40358  -0.40215  -0.39990  -0.39908  -0.39229
 Alpha  occ. eigenvalues --   -0.39105  -0.38673  -0.38436  -0.38096  -0.37728
 Alpha  occ. eigenvalues --   -0.37545  -0.37287  -0.37110  -0.36369  -0.36307
 Alpha  occ. eigenvalues --   -0.35857  -0.35356  -0.34900  -0.34769  -0.34569
 Alpha  occ. eigenvalues --   -0.34016  -0.33088  -0.32647  -0.32329  -0.32188
 Alpha  occ. eigenvalues --   -0.30825  -0.29347  -0.29336  -0.29119  -0.28100
 Alpha  occ. eigenvalues --   -0.27734  -0.26599  -0.25673  -0.23859  -0.23606
 Alpha  occ. eigenvalues --   -0.23456  -0.22857  -0.22458  -0.21882  -0.18849
 Alpha virt. eigenvalues --   -0.13001  -0.08146  -0.03018  -0.02714  -0.02357
 Alpha virt. eigenvalues --    0.00073   0.01033   0.01597   0.02060   0.02627
 Alpha virt. eigenvalues --    0.02960   0.03245   0.04447   0.04876   0.05028

 Mulliken charges:
               1
     1  O   -0.224019
     2  O   -0.166704
     3  O   -0.289524
     4  O   -0.158543
     5  O   -0.254026
     6  O   -0.252055
     7  N   -0.010316
     8  N   -0.356640
     9  N   -0.121500
    10  N   -0.311525
    11  C    0.186448
    12  C    0.252464
    13  C   -0.077091
    14  C   -0.153916
    15  C   -0.018033
    16  C   -0.078494
    17  C   -0.279047
    18  C    0.061405
    19  C   -0.051691
    20  C   -0.184617
    21  C    0.251574
    22  C    0.155208
    23  C   -0.089622
    24  C    0.099802
    25  C    0.074399
    26  C   -0.086717
    27  C   -0.076223
    28  C    0.123253
    29  C    0.103092
    30  C    0.100320
    31  C   -0.089331
    32  C    0.020628
    33  C   -0.133016
    34  C    0.152336
    35  C    0.086267
    36  C   -0.105805
    37  C    0.157581
    38  C    0.069537
    39  C   -0.216468
    40  C    0.174243
    41  C   -0.039663
    42  C    0.098847
    43  C   -0.047563
    44  H    0.006938
    45  H   -0.025408
    46  H   -0.047356
    47  H    0.138130
    48  H    0.193071
    49  H    0.016593
    50  H   -0.009488
    51  H    0.052881
    52  H    0.007019
    53  H   -0.028332
    54  H    0.087942
    55  H    0.020729
    56  H    0.011631
    57  H    0.053775
    58  H    0.033824
    59  H    0.045830
    60  H    0.172523
    61  H    0.033827
    62  H    0.046850
    63  H   -0.058391
    64  H    0.094127
    65  H    0.032141
    66  H    0.031589
    67  H    0.047374
    68  H    0.047053
    69  H    0.038808
    70  H    0.043485
    71  H    0.029964
    72  H    0.220151
    73  H   -0.001001
    74  H    0.019221
    75  H    0.018005
    76  H    0.048995
    77  H    0.195290
    78  H    0.048611
    79  H    0.038342
 Sum of Mulliken charges =  -0.00000

 Dipole moment (field-independent basis, Debye):
    X=              4.7922    Y=              3.1440    Z=             -1.6201  Tot=              5.9561
 Quadrupole moment (field-independent basis, Debye-Ang):
   XX=           -232.8920   YY=           -241.2172   ZZ=           -262.7614
   XY=              5.3994   XZ=            -20.4859   YZ=            -13.3144

 Normal termination of Gaussian 16 at Sat Jul 27 09:25:33 2019.
