 Gaussian 16, Revision A.03,
 Gaussian 16:  ES64L-G16RevA.03 25-Dec-2016

 --------------------------
 # td=(NStates=1) B3LYP/SVP
 --------------------------

 --
 TD
 --
 Symbolic Z-matrix:
 Charge =  0 Multiplicity = 1

                         Standard orientation:
 ---------------------------------------------------------------------
 Center     Atomic      Atomic             Coordinates (Angstroms)
 Number     Number       Type             X           Y           Z
 ---------------------------------------------------------------------
      1          8           0        5.610414   -0.094073   -3.364895
      2          8           0       -2.700610   -3.112308    2.994082
      3          8           0       -3.174498   -0.792315    3.164480
      4          8           0       -2.214338    7.036348    1.396873
      5          8           0       -1.444696    7.036862   -0.736222
      6          8           0       -1.404185   -3.924220    0.134089
      7          7           0        2.280004    1.153372    0.387623
      8          7           0        4.484788   -0.455946   -1.261115
      9          7           0       -1.924317    0.598504   -0.330672
     10          7           0       -2.388754   -1.927533   -0.618081
     11          6           0        4.856832   -0.920776    0.030248
     12          6           0        4.426312    0.072034    1.221033
     13          6           0        2.941295    0.308631    1.294832
     14          6           0        1.981071   -0.243594    2.158061
     15          6           0        0.630440    0.222550    1.821623
     16          6           0        0.920837    1.050053    0.653450
     17          6           0        6.453724   -1.049425   -0.065583
     18          6           0       -0.527081   -0.063679    2.612167
     19          6           0        6.788317   -0.788009   -1.310111
     20          6           0        0.077356    1.952946    0.011908
     21          6           0       -1.298892    1.776324   -0.390732
     22          6           0        5.590429   -0.322873   -2.123430
     23          6           0       -2.154160    2.718090   -1.064778
     24          6           0        2.360925   -1.093490    3.313406
     25          6           0        7.223671   -1.561844    1.018768
     26          6           0       -3.385468    2.138913   -1.304711
     27          6           0       -0.969479   -1.558302    2.511406
     28          6           0       -3.129563    0.771634   -1.039091
     29          6           0       -1.915455    4.201582   -1.035335
     30          6           0        8.052991   -0.711477   -2.000253
     31          6           0       -2.112060    4.818164    0.330895
     32          6           0       -4.503076    2.811384   -1.928398
     33          6           0       -4.069745   -0.334941   -1.320122
     34          6           0       -2.409066   -1.767921    3.018343
     35          6           0       -3.668898   -1.673814   -1.134775
     36          6           0        9.212790   -0.613591   -1.338233
     37          6           0       -1.895544    6.398944    0.257236
     38          6           0       -4.381078   -2.939555   -1.467105
     39          6           0       -3.645501   -3.985219   -0.925374
     40          6           0       -2.380431   -3.406329   -0.488216
     41          6           0       -5.775887   -2.910933   -1.972355
     42          6           0       -3.918458   -5.467028   -0.925771
     43          6           0       -6.512976   -3.907997   -2.281200
     44          1           0        4.455981   -1.731606    0.297761
     45          1           0        5.014322    1.121809    0.973606
     46          1           0        4.725811   -0.279375    2.001434
     47          1           0        2.713260    1.362541   -0.487161
     48          1           0        3.536808   -0.520674   -1.529355
     49          1           0       -0.410917    0.258017    3.643091
     50          1           0       -1.492779    0.538783    2.353273
     51          1           0        0.529831    2.837376   -0.224809
     52          1           0        3.526005   -1.202687    3.454793
     53          1           0        1.695215   -0.862736    4.252512
     54          1           0        2.136550   -2.190919    3.022115
     55          1           0        6.702942   -2.429077    1.732704
     56          1           0        7.717564   -0.761129    1.741943
     57          1           0        8.236929   -2.036921    0.425605
     58          1           0       -0.785827   -1.745963    1.377047
     59          1           0       -0.326951   -2.219888    3.079224
     60          1           0       -1.772492   -0.544231   -0.223370
     61          1           0       -2.618523    4.527522   -1.637805
     62          1           0       -0.933443    4.484802   -1.341865
     63          1           0        7.950498   -0.978996   -3.136764
     64          1           0       -1.311367    4.433201    1.032176
     65          1           0       -3.185723    4.449786    0.795739
     66          1           0       -4.689000    3.909007   -1.832716
     67          1           0       -5.421598    2.516655   -1.265520
     68          1           0       -4.534370    2.521852   -3.164243
     69          1           0       -5.123106   -0.016945   -1.652238
     70          1           0        9.117266   -0.185565   -0.208067
     71          1           0       10.234552   -0.724529   -1.786627
     72          1           0       -3.763479   -3.052544    3.140494
     73          1           0       -6.358425   -1.944187   -1.643997
     74          1           0       -4.708453   -5.680323   -0.267625
     75          1           0       -3.964572   -5.685307   -2.021499
     76          1           0       -3.127581   -5.876134   -0.251019
     77          1           0       -1.903255    7.955406    1.570472
     78          1           0       -7.457107   -3.734484   -2.751024
     79          1           0       -6.128323   -4.816388   -2.246638
 ---------------------------------------------------------------------

 SCF Done:  E(RB3LYP) =  -1947.78133270     A.U. after   19 cycles

 Excitation energies and oscillator strengths:

 Excited State   1:      Singlet-A      1.8956 eV  654.05 nm  f=0.4028  <S**2>=0.000
     154 ->156         0.12634
     155 ->156         0.69718
     155 <-156        -0.14000
 This state for optimization and/or second-order correction.
 Total Energy, E(TD-HF/TD-DFT) =  -1947.71166932
 Copying the excited state density for this state as the 1-particle RhoCI density.

 The electronic state is 1-A.
 Alpha  occ. eigenvalues --  -19.19164 -19.18798 -19.12767 -19.12765 -19.11091
 Alpha  occ. eigenvalues --  -19.09449 -14.38683 -14.36603 -14.34852 -14.29135
 Alpha  occ. eigenvalues --  -10.33551 -10.31937 -10.29897 -10.26264 -10.24309
 Alpha  occ. eigenvalues --  -10.24026 -10.23870 -10.23849 -10.23742 -10.23533
 Alpha  occ. eigenvalues --  -10.23078 -10.22685 -10.22328 -10.22148 -10.21592
 Alpha  occ. eigenvalues --  -10.21583 -10.21308 -10.21300 -10.20956 -10.20863
 Alpha  occ. eigenvalues --  -10.20551 -10.20407 -10.20046 -10.20041 -10.19974
 Alpha  occ. eigenvalues --  -10.19911 -10.19911 -10.19828 -10.19400 -10.19217
 Alpha  occ. eigenvalues --  -10.19019 -10.18498 -10.17480  -1.08603  -1.06918
 Alpha  occ. eigenvalues --   -1.01087  -0.98919  -0.98472  -0.98391  -0.97943
 Alpha  occ. eigenvalues --   -0.97337  -0.94704  -0.89028  -0.83810  -0.82875
 Alpha  occ. eigenvalues --   -0.82087  -0.81677  -0.80544  -0.79461  -0.77556
 Alpha  occ. eigenvalues --   -0.77176  -0.76325  -0.75684  -0.74208  -0.71813
 Alpha  occ. eigenvalues --   -0.71506  -0.70739  -0.69920  -0.68758  -0.68220
 Alpha  occ. eigenvalues --   -0.67167  -0.66567  -0.63637  -0.61832  -0.61581
 Alpha  occ. eigenvalues --   -0.60709  -0.59000  -0.58322  -0.56941  -0.56451
 Alpha  occ. eigenvalues --   -0.55634  -0.55212  -0.54901  -0.53816  -0.52720
 Alpha  occ. eigenvalues --   -0.52363  -0.51319  -0.50392  -0.50078  -0.49304
 Alpha  occ. eigenvalues --   -0.49048  -0.48650  -0.48228  -0.48056  -0.47569
 Alpha  occ. eigenvalues --   -0.47187  -0.46983  -0.46771  -0.45942  -0.45727
 Alpha  occ. eigenvalues --   -0.45025  -0.44781  -0.44641  -0.44264  -0.44050
 Alpha  occ. eigenvalues --   -0.43427  -0.43066  -0.42896  -0.42675  -0.42285
 Alpha  occ. eigenvalues --   -0.41972  -0.41781  -0.41367  -0.41029  -0.40858
 Alpha  occ. eigenvalues --   -0.40707  -0.40260  -0.39918  -0.39740  -0.39502
 Alpha  occ. eigenvalues --   -0.38980  -0.38793  -0.38482  -0.38056  -0.37846
 Alpha  occ. eigenvalues --   -0.37550  -0.37490  -0.37150  -0.36987  -0.36662
 Alpha  occ. eigenvalues --   -0.36114  -0.35654  -0.35166  -0.34765  -0.33803
 Alpha  occ. eigenvalues --   -0.33630  -0.32483  -0.32140  -0.31876  -0.31537
 Alpha  occ. eigenvalues --   -0.31179  -0.30057  -0.28190  -0.28066  -0.27868
 Alpha  occ. eigenvalues --   -0.27623  -0.27123  -0.26279  -0.25332  -0.25151
 Alpha  occ. eigenvalues --   -0.24951  -0.23797  -0.23385  -0.21973  -0.18254
 Alpha virt. eigenvalues --   -0.10985  -0.06844  -0.05889  -0.01588  -0.00872
 Alpha virt. eigenvalues --   -0.00614  -0.00167   0.00555   0.02293   0.02669
 Alpha virt. eigenvalues --    0.02785   0.03508   0.03631   0.04223   0.04768

 Mulliken charges:
               1
     1  O   -0.258020
     2  O   -0.218990
     3  O   -0.263286
     4  O   -0.195933
     5  O   -0.269354
     6  O   -0.258696
     7  N   -0.083981
     8  N   -0.191947
     9  N   -0.121482
    10  N   -0.389531
    11  C    0.164927
    12  C    0.290547
    13  C   -0.103437
    14  C   -0.129557
    15  C   -0.015512
    16  C    0.087159
    17  C   -0.088226
    18  C    0.039679
    19  C   -0.065980
    20  C   -0.068857
    21  C    0.070774
    22  C    0.205384
    23  C   -0.112875
    24  C    0.019372
    25  C   -0.100749
    26  C   -0.093751
    27  C   -0.050957
    28  C    0.055503
    29  C    0.229464
    30  C    0.003287
    31  C   -0.085795
    32  C   -0.003341
    33  C   -0.119630
    34  C    0.196326
    35  C    0.113831
    36  C   -0.087180
    37  C    0.180866
    38  C    0.045127
    39  C   -0.250054
    40  C    0.205390
    41  C   -0.056356
    42  C    0.156525
    43  C    0.047088
    44  H   -0.061359
    45  H    0.022354
    46  H   -0.136658
    47  H    0.114712
    48  H    0.119630
    49  H    0.001400
    50  H    0.040695
    51  H   -0.045888
    52  H    0.022451
    53  H    0.047412
    54  H    0.042097
    55  H    0.057003
    56  H    0.067515
    57  H    0.069420
    58  H    0.111089
    59  H    0.017165
    60  H    0.220410
    61  H   -0.047008
    62  H    0.003128
    63  H    0.049876
    64  H    0.046497
    65  H    0.064346
    66  H    0.029944
    67  H    0.033921
    68  H    0.072981
    69  H    0.002143
    70  H    0.050425
    71  H    0.044328
    72  H    0.215523
    73  H    0.028799
    74  H    0.000109
    75  H    0.069103
    76  H    0.019119
    77  H    0.204373
    78  H    0.018787
    79  H   -0.043616
 Sum of Mulliken charges =  -0.00000

 Dipole moment (field-independent basis, Debye):
    X=              0.2897    Y=              1.2592    Z=              4.3929  Tot=              4.5790
 Quadrupole moment (field-independent basis, Debye-Ang):
   XX=           -215.7901   YY=           -249.8994   ZZ=           -264.0627
   XY=             -2.3374   XZ=             27.6547   YZ=             10.4948

 Normal termination of Gaussian 16 at Wed Sep 25 15:57:53 2019.
