 Gaussian 16, Revision A.03,
 Gaussian 16:  ES64L-G16RevA.03 25-Dec-2016

 --------------------------
 # td=(NStates=1) B3LYP/SVP
 --------------------------

 --
 TD
 --
 Symbolic Z-matrix:
 Charge =  0 Multiplicity = 1

                         Standard orientation:
 ---------------------------------------------------------------------
 Center     Atomic      Atomic             Coordinates (Angstroms)
 Number     Number       Type             X           Y           Z
 ---------------------------------------------------------------------
      1          8           0        5.348051    0.018070   -3.226024
      2          8           0       -3.056984   -3.057411    2.853037
      3          8           0       -3.229561   -0.763249    3.066727
      4          8           0       -1.691429    6.988950    1.690938
      5          8           0       -1.160480    7.115903   -0.577749
      6          8           0       -1.643493   -3.962214    0.082002
      7          7           0        2.262864    1.136754    0.702657
      8          7           0        4.437230   -0.448641   -1.242453
      9          7           0       -1.862219    0.722454   -0.428729
     10          7           0       -2.489019   -1.914135   -0.662604
     11          6           0        4.761783   -1.045746    0.034613
     12          6           0        4.435701   -0.143957    1.227824
     13          6           0        2.920678    0.072526    1.382389
     14          6           0        2.018861   -0.592096    2.109694
     15          6           0        0.706075    0.008642    1.747039
     16          6           0        0.937002    1.023458    0.835357
     17          6           0        6.330461   -1.218895   -0.102626
     18          6           0       -0.594650   -0.248493    2.463073
     19          6           0        6.731063   -0.838874   -1.368608
     20          6           0        0.144865    1.996527    0.127846
     21          6           0       -1.086751    1.877536   -0.385660
     22          6           0        5.553469   -0.367724   -2.076801
     23          6           0       -1.955252    2.908667   -0.968856
     24          6           0        2.164189   -1.731628    3.034636
     25          6           0        7.046724   -1.803698    1.019656
     26          6           0       -3.156458    2.328500   -1.375484
     27          6           0       -1.009221   -1.677596    2.416053
     28          6           0       -3.075260    0.976677   -1.034048
     29          6           0       -1.559836    4.367421   -0.939822
     30          6           0        8.078280   -0.897530   -1.977202
     31          6           0       -1.811457    5.073359    0.355373
     32          6           0       -4.439923    2.890638   -1.924490
     33          6           0       -3.965681   -0.151655   -1.267941
     34          6           0       -2.573335   -1.741695    2.834738
     35          6           0       -3.646081   -1.519710   -1.229222
     36          6           0        9.293939   -0.771810   -1.425538
     37          6           0       -1.521204    6.465931    0.399706
     38          6           0       -4.557847   -2.698728   -1.403941
     39          6           0       -3.834980   -3.780911   -0.981795
     40          6           0       -2.507005   -3.370515   -0.507367
     41          6           0       -5.838109   -2.591931   -1.974515
     42          6           0       -4.113569   -5.296069   -0.930088
     43          6           0       -6.739287   -3.596188   -2.299474
     44          1           0        4.277485   -2.050587   -0.004606
     45          1           0        5.025989    0.680609    1.145672
     46          1           0        4.767480   -0.657726    2.171886
     47          1           0        2.707411    1.548885   -0.148237
     48          1           0        3.601626   -0.280464   -1.685003
     49          1           0       -0.395604    0.127490    3.498687
     50          1           0       -1.481632    0.257292    1.866658
     51          1           0        0.674323    2.861874   -0.112926
     52          1           0        3.296862   -1.994665    3.223283
     53          1           0        1.593199   -1.603690    3.949726
     54          1           0        1.903313   -2.742408    2.679419
     55          1           0        6.502248   -2.603121    1.594021
     56          1           0        7.390455   -1.044290    1.586174
     57          1           0        7.962420   -2.607159    0.702179
     58          1           0       -1.082734   -2.233016    1.427754
     59          1           0       -0.594668   -2.458066    3.053822
     60          1           0       -1.440781   -0.255995   -0.206786
     61          1           0       -2.010279    4.864311   -1.723055
     62          1           0       -0.409458    4.215881   -1.079361
     63          1           0        7.922590   -0.709118   -3.004739
     64          1           0       -1.427686    4.594750    1.346979
     65          1           0       -2.842765    4.923801    0.546525
     66          1           0       -4.078458    3.854354   -1.933362
     67          1           0       -5.296120    2.889269   -1.166899
     68          1           0       -4.731490    2.451037   -2.962099
     69          1           0       -4.784821    0.162671   -1.779062
     70          1           0        9.345913   -0.843381   -0.371369
     71          1           0       10.200813   -0.716727   -2.069249
     72          1           0       -3.983098   -2.860137    2.976756
     73          1           0       -6.126550   -1.503985   -2.193825
     74          1           0       -5.013755   -5.454468   -0.283455
     75          1           0       -4.512304   -5.652462   -1.859364
     76          1           0       -3.297606   -5.827359   -0.731981
     77          1           0       -1.293767    7.997873    1.712082
     78          1           0       -7.668862   -3.394479   -2.756253
     79          1           0       -6.493617   -4.558811   -1.990642
 ---------------------------------------------------------------------

 SCF Done:  E(RB3LYP) =  -1947.91667355     A.U. after   17 cycles

 Excitation energies and oscillator strengths:

 Excited State   1:      Singlet-A      1.9460 eV  637.12 nm  f=0.3391  <S**2>=0.000
     154 ->156         0.13943
     155 ->156         0.68754
     155 <-156        -0.11360
 This state for optimization and/or second-order correction.
 Total Energy, E(TD-HF/TD-DFT) =  -1947.84515934
 Copying the excited state density for this state as the 1-particle RhoCI density.

 The electronic state is 1-A.
 Alpha  occ. eigenvalues --  -19.19041 -19.16564 -19.13622 -19.12180 -19.10924
 Alpha  occ. eigenvalues --  -19.09351 -14.37619 -14.36398 -14.34080 -14.28002
 Alpha  occ. eigenvalues --  -10.32777 -10.30570 -10.28137 -10.26169 -10.25275
 Alpha  occ. eigenvalues --  -10.24569 -10.23957 -10.23074 -10.23022 -10.22711
 Alpha  occ. eigenvalues --  -10.22512 -10.22247 -10.21949 -10.21625 -10.21581
 Alpha  occ. eigenvalues --  -10.21520 -10.21494 -10.21258 -10.21125 -10.21016
 Alpha  occ. eigenvalues --  -10.20669 -10.20143 -10.20139 -10.20014 -10.20011
 Alpha  occ. eigenvalues --  -10.19639 -10.19534 -10.19242 -10.19239 -10.19209
 Alpha  occ. eigenvalues --  -10.18570 -10.18504 -10.17960  -1.07543  -1.07481
 Alpha  occ. eigenvalues --   -1.02337  -1.02116  -0.99797  -0.99722  -0.98736
 Alpha  occ. eigenvalues --   -0.97765  -0.93278  -0.90568  -0.83726  -0.82807
 Alpha  occ. eigenvalues --   -0.82495  -0.81255  -0.80048  -0.79948  -0.78920
 Alpha  occ. eigenvalues --   -0.77553  -0.76144  -0.75715  -0.74410  -0.73008
 Alpha  occ. eigenvalues --   -0.72761  -0.71563  -0.69937  -0.69658  -0.69069
 Alpha  occ. eigenvalues --   -0.66325  -0.65739  -0.64357  -0.61720  -0.61478
 Alpha  occ. eigenvalues --   -0.59098  -0.58803  -0.58595  -0.57155  -0.56906
 Alpha  occ. eigenvalues --   -0.56113  -0.55478  -0.54766  -0.53734  -0.53478
 Alpha  occ. eigenvalues --   -0.52147  -0.51792  -0.51493  -0.50988  -0.50511
 Alpha  occ. eigenvalues --   -0.49032  -0.48720  -0.48028  -0.47936  -0.47619
 Alpha  occ. eigenvalues --   -0.47322  -0.47186  -0.46931  -0.46211  -0.46057
 Alpha  occ. eigenvalues --   -0.45625  -0.45015  -0.44852  -0.44788  -0.44305
 Alpha  occ. eigenvalues --   -0.43773  -0.43533  -0.43296  -0.42994  -0.42613
 Alpha  occ. eigenvalues --   -0.42219  -0.42088  -0.42002  -0.41888  -0.41630
 Alpha  occ. eigenvalues --   -0.41461  -0.41285  -0.40600  -0.40301  -0.40112
 Alpha  occ. eigenvalues --   -0.39553  -0.39283  -0.38968  -0.38940  -0.38552
 Alpha  occ. eigenvalues --   -0.38340  -0.38301  -0.37820  -0.37542  -0.36955
 Alpha  occ. eigenvalues --   -0.36505  -0.36407  -0.35982  -0.35201  -0.34784
 Alpha  occ. eigenvalues --   -0.33838  -0.33363  -0.32758  -0.32417  -0.32049
 Alpha  occ. eigenvalues --   -0.31309  -0.31188  -0.28964  -0.28941  -0.27247
 Alpha  occ. eigenvalues --   -0.26682  -0.26219  -0.25699  -0.25372  -0.24936
 Alpha  occ. eigenvalues --   -0.24606  -0.23668  -0.23285  -0.21913  -0.19088
 Alpha virt. eigenvalues --   -0.11199  -0.07109  -0.06473  -0.01627  -0.00555
 Alpha virt. eigenvalues --    0.00351   0.01413   0.01924   0.02321   0.02957
 Alpha virt. eigenvalues --    0.03515   0.03751   0.04449   0.05083   0.05253

 Mulliken charges:
               1
     1  O   -0.241177
     2  O   -0.199081
     3  O   -0.221439
     4  O   -0.286389
     5  O   -0.232156
     6  O   -0.183036
     7  N   -0.096907
     8  N   -0.190044
     9  N   -0.132546
    10  N   -0.343358
    11  C    0.097867
    12  C    0.245569
    13  C   -0.093698
    14  C   -0.075504
    15  C   -0.132515
    16  C    0.075270
    17  C   -0.201791
    18  C    0.084989
    19  C   -0.030334
    20  C   -0.084755
    21  C    0.130523
    22  C    0.123654
    23  C   -0.135568
    24  C    0.078560
    25  C    0.056560
    26  C   -0.132401
    27  C   -0.059712
    28  C    0.069149
    29  C    0.137952
    30  C    0.015723
    31  C    0.025927
    32  C    0.117226
    33  C   -0.009438
    34  C    0.134763
    35  C    0.098727
    36  C    0.001616
    37  C    0.168883
    38  C    0.090098
    39  C   -0.243599
    40  C    0.174673
    41  C   -0.093604
    42  C    0.189636
    43  C    0.038801
    44  H    0.031656
    45  H   -0.045351
    46  H    0.005905
    47  H    0.125820
    48  H    0.096453
    49  H    0.026399
    50  H    0.049262
    51  H   -0.041891
    52  H   -0.002565
    53  H    0.022373
    54  H    0.034989
    55  H    0.036086
    56  H    0.026238
    57  H    0.052566
    58  H    0.077358
    59  H    0.013884
    60  H    0.186522
    61  H    0.002076
    62  H    0.027072
    63  H   -0.007690
    64  H    0.056528
    65  H    0.021554
    66  H   -0.023621
    67  H    0.048927
    68  H    0.061408
    69  H   -0.077640
    70  H    0.001763
    71  H    0.044335
    72  H    0.156418
    73  H    0.003012
    74  H    0.023364
    75  H    0.003022
    76  H   -0.013154
    77  H    0.236088
    78  H    0.016839
    79  H   -0.013122
 Sum of Mulliken charges =  -0.00000

 Dipole moment (field-independent basis, Debye):
    X=              1.0130    Y=              1.7824    Z=              3.2432  Tot=              3.8368
 Quadrupole moment (field-independent basis, Debye-Ang):
   XX=           -215.5840   YY=           -246.9502   ZZ=           -266.4635
   XY=             -8.2075   XZ=             33.6059   YZ=              7.4251

 Normal termination of Gaussian 16 at Thu Sep 19 14:57:35 2019.
