 Gaussian 16, Revision A.03,
 Gaussian 16:  ES64L-G16RevA.03 25-Dec-2016

 --------------------------
 # td=(NStates=1) B3LYP/SVP
 --------------------------

 --
 TD
 --
 Symbolic Z-matrix:
 Charge =  0 Multiplicity = 1

                         Standard orientation:
 ---------------------------------------------------------------------
 Center     Atomic      Atomic             Coordinates (Angstroms)
 Number     Number       Type             X           Y           Z
 ---------------------------------------------------------------------
      1          8           0        5.132894    0.058191   -3.285103
      2          8           0       -2.736064   -2.991730    3.355715
      3          8           0       -3.273748   -0.755479    3.292007
      4          8           0       -2.195126    7.133587    1.434799
      5          8           0       -1.198944    7.107117   -0.544724
      6          8           0       -1.597116   -4.098149    0.235929
      7          7           0        2.325043    1.049282    0.657126
      8          7           0        4.316901   -0.437616   -1.184839
      9          7           0       -1.815488    0.589852   -0.410175
     10          7           0       -2.391379   -1.973159   -0.531307
     11          6           0        4.788819   -0.966451    0.052712
     12          6           0        4.552253    0.055009    1.329061
     13          6           0        2.949626    0.174270    1.413129
     14          6           0        2.026195   -0.448991    2.293730
     15          6           0        0.841738    0.134089    1.985470
     16          6           0        1.040661    1.133826    1.001556
     17          6           0        6.267548   -1.133966   -0.168965
     18          6           0       -0.485730   -0.062169    2.607908
     19          6           0        6.582878   -0.711636   -1.421049
     20          6           0        0.065230    2.014560    0.343902
     21          6           0       -1.141973    1.746238   -0.342241
     22          6           0        5.294852   -0.340756   -2.133627
     23          6           0       -2.006348    2.777721   -0.992312
     24          6           0        2.129770   -1.587754    3.230044
     25          6           0        7.200849   -1.637781    0.852361
     26          6           0       -3.134736    2.132264   -1.506284
     27          6           0       -1.040059   -1.541864    2.608797
     28          6           0       -2.952154    0.709563   -1.148342
     29          6           0       -1.717687    4.221015   -1.043174
     30          6           0        7.822707   -0.794669   -2.201195
     31          6           0       -2.060272    4.977891    0.280586
     32          6           0       -4.381252    2.808238   -2.151994
     33          6           0       -3.818695   -0.302695   -1.463214
     34          6           0       -2.456962   -1.681279    3.108244
     35          6           0       -3.481918   -1.622636   -1.152288
     36          6           0        9.113146   -0.649410   -1.773572
     37          6           0       -1.772499    6.473295    0.274504
     38          6           0       -4.375156   -2.802487   -1.505955
     39          6           0       -3.789359   -3.957340   -0.956305
     40          6           0       -2.535874   -3.401477   -0.233276
     41          6           0       -5.654495   -2.669826   -2.251430
     42          6           0       -4.001861   -5.400789   -1.050285
     43          6           0       -6.419586   -3.633822   -2.738855
     44          1           0        4.295344   -1.948615    0.324360
     45          1           0        4.936914    0.992121    1.176562
     46          1           0        4.939753   -0.462318    2.236644
     47          1           0        2.731556    1.637846   -0.156905
     48          1           0        3.488350   -0.689622   -1.430380
     49          1           0       -0.500975    0.352270    3.677526
     50          1           0       -1.334751    0.707230    2.290340
     51          1           0        0.512746    2.949640    0.085089
     52          1           0        3.129406   -1.686015    3.594898
     53          1           0        1.294454   -1.507229    4.062943
     54          1           0        2.039673   -2.663338    2.870947
     55          1           0        6.727816   -2.561963    1.469609
     56          1           0        7.510182   -0.949281    1.736522
     57          1           0        8.137711   -2.056020    0.399314
     58          1           0       -0.893773   -1.894911    1.602644
     59          1           0       -0.442996   -2.266475    3.311754
     60          1           0       -1.398856   -0.400080   -0.233011
     61          1           0       -2.187996    4.718650   -1.834282
     62          1           0       -0.718878    4.503713   -1.263886
     63          1           0        7.801070   -1.015831   -3.313356
     64          1           0       -1.363555    4.629628    1.075565
     65          1           0       -3.136552    4.845554    0.700617
     66          1           0       -4.327519    3.806054   -2.063411
     67          1           0       -5.325745    2.215935   -1.538268
     68          1           0       -4.287949    2.403046   -3.189542
     69          1           0       -4.708359   -0.048547   -2.013049
     70          1           0        9.566310   -0.589943   -0.949770
     71          1           0       10.059758   -0.720806   -2.400734
     72          1           0       -3.630477   -3.060650    3.734783
     73          1           0       -5.769237   -1.640464   -2.590124
     74          1           0       -5.150488   -5.719824   -0.898567
     75          1           0       -3.507792   -6.167830   -2.082552
     76          1           0       -3.575113   -6.032475   -0.151551
     77          1           0       -1.936374    8.089255    1.370168
     78          1           0       -7.326238   -3.322039   -3.532379
     79          1           0       -6.446055   -4.734545   -2.588992
 ---------------------------------------------------------------------

 SCF Done:  E(RB3LYP) =  -1947.86662141     A.U. after   16 cycles

 Excitation energies and oscillator strengths:

 Excited State   1:      Singlet-A      1.9645 eV  631.12 nm  f=0.3727  <S**2>=0.000
     153 ->156        -0.10667
     155 ->156         0.69764
     155 <-156        -0.10025
 This state for optimization and/or second-order correction.
 Total Energy, E(TD-HF/TD-DFT) =  -1947.79442688
 Copying the excited state density for this state as the 1-particle RhoCI density.

 The electronic state is 1-A.
 Alpha  occ. eigenvalues --  -19.17308 -19.17141 -19.13429 -19.11432 -19.11137
 Alpha  occ. eigenvalues --  -19.10439 -14.39496 -14.36831 -14.35032 -14.30024
 Alpha  occ. eigenvalues --  -10.32476 -10.31178 -10.28932 -10.27692 -10.25689
 Alpha  occ. eigenvalues --  -10.24753 -10.24609 -10.23465 -10.23065 -10.22570
 Alpha  occ. eigenvalues --  -10.22560 -10.22488 -10.22474 -10.22465 -10.22122
 Alpha  occ. eigenvalues --  -10.21793 -10.21662 -10.21551 -10.21494 -10.21431
 Alpha  occ. eigenvalues --  -10.21316 -10.21195 -10.20998 -10.20924 -10.20679
 Alpha  occ. eigenvalues --  -10.20568 -10.19828 -10.19515 -10.19364 -10.18979
 Alpha  occ. eigenvalues --  -10.18845 -10.18315 -10.17739  -1.09360  -1.07357
 Alpha  occ. eigenvalues --   -1.02856  -1.01040  -1.00149  -0.99624  -0.98993
 Alpha  occ. eigenvalues --   -0.97868  -0.95813  -0.91912  -0.83099  -0.82763
 Alpha  occ. eigenvalues --   -0.81695  -0.81105  -0.80096  -0.79008  -0.77607
 Alpha  occ. eigenvalues --   -0.77005  -0.75578  -0.75258  -0.74458  -0.72399
 Alpha  occ. eigenvalues --   -0.71871  -0.71083  -0.69645  -0.68829  -0.68519
 Alpha  occ. eigenvalues --   -0.67074  -0.66094  -0.63865  -0.63533  -0.60508
 Alpha  occ. eigenvalues --   -0.59150  -0.59026  -0.58725  -0.58178  -0.57748
 Alpha  occ. eigenvalues --   -0.56253  -0.56109  -0.55171  -0.54804  -0.53936
 Alpha  occ. eigenvalues --   -0.52404  -0.51976  -0.51488  -0.50155  -0.49472
 Alpha  occ. eigenvalues --   -0.48766  -0.48352  -0.47908  -0.47785  -0.47274
 Alpha  occ. eigenvalues --   -0.46968  -0.46768  -0.46546  -0.45969  -0.45462
 Alpha  occ. eigenvalues --   -0.45012  -0.44898  -0.44735  -0.44456  -0.44181
 Alpha  occ. eigenvalues --   -0.43541  -0.43365  -0.43222  -0.42384  -0.42296
 Alpha  occ. eigenvalues --   -0.41760  -0.41454  -0.41196  -0.41181  -0.40828
 Alpha  occ. eigenvalues --   -0.40723  -0.40564  -0.40101  -0.39860  -0.39815
 Alpha  occ. eigenvalues --   -0.39271  -0.39013  -0.38793  -0.38588  -0.38074
 Alpha  occ. eigenvalues --   -0.37907  -0.37322  -0.37261  -0.37231  -0.37113
 Alpha  occ. eigenvalues --   -0.36346  -0.35888  -0.35441  -0.35199  -0.34247
 Alpha  occ. eigenvalues --   -0.34128  -0.32882  -0.32445  -0.31551  -0.31278
 Alpha  occ. eigenvalues --   -0.31008  -0.30723  -0.28798  -0.28593  -0.27884
 Alpha  occ. eigenvalues --   -0.27356  -0.26640  -0.26039  -0.25895  -0.24897
 Alpha  occ. eigenvalues --   -0.24676  -0.24410  -0.23391  -0.22429  -0.18871
 Alpha virt. eigenvalues --   -0.11030  -0.06696  -0.06076  -0.00637  -0.00075
 Alpha virt. eigenvalues --    0.00220   0.00674   0.01688   0.02747   0.02981
 Alpha virt. eigenvalues --    0.03328   0.03447   0.04259   0.04718   0.05080

 Mulliken charges:
               1
     1  O   -0.221867
     2  O   -0.185453
     3  O   -0.263867
     4  O   -0.246241
     5  O   -0.194507
     6  O   -0.235045
     7  N    0.010855
     8  N   -0.080253
     9  N   -0.048636
    10  N   -0.297389
    11  C    0.006096
    12  C    0.249531
    13  C   -0.176931
    14  C   -0.082826
    15  C   -0.033467
    16  C   -0.017544
    17  C   -0.100270
    18  C   -0.031283
    19  C   -0.026575
    20  C   -0.082184
    21  C    0.081419
    22  C    0.125011
    23  C   -0.078041
    24  C    0.052321
    25  C    0.000099
    26  C   -0.164334
    27  C   -0.019524
    28  C    0.118027
    29  C    0.149811
    30  C   -0.006280
    31  C   -0.039927
    32  C    0.115229
    33  C   -0.140508
    34  C    0.163093
    35  C    0.116945
    36  C   -0.008663
    37  C    0.122195
    38  C    0.004891
    39  C   -0.117894
    40  C    0.191952
    41  C    0.058410
    42  C   -0.078919
    43  C   -0.090428
    44  H    0.038107
    45  H   -0.029050
    46  H    0.014597
    47  H    0.154047
    48  H    0.072296
    49  H    0.009898
    50  H    0.039944
    51  H   -0.028990
    52  H   -0.021981
    53  H    0.044519
    54  H    0.034569
    55  H    0.027452
    56  H    0.056617
    57  H    0.042080
    58  H    0.064755
    59  H    0.042665
    60  H    0.193950
    61  H   -0.013336
    62  H   -0.006180
    63  H    0.041430
    64  H    0.049888
    65  H    0.060508
    66  H   -0.000137
    67  H    0.066212
    68  H    0.048469
    69  H   -0.038715
    70  H   -0.069903
    71  H    0.018421
    72  H    0.179841
    73  H   -0.010556
    74  H    0.037110
    75  H    0.066477
    76  H    0.047864
    77  H    0.191434
    78  H    0.040252
    79  H    0.038421
 Sum of Mulliken charges =  -0.00000

 Dipole moment (field-independent basis, Debye):
    X=              0.8391    Y=              0.8559    Z=              2.0652  Tot=              2.3879
 Quadrupole moment (field-independent basis, Debye-Ang):
   XX=           -217.7415   YY=           -248.3346   ZZ=           -264.3788
   XY=             -5.8770   XZ=             33.2433   YZ=              1.8757

 Normal termination of Gaussian 16 at Thu Oct 10 03:53:56 2019.
