 Gaussian 16, Revision A.03,
 Gaussian 16:  ES64L-G16RevA.03 25-Dec-2016

 --------------------------
 # td=(NStates=1) B3LYP/SVP
 --------------------------

 --
 TD
 --
 Symbolic Z-matrix:
 Charge =  0 Multiplicity = 1

                         Standard orientation:
 ---------------------------------------------------------------------
 Center     Atomic      Atomic             Coordinates (Angstroms)
 Number     Number       Type             X           Y           Z
 ---------------------------------------------------------------------
      1          8           0       -3.315299   -1.387829   -2.819571
      2          8           0        2.930487    3.290172    3.348204
      3          8           0        3.846764    1.421002    4.216227
      4          8           0        7.879345   -1.537686   -0.970676
      5          8           0        6.562858   -3.289398   -1.801044
      6          8           0       -2.589156    1.665036    1.526727
      7          7           0       -0.155753   -2.339847    0.854555
      8          7           0       -2.692812   -1.139792   -0.624088
      9          7           0        1.111059    0.082341   -0.728242
     10          7           0       -1.137721    1.387638   -0.306917
     11          6           0       -3.400299   -1.421840    0.702651
     12          6           0       -2.556530   -2.479784    1.607858
     13          6           0       -1.103758   -2.056635    1.733310
     14          6           0       -0.519931   -1.223431    2.847350
     15          6           0        0.780825   -1.098413    2.508449
     16          6           0        1.064566   -1.848115    1.272751
     17          6           0       -4.697379   -1.987282    0.299047
     18          6           0        1.836585   -0.270545    3.233988
     19          6           0       -4.728570   -2.117539   -1.066963
     20          6           0        2.210992   -1.818917    0.271107
     21          6           0        2.189142   -0.764372   -0.580736
     22          6           0       -3.451328   -1.561090   -1.640786
     23          6           0        3.107848   -0.532837   -1.801653
     24          6           0       -1.381357   -0.572303    3.814455
     25          6           0       -5.774315   -2.362579    1.243275
     26          6           0        2.499239    0.525228   -2.403953
     27          6           0        1.816378    1.281472    2.921640
     28          6           0        1.337426    0.985343   -1.726737
     29          6           0        4.243744   -1.458646   -2.065223
     30          6           0       -5.806495   -2.595074   -1.930596
     31          6           0        5.589197   -1.117726   -1.248652
     32          6           0        2.929803    1.280223   -3.636691
     33          6           0        0.545672    1.988382   -2.042949
     34          6           0        2.946706    1.950055    3.546026
     35          6           0       -0.638325    2.238035   -1.317411
     36          6           0       -6.847635   -3.343721   -1.588854
     37          6           0        6.677781   -2.082084   -1.338211
     38          6           0       -1.420363    3.533348   -1.194516
     39          6           0       -2.377236    3.442507   -0.113864
     40          6           0       -2.044616    2.125458    0.435179
     41          6           0       -1.340650    4.562361   -2.283553
     42          6           0       -3.455817    4.367829    0.268245
     43          6           0       -2.029231    5.660990   -2.490584
     44          1           0       -3.574969   -0.535393    1.186214
     45          1           0       -2.615450   -3.340849    1.060275
     46          1           0       -3.023587   -2.549735    2.579487
     47          1           0       -0.199578   -2.950637    0.002650
     48          1           0       -2.118741   -0.305007   -0.595290
     49          1           0        1.310950   -0.585505    4.212277
     50          1           0        2.932793   -0.904038    2.973349
     51          1           0        2.909181   -2.622905    0.228598
     52          1           0       -1.991534   -1.147565    4.321582
     53          1           0       -0.872635   -0.067703    4.552565
     54          1           0       -1.885576    0.319894    3.316757
     55          1           0       -5.907260   -1.534386    2.093329
     56          1           0       -5.638771   -3.243423    1.784058
     57          1           0       -6.747813   -2.511400    0.737348
     58          1           0        1.861730    1.300483    1.796783
     59          1           0        0.792654    1.758660    2.993387
     60          1           0        0.292797    0.300425   -0.128547
     61          1           0        4.542914   -1.357208   -3.197805
     62          1           0        4.128782   -2.556299   -2.095492
     63          1           0       -5.705850   -2.283210   -2.915015
     64          1           0        5.268495   -1.154614   -0.401669
     65          1           0        6.077797   -0.263731   -1.419662
     66          1           0        4.336575    1.367305   -3.945622
     67          1           0        2.666053    2.574484   -3.537469
     68          1           0        2.245159    0.751207   -4.603839
     69          1           0        0.803152    2.763662   -2.863697
     70          1           0       -7.028745   -3.824820   -0.714723
     71          1           0       -7.551574   -3.614948   -2.509291
     72          1           0        3.497399    3.641466    3.984416
     73          1           0       -0.630053    4.194071   -3.178013
     74          1           0       -4.299004    4.415219   -0.633050
     75          1           0       -3.972505    4.258548    1.212225
     76          1           0       -3.224457    5.387037    0.431083
     77          1           0        8.495926   -2.511033   -1.053499
     78          1           0       -1.745375    6.272774   -3.386454
     79          1           0       -3.034705    5.966623   -2.053721
 ---------------------------------------------------------------------

 SCF Done:  E(RB3LYP) =  -1947.71976718     A.U. after   21 cycles

 Excitation energies and oscillator strengths:

 Excited State   1:      Singlet-A      0.5022 eV 2468.88 nm  f=0.0046  <S**2>=0.000
     155 ->156         0.70470
 This state for optimization and/or second-order correction.
 Total Energy, E(TD-HF/TD-DFT) =  -1947.70131212
 Copying the excited state density for this state as the 1-particle RhoCI density.

 The electronic state is 1-A.
 Alpha  occ. eigenvalues --  -19.21421 -19.17443 -19.13940 -19.12043 -19.12036
 Alpha  occ. eigenvalues --  -19.07145 -14.38064 -14.38007 -14.32269 -14.31947
 Alpha  occ. eigenvalues --  -10.33913 -10.31824 -10.28849 -10.27173 -10.26967
 Alpha  occ. eigenvalues --  -10.26395 -10.25891 -10.25407 -10.24160 -10.23665
 Alpha  occ. eigenvalues --  -10.23467 -10.23305 -10.22862 -10.22543 -10.22483
 Alpha  occ. eigenvalues --  -10.21980 -10.21347 -10.21260 -10.21226 -10.21038
 Alpha  occ. eigenvalues --  -10.20701 -10.20598 -10.20420 -10.20301 -10.19344
 Alpha  occ. eigenvalues --  -10.19294 -10.19185 -10.17626 -10.17523 -10.17360
 Alpha  occ. eigenvalues --  -10.17334 -10.16641 -10.15489  -1.09604  -1.08315
 Alpha  occ. eigenvalues --   -1.00852  -1.00783  -0.99589  -0.99098  -0.98011
 Alpha  occ. eigenvalues --   -0.97223  -0.92251  -0.91103  -0.84338  -0.83841
 Alpha  occ. eigenvalues --   -0.81344  -0.80699  -0.80383  -0.80242  -0.78583
 Alpha  occ. eigenvalues --   -0.77248  -0.76644  -0.76309  -0.74301  -0.72835
 Alpha  occ. eigenvalues --   -0.71326  -0.71033  -0.69545  -0.68593  -0.67879
 Alpha  occ. eigenvalues --   -0.67228  -0.66311  -0.63666  -0.61880  -0.60569
 Alpha  occ. eigenvalues --   -0.59887  -0.59472  -0.59069  -0.58230  -0.56523
 Alpha  occ. eigenvalues --   -0.55687  -0.55350  -0.54995  -0.53369  -0.52504
 Alpha  occ. eigenvalues --   -0.52118  -0.51930  -0.51631  -0.50815  -0.50271
 Alpha  occ. eigenvalues --   -0.49727  -0.49084  -0.48696  -0.48377  -0.47901
 Alpha  occ. eigenvalues --   -0.47541  -0.46989  -0.46610  -0.46473  -0.46303
 Alpha  occ. eigenvalues --   -0.45960  -0.45102  -0.44722  -0.44201  -0.43965
 Alpha  occ. eigenvalues --   -0.43677  -0.42962  -0.42806  -0.42381  -0.42229
 Alpha  occ. eigenvalues --   -0.41619  -0.41394  -0.41218  -0.40566  -0.40472
 Alpha  occ. eigenvalues --   -0.40239  -0.40040  -0.40022  -0.39910  -0.39745
 Alpha  occ. eigenvalues --   -0.39606  -0.39084  -0.38864  -0.38421  -0.38298
 Alpha  occ. eigenvalues --   -0.38250  -0.37609  -0.36749  -0.36553  -0.36204
 Alpha  occ. eigenvalues --   -0.35854  -0.35678  -0.35345  -0.34802  -0.34565
 Alpha  occ. eigenvalues --   -0.32767  -0.32408  -0.32374  -0.31842  -0.31589
 Alpha  occ. eigenvalues --   -0.31003  -0.29836  -0.29595  -0.29188  -0.29027
 Alpha  occ. eigenvalues --   -0.28011  -0.27639  -0.25948  -0.24580  -0.24111
 Alpha  occ. eigenvalues --   -0.23434  -0.23182  -0.22736  -0.22118  -0.17902
 Alpha virt. eigenvalues --   -0.13795  -0.08349  -0.03349  -0.02811  -0.02465
 Alpha virt. eigenvalues --   -0.00855  -0.00831  -0.00360   0.01753   0.02038
 Alpha virt. eigenvalues --    0.02692   0.03183   0.03525   0.04004   0.04394

 Mulliken charges:
               1
     1  O   -0.225300
     2  O   -0.156444
     3  O   -0.248514
     4  O   -0.262747
     5  O   -0.312682
     6  O   -0.277059
     7  N   -0.009218
     8  N   -0.200203
     9  N   -0.071689
    10  N   -0.354439
    11  C    0.094273
    12  C    0.310856
    13  C   -0.165588
    14  C   -0.135743
    15  C   -0.127194
    16  C   -0.063336
    17  C   -0.167976
    18  C   -0.005686
    19  C   -0.074934
    20  C   -0.109160
    21  C    0.134263
    22  C    0.126587
    23  C   -0.002235
    24  C    0.208542
    25  C    0.079124
    26  C   -0.066555
    27  C    0.003580
    28  C    0.185767
    29  C    0.001818
    30  C    0.030181
    31  C    0.248503
    32  C   -0.155545
    33  C   -0.136682
    34  C    0.157402
    35  C    0.109090
    36  C   -0.024509
    37  C    0.144976
    38  C   -0.005122
    39  C   -0.089890
    40  C    0.184332
    41  C   -0.032034
    42  C    0.061684
    43  C   -0.066563
    44  H    0.002232
    45  H   -0.064371
    46  H   -0.007547
    47  H    0.136151
    48  H    0.141536
    49  H    0.042855
    50  H    0.049324
    51  H    0.010013
    52  H   -0.040832
    53  H   -0.057294
    54  H    0.049377
    55  H    0.023681
    56  H    0.011073
    57  H    0.022683
    58  H    0.034029
    59  H    0.057492
    60  H    0.186586
    61  H    0.025324
    62  H    0.052850
    63  H   -0.024770
    64  H   -0.058261
    65  H    0.000336
    66  H    0.063023
    67  H    0.073884
    68  H    0.088736
    69  H    0.016372
    70  H   -0.016863
    71  H    0.029560
    72  H    0.151191
    73  H    0.034768
    74  H    0.058292
    75  H    0.020647
    76  H    0.015278
    77  H    0.258931
    78  H    0.035251
    79  H    0.044529
 Sum of Mulliken charges =  -0.00000

 Dipole moment (field-independent basis, Debye):
    X=              2.6280    Y=              3.6818    Z=             -1.0589  Tot=              4.6458
 Quadrupole moment (field-independent basis, Debye-Ang):
   XX=           -242.6960   YY=           -233.4168   ZZ=           -265.4043
   XY=             -2.6191   XZ=            -24.9723   YZ=            -13.4896

 Normal termination of Gaussian 16 at Thu Jul 25 23:24:39 2019.
