 Gaussian 16, Revision A.03,
 Gaussian 16:  ES64L-G16RevA.03 25-Dec-2016

 --------------------------
 # td=(NStates=1) B3LYP/SVP
 --------------------------

 --
 TD
 --
 Symbolic Z-matrix:
 Charge =  0 Multiplicity = 1

                         Standard orientation:
 ---------------------------------------------------------------------
 Center     Atomic      Atomic             Coordinates (Angstroms)
 Number     Number       Type             X           Y           Z
 ---------------------------------------------------------------------
      1          8           0        5.444150    0.007192   -3.219417
      2          8           0       -2.952568   -2.977155    3.161500
      3          8           0       -3.405713   -0.730706    3.087888
      4          8           0       -1.815750    7.117809    1.555435
      5          8           0       -1.041831    7.120319   -0.577601
      6          8           0       -1.703001   -4.053375   -0.049599
      7          7           0        2.409508    0.983568    0.701774
      8          7           0        4.441318   -0.546688   -1.226867
      9          7           0       -1.759087    0.642400   -0.493410
     10          7           0       -2.456999   -1.965507   -0.610629
     11          6           0        4.888983   -1.083974    0.018386
     12          6           0        4.461024   -0.255089    1.315375
     13          6           0        2.963622   -0.038452    1.349353
     14          6           0        1.862150   -0.653157    2.025810
     15          6           0        0.667660   -0.044834    1.706919
     16          6           0        1.015282    1.004153    0.801684
     17          6           0        6.364229   -1.229386   -0.054764
     18          6           0       -0.615301   -0.277966    2.443014
     19          6           0        6.691415   -0.828462   -1.359334
     20          6           0        0.166885    2.018668    0.151861
     21          6           0       -1.113736    1.863577   -0.363961
     22          6           0        5.518721   -0.451161   -2.097379
     23          6           0       -1.920215    2.832104   -0.848818
     24          6           0        2.046279   -1.749998    3.062373
     25          6           0        7.258054   -1.814326    0.966580
     26          6           0       -3.154050    2.252044   -1.189168
     27          6           0       -1.207131   -1.712102    2.532302
     28          6           0       -3.084273    0.880465   -0.980226
     29          6           0       -1.529909    4.330923   -0.961244
     30          6           0        8.027705   -0.698134   -1.988060
     31          6           0       -1.872420    5.090305    0.385341
     32          6           0       -4.321375    2.873475   -2.008525
     33          6           0       -3.977295   -0.205218   -1.245492
     34          6           0       -2.586969   -1.719052    2.895582
     35          6           0       -3.659207   -1.529031   -1.056109
     36          6           0        9.236270   -0.597741   -1.386917
     37          6           0       -1.555752    6.561335    0.346863
     38          6           0       -4.463702   -2.602851   -1.425947
     39          6           0       -3.892486   -3.722766   -1.073430
     40          6           0       -2.559899   -3.302666   -0.513017
     41          6           0       -5.794645   -2.479791   -2.024045
     42          6           0       -4.188389   -5.220733   -1.233404
     43          6           0       -6.688604   -3.484894   -2.436494
     44          1           0        4.336929   -2.026907   -0.008600
     45          1           0        4.751976    0.603232    1.431743
     46          1           0        4.824401   -0.987007    2.173352
     47          1           0        2.692884    1.862198    0.068392
     48          1           0        3.577660   -0.572331   -1.644651
     49          1           0       -0.497713    0.239540    3.372274
     50          1           0       -1.417329    0.405191    2.051065
     51          1           0        0.685419    2.863415   -0.261406
     52          1           0        3.032386   -2.092079    3.415245
     53          1           0        1.532236   -1.469210    4.048927
     54          1           0        1.172354   -2.536555    2.967945
     55          1           0        6.830429   -2.679110    1.482750
     56          1           0        7.469318   -1.058990    1.725765
     57          1           0        8.165072   -1.992402    0.484154
     58          1           0       -1.254372   -2.200413    1.542803
     59          1           0       -0.765109   -2.311631    3.503620
     60          1           0       -1.210369   -0.241383   -0.376147
     61          1           0       -1.958652    4.789236   -1.766695
     62          1           0       -0.483102    4.518416   -1.002862
     63          1           0        7.935086   -0.989283   -3.158899
     64          1           0       -1.430455    4.613019    1.379563
     65          1           0       -2.963663    5.083602    0.663148
     66          1           0       -4.389932    3.931602   -2.316116
     67          1           0       -5.253139    2.642823   -1.458654
     68          1           0       -4.436979    2.125370   -2.938000
     69          1           0       -4.860792    0.138061   -1.638179
     70          1           0        9.274751   -0.731393   -0.063863
     71          1           0       10.036977   -0.447042   -2.036501
     72          1           0       -3.934309   -3.127232    3.220276
     73          1           0       -6.110813   -1.580284   -2.103605
     74          1           0       -5.085032   -5.722932   -0.800405
     75          1           0       -4.021604   -5.280000   -2.357065
     76          1           0       -3.443452   -5.669492   -0.598565
     77          1           0       -1.258478    7.889960    1.428959
     78          1           0       -7.607769   -3.136461   -2.980554
     79          1           0       -6.477817   -4.554205   -2.241600
 ---------------------------------------------------------------------

 SCF Done:  E(RB3LYP) =  -1947.81963267     A.U. after   21 cycles

 Excitation energies and oscillator strengths:

 Excited State   1:      Singlet-A      1.9594 eV  632.76 nm  f=0.3253  <S**2>=0.000
     154 ->156         0.31888
     155 ->156         0.63372
     155 <-156        -0.12451
 This state for optimization and/or second-order correction.
 Total Energy, E(TD-HF/TD-DFT) =  -1947.74762533
 Copying the excited state density for this state as the 1-particle RhoCI density.

 The electronic state is 1-A.
 Alpha  occ. eigenvalues --  -19.19225 -19.17095 -19.14259 -19.10237 -19.09621
 Alpha  occ. eigenvalues --  -19.08723 -14.40897 -14.36046 -14.34788 -14.27179
 Alpha  occ. eigenvalues --  -10.32860 -10.30665 -10.27849 -10.25746 -10.25055
 Alpha  occ. eigenvalues --  -10.24680 -10.24318 -10.24308 -10.23332 -10.23265
 Alpha  occ. eigenvalues --  -10.23217 -10.22653 -10.22300 -10.21669 -10.21614
 Alpha  occ. eigenvalues --  -10.21548 -10.21519 -10.21325 -10.21053 -10.21023
 Alpha  occ. eigenvalues --  -10.20935 -10.20813 -10.20660 -10.20197 -10.20130
 Alpha  occ. eigenvalues --  -10.20047 -10.19357 -10.19353 -10.18529 -10.18445
 Alpha  occ. eigenvalues --  -10.18387 -10.17990 -10.17379  -1.11740  -1.07182
 Alpha  occ. eigenvalues --   -1.02937  -1.02808  -1.00425  -0.99890  -0.97447
 Alpha  occ. eigenvalues --   -0.95208  -0.94936  -0.92339  -0.83286  -0.82654
 Alpha  occ. eigenvalues --   -0.82177  -0.81627  -0.80472  -0.79587  -0.77803
 Alpha  occ. eigenvalues --   -0.77570  -0.77249  -0.76229  -0.74008  -0.73528
 Alpha  occ. eigenvalues --   -0.72769  -0.71328  -0.70038  -0.69366  -0.68870
 Alpha  occ. eigenvalues --   -0.68736  -0.67275  -0.64903  -0.61416  -0.60805
 Alpha  occ. eigenvalues --   -0.59306  -0.59124  -0.58827  -0.58526  -0.58105
 Alpha  occ. eigenvalues --   -0.56443  -0.55978  -0.55708  -0.54363  -0.53476
 Alpha  occ. eigenvalues --   -0.52229  -0.51751  -0.51402  -0.50622  -0.50561
 Alpha  occ. eigenvalues --   -0.49826  -0.49351  -0.48922  -0.48857  -0.48157
 Alpha  occ. eigenvalues --   -0.47759  -0.46924  -0.46827  -0.46086  -0.45562
 Alpha  occ. eigenvalues --   -0.45152  -0.44676  -0.44575  -0.44492  -0.43894
 Alpha  occ. eigenvalues --   -0.43716  -0.43343  -0.43304  -0.43029  -0.42414
 Alpha  occ. eigenvalues --   -0.42184  -0.41824  -0.41349  -0.41200  -0.41126
 Alpha  occ. eigenvalues --   -0.40903  -0.40826  -0.40602  -0.40292  -0.39849
 Alpha  occ. eigenvalues --   -0.39707  -0.39309  -0.39224  -0.39172  -0.38806
 Alpha  occ. eigenvalues --   -0.38664  -0.38113  -0.37863  -0.37463  -0.36899
 Alpha  occ. eigenvalues --   -0.36239  -0.35975  -0.35713  -0.35570  -0.34491
 Alpha  occ. eigenvalues --   -0.34195  -0.34069  -0.33568  -0.32672  -0.30878
 Alpha  occ. eigenvalues --   -0.30529  -0.29702  -0.29255  -0.27973  -0.26390
 Alpha  occ. eigenvalues --   -0.25996  -0.25661  -0.25506  -0.25319  -0.25239
 Alpha  occ. eigenvalues --   -0.24742  -0.23929  -0.22893  -0.21462  -0.19029
 Alpha virt. eigenvalues --   -0.11592  -0.06859  -0.06087  -0.00892  -0.00649
 Alpha virt. eigenvalues --   -0.00106   0.00225   0.00410   0.01554   0.02691
 Alpha virt. eigenvalues --    0.03720   0.03936   0.04386   0.05340   0.05405

 Mulliken charges:
               1
     1  O   -0.216494
     2  O   -0.194721
     3  O   -0.314809
     4  O   -0.169730
     5  O   -0.212629
     6  O   -0.233738
     7  N   -0.084958
     8  N   -0.175655
     9  N   -0.133187
    10  N   -0.251231
    11  C    0.099832
    12  C    0.317209
    13  C   -0.100397
    14  C   -0.125603
    15  C   -0.048089
    16  C   -0.038243
    17  C   -0.172455
    18  C    0.067322
    19  C   -0.084215
    20  C   -0.030686
    21  C    0.069917
    22  C    0.109129
    23  C   -0.092095
    24  C    0.064698
    25  C    0.155683
    26  C   -0.117614
    27  C    0.019417
    28  C    0.117344
    29  C    0.232116
    30  C   -0.042530
    31  C   -0.093011
    32  C    0.043566
    33  C   -0.097147
    34  C    0.131508
    35  C    0.176266
    36  C   -0.050675
    37  C    0.136252
    38  C    0.061268
    39  C   -0.231188
    40  C    0.102278
    41  C    0.044657
    42  C    0.079825
    43  C   -0.028132
    44  H    0.021666
    45  H   -0.100713
    46  H    0.025193
    47  H    0.172965
    48  H    0.102634
    49  H    0.004794
    50  H    0.017143
    51  H   -0.027964
    52  H    0.019928
    53  H   -0.000950
    54  H    0.035760
    55  H    0.032109
    56  H    0.027082
    57  H    0.015525
    58  H    0.087060
    59  H    0.067051
    60  H    0.164207
    61  H   -0.011500
    62  H   -0.010068
    63  H    0.057837
    64  H    0.064166
    65  H    0.042434
    66  H    0.034920
    67  H    0.024858
    68  H    0.046349
    69  H   -0.079579
    70  H    0.051254
    71  H    0.021226
    72  H    0.200744
    73  H   -0.108971
    74  H    0.030209
    75  H    0.054733
    76  H    0.016007
    77  H    0.162353
    78  H    0.029980
    79  H    0.020496
 Sum of Mulliken charges =  -0.00000

 Dipole moment (field-independent basis, Debye):
    X=              3.1945    Y=              2.6743    Z=              3.7983  Tot=              5.6377
 Quadrupole moment (field-independent basis, Debye-Ang):
   XX=           -224.8823   YY=           -251.8201   ZZ=           -263.7804
   XY=             -8.6423   XZ=             34.0437   YZ=              1.3388

 Normal termination of Gaussian 16 at Sun Sep 29 06:08:21 2019.
