 Gaussian 16, Revision A.03,
 Gaussian 16:  ES64L-G16RevA.03 25-Dec-2016

 --------------------------
 # td=(NStates=1) B3LYP/SVP
 --------------------------

 --
 TD
 --
 Symbolic Z-matrix:
 Charge =  0 Multiplicity = 1

                         Standard orientation:
 ---------------------------------------------------------------------
 Center     Atomic      Atomic             Coordinates (Angstroms)
 Number     Number       Type             X           Y           Z
 ---------------------------------------------------------------------
      1          8           0        5.566069    0.326772   -3.185362
      2          8           0       -3.172442   -2.978496    3.107712
      3          8           0       -3.335194   -0.752853    3.225083
      4          8           0       -1.105137    7.099183    1.693457
      5          8           0       -0.179672    7.107641   -0.359463
      6          8           0       -2.021609   -4.043738   -0.214326
      7          7           0        2.366553    0.740957    0.530606
      8          7           0        4.409424   -0.693547   -1.313676
      9          7           0       -1.908015    0.748169   -0.332435
     10          7           0       -2.696895   -1.730761   -0.598057
     11          6           0        4.812514   -1.400525   -0.133384
     12          6           0        4.296565   -0.558707    1.285808
     13          6           0        2.884705   -0.275845    1.277864
     14          6           0        1.878279   -0.761755    2.013524
     15          6           0        0.671498   -0.192179    1.749003
     16          6           0        1.024070    0.830148    0.781341
     17          6           0        6.236626   -1.527641   -0.174083
     18          6           0       -0.649516   -0.374197    2.426879
     19          6           0        6.768841   -0.920107   -1.293738
     20          6           0        0.224358    1.918303    0.200602
     21          6           0       -1.088383    1.847096   -0.220452
     22          6           0        5.527989   -0.345689   -2.080971
     23          6           0       -1.867769    2.877125   -0.859507
     24          6           0        2.042215   -1.935988    2.982489
     25          6           0        7.046631   -2.321324    0.814566
     26          6           0       -3.117220    2.381069   -1.312021
     27          6           0       -1.217267   -1.789914    2.464531
     28          6           0       -3.143336    1.023454   -0.986853
     29          6           0       -1.367880    4.373387   -0.792873
     30          6           0        8.020165   -0.889879   -1.915378
     31          6           0       -1.515877    5.078859    0.529374
     32          6           0       -4.075123    3.292774   -1.944815
     33          6           0       -4.135106    0.191262   -1.359373
     34          6           0       -2.707937   -1.809151    2.835315
     35          6           0       -3.867305   -1.264994   -1.142295
     36          6           0        9.189183   -0.988731   -1.272722
     37          6           0       -0.758995    6.543183    0.513486
     38          6           0       -4.684733   -2.306189   -1.522539
     39          6           0       -4.098831   -3.572032   -1.290437
     40          6           0       -2.857959   -3.139940   -0.632134
     41          6           0       -6.095953   -2.119677   -1.901888
     42          6           0       -4.642669   -4.950056   -1.356168
     43          6           0       -6.922289   -3.009156   -2.310683
     44          1           0        4.379780   -2.397704   -0.187689
     45          1           0        4.899222    0.460374    1.335981
     46          1           0        4.793411   -1.451462    2.084106
     47          1           0        3.103094    1.133581   -0.011360
     48          1           0        3.398338   -0.708199   -1.546566
     49          1           0       -0.354943   -0.165286    3.555978
     50          1           0       -1.390933    0.426617    2.006257
     51          1           0        0.705398    2.916097    0.298733
     52          1           0        3.274743   -2.111735    3.034350
     53          1           0        1.567215   -1.910210    3.920192
     54          1           0        1.897248   -2.899645    2.635591
     55          1           0        6.337391   -3.338648    1.239605
     56          1           0        7.434773   -1.542792    1.701163
     57          1           0        8.091454   -2.654012    0.349376
     58          1           0       -1.266055   -2.383215    1.564082
     59          1           0       -0.582784   -2.428605    3.110380
     60          1           0       -1.673023   -0.293265   -0.293245
     61          1           0       -1.862211    4.812470   -1.675516
     62          1           0       -0.269778    4.401081   -1.096312
     63          1           0        8.194999   -0.744014   -2.945565
     64          1           0       -1.084989    4.527778    1.384097
     65          1           0       -2.514491    5.191866    0.915003
     66          1           0       -3.849248    4.290702   -2.064420
     67          1           0       -5.034792    3.029349   -1.336160
     68          1           0       -4.353923    2.801822   -2.836515
     69          1           0       -5.111140    0.493864   -1.927477
     70          1           0        9.294961   -1.042706   -0.172710
     71          1           0       10.188872   -1.096879   -1.891486
     72          1           0       -4.082897   -2.959069    3.479932
     73          1           0       -6.425543   -1.002885   -1.669042
     74          1           0       -5.346853   -5.135805   -0.669980
     75          1           0       -5.141082   -5.203879   -2.359170
     76          1           0       -3.738746   -5.333773   -1.097665
     77          1           0       -0.891663    8.121668    1.724312
     78          1           0       -7.871167   -2.697466   -2.790873
     79          1           0       -6.785173   -4.045722   -2.144066
 ---------------------------------------------------------------------

 SCF Done:  E(RB3LYP) =  -1947.79754336     A.U. after   19 cycles

 Excitation energies and oscillator strengths:

 Excited State   1:      Singlet-A      1.8309 eV  677.19 nm  f=0.3671  <S**2>=0.000
     153 ->156         0.11148
     154 ->156         0.19027
     155 ->156         0.67430
     155 <-156        -0.11802
 This state for optimization and/or second-order correction.
 Total Energy, E(TD-HF/TD-DFT) =  -1947.73026019
 Copying the excited state density for this state as the 1-particle RhoCI density.

 The electronic state is 1-A.
 Alpha  occ. eigenvalues --  -19.18988 -19.18354 -19.14168 -19.11159 -19.10044
 Alpha  occ. eigenvalues --  -19.09676 -14.38555 -14.36830 -14.35626 -14.30270
 Alpha  occ. eigenvalues --  -10.33120 -10.30821 -10.29698 -10.27263 -10.25353
 Alpha  occ. eigenvalues --  -10.24953 -10.24741 -10.24527 -10.23994 -10.23896
 Alpha  occ. eigenvalues --  -10.23771 -10.22337 -10.22304 -10.21873 -10.21661
 Alpha  occ. eigenvalues --  -10.21266 -10.21136 -10.21130 -10.20903 -10.20546
 Alpha  occ. eigenvalues --  -10.20496 -10.20204 -10.20182 -10.20128 -10.19997
 Alpha  occ. eigenvalues --  -10.19676 -10.19545 -10.19133 -10.19120 -10.18907
 Alpha  occ. eigenvalues --  -10.18621 -10.18082 -10.17955  -1.09872  -1.09850
 Alpha  occ. eigenvalues --   -1.01598  -1.00252  -0.99180  -0.98557  -0.97051
 Alpha  occ. eigenvalues --   -0.95134  -0.93675  -0.91984  -0.82982  -0.82521
 Alpha  occ. eigenvalues --   -0.81924  -0.81605  -0.80882  -0.79689  -0.77810
 Alpha  occ. eigenvalues --   -0.77463  -0.76593  -0.76296  -0.74815  -0.72388
 Alpha  occ. eigenvalues --   -0.71372  -0.71109  -0.70217  -0.68989  -0.68478
 Alpha  occ. eigenvalues --   -0.67909  -0.66108  -0.64533  -0.62075  -0.61740
 Alpha  occ. eigenvalues --   -0.60674  -0.60020  -0.58279  -0.57398  -0.56858
 Alpha  occ. eigenvalues --   -0.55946  -0.55452  -0.55173  -0.53897  -0.53587
 Alpha  occ. eigenvalues --   -0.52364  -0.52055  -0.51243  -0.50009  -0.49329
 Alpha  occ. eigenvalues --   -0.48969  -0.48472  -0.48432  -0.48201  -0.47380
 Alpha  occ. eigenvalues --   -0.47146  -0.46785  -0.46509  -0.46360  -0.45747
 Alpha  occ. eigenvalues --   -0.45539  -0.45040  -0.44925  -0.44138  -0.43988
 Alpha  occ. eigenvalues --   -0.43426  -0.43239  -0.42831  -0.42586  -0.42321
 Alpha  occ. eigenvalues --   -0.41963  -0.41717  -0.41545  -0.41446  -0.41302
 Alpha  occ. eigenvalues --   -0.40962  -0.40637  -0.40455  -0.40218  -0.39970
 Alpha  occ. eigenvalues --   -0.39472  -0.39136  -0.38553  -0.38298  -0.38236
 Alpha  occ. eigenvalues --   -0.37716  -0.37650  -0.37561  -0.36907  -0.36277
 Alpha  occ. eigenvalues --   -0.35761  -0.35548  -0.34718  -0.34512  -0.34448
 Alpha  occ. eigenvalues --   -0.33916  -0.33390  -0.33221  -0.32245  -0.31908
 Alpha  occ. eigenvalues --   -0.30828  -0.29163  -0.29103  -0.28475  -0.27953
 Alpha  occ. eigenvalues --   -0.26472  -0.25469  -0.25060  -0.25007  -0.24812
 Alpha  occ. eigenvalues --   -0.24488  -0.24297  -0.23374  -0.22228  -0.19338
 Alpha virt. eigenvalues --   -0.12242  -0.07194  -0.06232  -0.00753  -0.00282
 Alpha virt. eigenvalues --   -0.00275   0.00246   0.00380   0.01990   0.02862
 Alpha virt. eigenvalues --    0.03848   0.03972   0.04715   0.05009   0.05224

 Mulliken charges:
               1
     1  O   -0.291951
     2  O   -0.126183
     3  O   -0.324589
     4  O   -0.230999
     5  O   -0.186898
     6  O   -0.285782
     7  N   -0.018014
     8  N   -0.214643
     9  N   -0.149724
    10  N   -0.316243
    11  C    0.098928
    12  C   -0.020863
    13  C   -0.049220
    14  C   -0.103647
    15  C   -0.051231
    16  C    0.016930
    17  C   -0.127117
    18  C    0.056105
    19  C    0.008083
    20  C   -0.090421
    21  C    0.126126
    22  C    0.199172
    23  C   -0.140865
    24  C    0.094706
    25  C   -0.064689
    26  C   -0.156759
    27  C    0.004796
    28  C    0.225006
    29  C    0.090089
    30  C   -0.003723
    31  C    0.001426
    32  C    0.193658
    33  C   -0.194579
    34  C    0.141082
    35  C    0.095154
    36  C   -0.089956
    37  C    0.145640
    38  C   -0.004178
    39  C   -0.173617
    40  C    0.180690
    41  C   -0.028200
    42  C    0.162420
    43  C   -0.019585
    44  H    0.022201
    45  H    0.033304
    46  H    0.071652
    47  H    0.105949
    48  H    0.150005
    49  H    0.027437
    50  H    0.057665
    51  H    0.020846
    52  H   -0.019626
    53  H    0.014017
    54  H    0.006646
    55  H    0.058089
    56  H    0.069826
    57  H    0.062782
    58  H    0.034654
    59  H    0.026139
    60  H    0.174381
    61  H    0.009410
    62  H    0.023180
    63  H    0.001153
    64  H    0.031247
    65  H    0.026070
    66  H    0.009511
    67  H    0.021906
    68  H   -0.000992
    69  H    0.032271
    70  H    0.019634
    71  H    0.044130
    72  H    0.191920
    73  H    0.014337
    74  H   -0.000805
    75  H    0.041973
    76  H    0.005429
    77  H    0.212774
    78  H    0.026552
    79  H   -0.002002
 Sum of Mulliken charges =  -0.00000

 Dipole moment (field-independent basis, Debye):
    X=             -0.8201    Y=              0.9759    Z=              3.0250  Tot=              3.2827
 Quadrupole moment (field-independent basis, Debye-Ang):
   XX=           -218.4932   YY=           -240.1519   ZZ=           -266.2394
   XY=            -14.5151   XZ=             31.8048   YZ=              5.3591

 Normal termination of Gaussian 16 at Thu Sep 19 09:56:46 2019.
