 Gaussian 16, Revision A.03,
 Gaussian 16:  ES64L-G16RevA.03 25-Dec-2016

 --------------------------
 # td=(NStates=1) B3LYP/SVP
 --------------------------

 --
 TD
 --
 Symbolic Z-matrix:
 Charge =  0 Multiplicity = 1

                         Standard orientation:
 ---------------------------------------------------------------------
 Center     Atomic      Atomic             Coordinates (Angstroms)
 Number     Number       Type             X           Y           Z
 ---------------------------------------------------------------------
      1          8           0       -3.094628   -1.310478   -2.908966
      2          8           0        2.895619    3.092067    3.316798
      3          8           0        3.673612    1.366323    4.322375
      4          8           0        7.841265   -1.505211   -0.761400
      5          8           0        6.756984   -2.690767   -2.210969
      6          8           0       -2.766699    1.531372    1.534055
      7          7           0       -0.116729   -2.481719    0.709133
      8          7           0       -2.526315   -1.231807   -0.529708
      9          7           0        1.177597    0.155648   -0.721943
     10          7           0       -1.102528    1.506828   -0.077449
     11          6           0       -3.305656   -1.506827    0.625988
     12          6           0       -2.486340   -2.538501    1.437456
     13          6           0       -1.056597   -2.231768    1.685417
     14          6           0       -0.446118   -1.437136    2.791463
     15          6           0        0.777070   -1.228535    2.376249
     16          6           0        0.992160   -1.931805    1.148138
     17          6           0       -4.651755   -1.997506    0.194868
     18          6           0        1.881282   -0.556232    3.122973
     19          6           0       -4.716406   -2.004206   -1.139499
     20          6           0        2.128777   -1.872966    0.204382
     21          6           0        2.101754   -0.853096   -0.670832
     22          6           0       -3.369215   -1.432018   -1.710411
     23          6           0        3.038040   -0.571493   -1.733043
     24          6           0       -1.164843   -0.789911    3.807895
     25          6           0       -5.717942   -2.139819    1.245572
     26          6           0        2.458143    0.602141   -2.414158
     27          6           0        1.783985    0.995103    2.812583
     28          6           0        1.337022    1.030506   -1.726468
     29          6           0        4.285112   -1.270399   -2.127601
     30          6           0       -5.745530   -2.376137   -2.060710
     31          6           0        5.433533   -0.844606   -1.125347
     32          6           0        3.050017    1.308374   -3.596638
     33          6           0        0.425367    2.120693   -1.903334
     34          6           0        2.966058    1.758384    3.464857
     35          6           0       -0.744264    2.247518   -1.068880
     36          6           0       -6.725322   -3.342072   -1.848132
     37          6           0        6.685907   -1.770474   -1.455899
     38          6           0       -1.575606    3.524795   -1.134249
     39          6           0       -2.609081    3.294327   -0.124285
     40          6           0       -2.171669    2.070776    0.565336
     41          6           0       -1.467748    4.605006   -1.974251
     42          6           0       -3.666150    4.149765    0.419123
     43          6           0       -2.082117    5.783681   -2.169636
     44          1           0       -3.390701   -0.761389    1.367487
     45          1           0       -2.705491   -3.562512    1.062887
     46          1           0       -3.182828   -2.608128    2.277528
     47          1           0       -0.232872   -2.731054   -0.272519
     48          1           0       -1.866735   -0.395253   -0.640729
     49          1           0        1.716889   -0.666905    4.153799
     50          1           0        2.826862   -1.020451    2.773724
     51          1           0        2.855940   -2.465038    0.233991
     52          1           0       -1.813424   -1.619061    4.097067
     53          1           0       -0.714582   -0.544316    4.701099
     54          1           0       -1.750096    0.189493    3.440271
     55          1           0       -5.815707   -1.221629    1.915766
     56          1           0       -5.533298   -3.223016    1.852894
     57          1           0       -6.732252   -2.292413    0.574761
     58          1           0        1.883161    1.294864    1.628809
     59          1           0        0.790074    1.528599    3.106279
     60          1           0        0.424741    0.433572    0.008303
     61          1           0        4.493923   -1.264108   -3.075190
     62          1           0        4.231872   -2.444259   -1.963161
     63          1           0       -5.635550   -1.923052   -3.155850
     64          1           0        5.069470   -0.989408   -0.039214
     65          1           0        5.722609    0.369824   -1.044262
     66          1           0        3.959667    0.779802   -4.131397
     67          1           0        3.703497    2.272520   -3.241587
     68          1           0        2.192763    1.467516   -4.079148
     69          1           0        0.529978    2.850400   -2.836419
     70          1           0       -6.757533   -3.770450   -0.894591
     71          1           0       -7.351689   -3.708226   -2.748463
     72          1           0        3.520221    3.644575    3.796357
     73          1           0       -0.724715    4.653054   -2.758289
     74          1           0       -4.318025    4.441743   -0.413323
     75          1           0       -4.463956    3.665420    1.122965
     76          1           0       -3.177711    4.995258    0.912153
     77          1           0        8.472011   -2.142788   -0.891194
     78          1           0       -1.846451    6.473029   -3.023510
     79          1           0       -2.704670    6.011306   -1.326212
 ---------------------------------------------------------------------

 SCF Done:  E(RB3LYP) =  -1947.78877572     A.U. after   20 cycles

 Excitation energies and oscillator strengths:

 Excited State   1:      Singlet-A      0.5933 eV 2089.88 nm  f=0.0008  <S**2>=0.000
     155 ->156         0.70354
 This state for optimization and/or second-order correction.
 Total Energy, E(TD-HF/TD-DFT) =  -1947.76697379
 Copying the excited state density for this state as the 1-particle RhoCI density.

 The electronic state is 1-A.
 Alpha  occ. eigenvalues --  -19.17562 -19.16110 -19.14393 -19.11889 -19.11424
 Alpha  occ. eigenvalues --  -19.09732 -14.37656 -14.37460 -14.32852 -14.31340
 Alpha  occ. eigenvalues --  -10.34120 -10.30958 -10.28077 -10.27729 -10.26421
 Alpha  occ. eigenvalues --  -10.25857 -10.25816 -10.25426 -10.23574 -10.22598
 Alpha  occ. eigenvalues --  -10.22546 -10.22282 -10.22186 -10.22148 -10.22050
 Alpha  occ. eigenvalues --  -10.22038 -10.21577 -10.21451 -10.20506 -10.20384
 Alpha  occ. eigenvalues --  -10.20218 -10.20196 -10.20155 -10.20072 -10.19826
 Alpha  occ. eigenvalues --  -10.19740 -10.19081 -10.18870 -10.18612 -10.18128
 Alpha  occ. eigenvalues --  -10.16715 -10.16285 -10.16084  -1.11457  -1.09578
 Alpha  occ. eigenvalues --   -1.01855  -1.01822  -1.00897  -0.99815  -0.99686
 Alpha  occ. eigenvalues --   -0.98510  -0.94799  -0.91367  -0.84035  -0.83049
 Alpha  occ. eigenvalues --   -0.82282  -0.81830  -0.80243  -0.78856  -0.78273
 Alpha  occ. eigenvalues --   -0.77121  -0.76016  -0.75756  -0.73704  -0.72790
 Alpha  occ. eigenvalues --   -0.71114  -0.70888  -0.69768  -0.68700  -0.68218
 Alpha  occ. eigenvalues --   -0.67462  -0.65969  -0.63357  -0.62271  -0.61315
 Alpha  occ. eigenvalues --   -0.60334  -0.60128  -0.58928  -0.58439  -0.57338
 Alpha  occ. eigenvalues --   -0.56084  -0.55789  -0.54644  -0.54113  -0.53116
 Alpha  occ. eigenvalues --   -0.52335  -0.52024  -0.50828  -0.50444  -0.49998
 Alpha  occ. eigenvalues --   -0.49244  -0.48883  -0.48726  -0.48559  -0.47724
 Alpha  occ. eigenvalues --   -0.47515  -0.46733  -0.46443  -0.46307  -0.46034
 Alpha  occ. eigenvalues --   -0.45314  -0.45247  -0.45043  -0.44324  -0.44181
 Alpha  occ. eigenvalues --   -0.43856  -0.43463  -0.43247  -0.42366  -0.42208
 Alpha  occ. eigenvalues --   -0.42123  -0.42041  -0.41400  -0.41002  -0.40822
 Alpha  occ. eigenvalues --   -0.40665  -0.40447  -0.40097  -0.39983  -0.39769
 Alpha  occ. eigenvalues --   -0.39524  -0.39194  -0.38900  -0.38322  -0.37763
 Alpha  occ. eigenvalues --   -0.37541  -0.37285  -0.37030  -0.36547  -0.36026
 Alpha  occ. eigenvalues --   -0.35852  -0.35214  -0.35150  -0.34653  -0.34301
 Alpha  occ. eigenvalues --   -0.34007  -0.33388  -0.33192  -0.32535  -0.31491
 Alpha  occ. eigenvalues --   -0.31145  -0.30333  -0.29978  -0.29712  -0.29062
 Alpha  occ. eigenvalues --   -0.27045  -0.26175  -0.25780  -0.24937  -0.24365
 Alpha  occ. eigenvalues --   -0.23545  -0.23151  -0.22428  -0.22240  -0.17967
 Alpha virt. eigenvalues --   -0.13256  -0.08932  -0.04333  -0.01929  -0.01814
 Alpha virt. eigenvalues --    0.00344   0.01149   0.01692   0.01821   0.03843
 Alpha virt. eigenvalues --    0.04440   0.04701   0.04984   0.05216   0.05738

 Mulliken charges:
               1
     1  O   -0.239286
     2  O   -0.199075
     3  O   -0.199863
     4  O   -0.170135
     5  O   -0.202706
     6  O   -0.234044
     7  N    0.018460
     8  N   -0.278539
     9  N   -0.103205
    10  N   -0.246808
    11  C    0.107869
    12  C    0.137430
    13  C   -0.065697
    14  C   -0.088092
    15  C   -0.116550
    16  C   -0.071444
    17  C   -0.122399
    18  C    0.215696
    19  C   -0.046310
    20  C   -0.027151
    21  C    0.152675
    22  C    0.173964
    23  C   -0.046758
    24  C    0.084904
    25  C   -0.025609
    26  C   -0.143797
    27  C   -0.134813
    28  C    0.109970
    29  C    0.138545
    30  C   -0.078413
    31  C   -0.111411
    32  C    0.055288
    33  C   -0.135599
    34  C    0.126970
    35  C    0.101663
    36  C   -0.030655
    37  C    0.161701
    38  C    0.102907
    39  C   -0.187306
    40  C    0.152494
    41  C   -0.100092
    42  C    0.067451
    43  C   -0.029144
    44  H    0.004114
    45  H   -0.034691
    46  H   -0.043202
    47  H    0.131725
    48  H    0.172036
    49  H   -0.007739
    50  H    0.003478
    51  H   -0.105716
    52  H    0.000984
    53  H   -0.033463
    54  H    0.075076
    55  H    0.063620
    56  H    0.060339
    57  H    0.045088
    58  H    0.041818
    59  H    0.079192
    60  H    0.213466
    61  H   -0.033538
    62  H    0.043495
    63  H    0.037975
    64  H    0.069486
    65  H    0.074876
    66  H    0.038826
    67  H    0.051409
    68  H    0.022176
    69  H    0.037372
    70  H    0.003597
    71  H    0.046455
    72  H    0.176417
    73  H   -0.024466
    74  H    0.028644
    75  H    0.044545
    76  H    0.050878
    77  H    0.149432
    78  H    0.046235
    79  H   -0.003022
 Sum of Mulliken charges =  -0.00000

 Dipole moment (field-independent basis, Debye):
    X=              3.4523    Y=              3.2029    Z=             -1.0499  Tot=              4.8248
 Quadrupole moment (field-independent basis, Debye-Ang):
   XX=           -241.4874   YY=           -234.5884   ZZ=           -268.1013
   XY=              1.3078   XZ=            -17.6983   YZ=            -11.2169

 Normal termination of Gaussian 16 at Thu Jul 25 13:18:09 2019.
