 Gaussian 16, Revision A.03,
 Gaussian 16:  ES64L-G16RevA.03 25-Dec-2016

 --------------------------
 # td=(NStates=1) B3LYP/SVP
 --------------------------

 --
 TD
 --
 Symbolic Z-matrix:
 Charge =  0 Multiplicity = 1

                         Standard orientation:
 ---------------------------------------------------------------------
 Center     Atomic      Atomic             Coordinates (Angstroms)
 Number     Number       Type             X           Y           Z
 ---------------------------------------------------------------------
      1          8           0        5.178988   -0.139767   -3.203356
      2          8           0       -3.264573   -2.811674    3.288059
      3          8           0       -3.364882   -0.568465    2.953493
      4          8           0       -1.034381    7.111668    1.581389
      5          8           0       -0.270590    6.923451   -0.515438
      6          8           0       -1.891872   -3.942204    0.104296
      7          7           0        2.238735    0.756048    0.626079
      8          7           0        4.347719   -0.658298   -1.159178
      9          7           0       -1.921545    0.694035   -0.252168
     10          7           0       -2.446206   -1.771208   -0.690080
     11          6           0        4.742390   -1.349427    0.045236
     12          6           0        4.401071   -0.378256    1.246461
     13          6           0        2.809350   -0.096581    1.490790
     14          6           0        1.864276   -0.687996    2.216728
     15          6           0        0.726310   -0.150376    1.881687
     16          6           0        0.867657    0.852303    0.827514
     17          6           0        6.246946   -1.539055   -0.195750
     18          6           0       -0.726472   -0.186443    2.552383
     19          6           0        6.600330   -1.043507   -1.358455
     20          6           0        0.247910    1.854387    0.022158
     21          6           0       -1.143911    1.826350   -0.302023
     22          6           0        5.355811   -0.537687   -2.119765
     23          6           0       -1.777998    2.890778   -0.872557
     24          6           0        2.031674   -1.709852    3.209497
     25          6           0        7.033090   -2.127129    0.826507
     26          6           0       -3.050908    2.459342   -1.344421
     27          6           0       -1.282680   -1.673321    2.589017
     28          6           0       -3.038904    0.986008   -0.996522
     29          6           0       -1.340049    4.346724   -0.870082
     30          6           0        7.843147   -0.972843   -2.027958
     31          6           0       -1.537705    5.101134    0.482747
     32          6           0       -4.175080    3.125455   -2.094271
     33          6           0       -3.931125    0.098119   -1.490376
     34          6           0       -2.773876   -1.652264    2.935861
     35          6           0       -3.667688   -1.401480   -1.230975
     36          6           0        9.228032   -0.931000   -1.548520
     37          6           0       -0.792147    6.520091    0.429446
     38          6           0       -4.576300   -2.466826   -1.536826
     39          6           0       -3.990706   -3.639077   -0.998559
     40          6           0       -2.727336   -3.190264   -0.503175
     41          6           0       -5.861023   -2.224771   -2.121615
     42          6           0       -4.497095   -5.075561   -1.026210
     43          6           0       -6.749052   -3.210906   -2.645991
     44          1           0        4.233089   -2.346323    0.322290
     45          1           0        5.105331    0.523856    1.022236
     46          1           0        4.762284   -1.098490    2.148805
     47          1           0        2.769981    1.781652    0.205224
     48          1           0        3.332570   -0.657458   -1.513887
     49          1           0       -0.699807   -0.031494    3.655106
     50          1           0       -1.432620    0.550525    2.165431
     51          1           0        0.699838    2.799474   -0.244205
     52          1           0        2.988178   -1.815208    3.334888
     53          1           0        1.522028   -1.429604    4.097359
     54          1           0        1.662402   -2.658408    2.967703
     55          1           0        6.517132   -2.960513    1.335459
     56          1           0        7.472500   -1.455121    1.784528
     57          1           0        7.994234   -2.504787    0.285080
     58          1           0       -1.478170   -1.953373    1.500359
     59          1           0       -0.559177   -2.330703    3.139518
     60          1           0       -1.586780   -0.163690   -0.376010
     61          1           0       -1.982111    4.867104   -1.681273
     62          1           0       -0.192310    4.549546   -1.314307
     63          1           0        7.831279   -0.833835   -3.100730
     64          1           0       -1.100564    4.511641    1.456880
     65          1           0       -2.474942    5.032667    0.820852
     66          1           0       -3.775222    4.102288   -2.275651
     67          1           0       -5.106291    3.431149   -1.380742
     68          1           0       -4.624480    2.663276   -3.063300
     69          1           0       -4.881655    0.347425   -1.984682
     70          1           0        9.601621   -0.948831   -0.446564
     71          1           0        9.972549   -1.102597   -2.565321
     72          1           0       -4.182981   -2.623645    3.592785
     73          1           0       -6.322744   -1.081100   -2.211664
     74          1           0       -5.567292   -5.254951   -0.710389
     75          1           0       -4.379622   -5.650922   -1.996804
     76          1           0       -3.803614   -5.678704   -0.538452
     77          1           0       -0.728730    8.005987    1.322773
     78          1           0       -7.637717   -2.782497   -3.023393
     79          1           0       -6.448262   -4.428869   -2.901928
 ---------------------------------------------------------------------

 SCF Done:  E(RB3LYP) =  -1947.74230732     A.U. after   20 cycles

 Excitation energies and oscillator strengths:

 Excited State   1:      Singlet-A      1.6942 eV  731.80 nm  f=0.3519  <S**2>=0.000
     154 ->156         0.10954
     155 ->156         0.70149
     155 <-156        -0.13715
 This state for optimization and/or second-order correction.
 Total Energy, E(TD-HF/TD-DFT) =  -1947.68004492
 Copying the excited state density for this state as the 1-particle RhoCI density.

 The electronic state is 1-A.
 Alpha  occ. eigenvalues --  -19.20295 -19.18047 -19.14914 -19.10712 -19.10083
 Alpha  occ. eigenvalues --  -19.10052 -14.38397 -14.34956 -14.34289 -14.29773
 Alpha  occ. eigenvalues --  -10.33268 -10.30153 -10.28259 -10.26319 -10.24702
 Alpha  occ. eigenvalues --  -10.23693 -10.23539 -10.23522 -10.22974 -10.22970
 Alpha  occ. eigenvalues --  -10.22815 -10.22597 -10.22576 -10.22340 -10.21890
 Alpha  occ. eigenvalues --  -10.21723 -10.21661 -10.21532 -10.21503 -10.21246
 Alpha  occ. eigenvalues --  -10.21171 -10.21044 -10.20812 -10.20769 -10.20642
 Alpha  occ. eigenvalues --  -10.19850 -10.19403 -10.19172 -10.18956 -10.18358
 Alpha  occ. eigenvalues --  -10.18168 -10.17426 -10.16822  -1.13890  -1.09385
 Alpha  occ. eigenvalues --   -1.05463  -1.05112  -0.99085  -0.98721  -0.98280
 Alpha  occ. eigenvalues --   -0.98186  -0.93537  -0.90400  -0.82732  -0.82503
 Alpha  occ. eigenvalues --   -0.82206  -0.80189  -0.79571  -0.77813  -0.76713
 Alpha  occ. eigenvalues --   -0.76280  -0.75174  -0.74393  -0.73347  -0.71887
 Alpha  occ. eigenvalues --   -0.71839  -0.70063  -0.69824  -0.68597  -0.67658
 Alpha  occ. eigenvalues --   -0.65564  -0.65019  -0.62884  -0.60769  -0.60541
 Alpha  occ. eigenvalues --   -0.59751  -0.58213  -0.57739  -0.57089  -0.56819
 Alpha  occ. eigenvalues --   -0.56427  -0.55591  -0.54740  -0.52897  -0.52454
 Alpha  occ. eigenvalues --   -0.52148  -0.51170  -0.50888  -0.50521  -0.49774
 Alpha  occ. eigenvalues --   -0.49197  -0.48557  -0.47875  -0.47208  -0.46932
 Alpha  occ. eigenvalues --   -0.46404  -0.46179  -0.46020  -0.45960  -0.45669
 Alpha  occ. eigenvalues --   -0.44852  -0.44760  -0.44260  -0.43919  -0.43553
 Alpha  occ. eigenvalues --   -0.43306  -0.42845  -0.42578  -0.42454  -0.42012
 Alpha  occ. eigenvalues --   -0.41769  -0.41443  -0.40944  -0.40908  -0.40817
 Alpha  occ. eigenvalues --   -0.40141  -0.39994  -0.39767  -0.39453  -0.39141
 Alpha  occ. eigenvalues --   -0.39072  -0.38701  -0.38471  -0.38279  -0.38145
 Alpha  occ. eigenvalues --   -0.37874  -0.37466  -0.37372  -0.37198  -0.35988
 Alpha  occ. eigenvalues --   -0.35434  -0.34999  -0.34713  -0.34221  -0.34000
 Alpha  occ. eigenvalues --   -0.33664  -0.33625  -0.33324  -0.31766  -0.31258
 Alpha  occ. eigenvalues --   -0.30687  -0.30278  -0.29910  -0.28613  -0.27699
 Alpha  occ. eigenvalues --   -0.26743  -0.25996  -0.25873  -0.25443  -0.24909
 Alpha  occ. eigenvalues --   -0.23956  -0.23601  -0.23390  -0.21969  -0.17905
 Alpha virt. eigenvalues --   -0.11388  -0.07578  -0.06645  -0.02169  -0.01141
 Alpha virt. eigenvalues --    0.00472   0.00649   0.02728   0.02866   0.03069
 Alpha virt. eigenvalues --    0.03618   0.03877   0.04350   0.04802   0.04910

 Mulliken charges:
               1
     1  O   -0.150923
     2  O   -0.136509
     3  O   -0.272659
     4  O   -0.138299
     5  O   -0.156225
     6  O   -0.256757
     7  N   -0.148180
     8  N   -0.235353
     9  N    0.027450
    10  N   -0.321447
    11  C    0.064101
    12  C    0.083597
    13  C   -0.079455
    14  C   -0.122726
    15  C   -0.076929
    16  C    0.106641
    17  C   -0.111574
    18  C    0.077898
    19  C   -0.010292
    20  C   -0.084515
    21  C    0.009684
    22  C    0.142034
    23  C   -0.048621
    24  C    0.279965
    25  C   -0.014019
    26  C   -0.120248
    27  C   -0.056974
    28  C    0.118272
    29  C   -0.003552
    30  C   -0.069857
    31  C   -0.018996
    32  C    0.061142
    33  C   -0.102711
    34  C    0.112987
    35  C    0.038992
    36  C   -0.111429
    37  C    0.132927
    38  C    0.073886
    39  C   -0.127860
    40  C    0.167668
    41  C   -0.133263
    42  C    0.096732
    43  C   -0.053006
    44  H    0.028009
    45  H    0.018013
    46  H    0.015906
    47  H    0.192542
    48  H    0.150626
    49  H   -0.002827
    50  H    0.033525
    51  H   -0.018639
    52  H   -0.081502
    53  H    0.001012
    54  H    0.015557
    55  H    0.022532
    56  H    0.061781
    57  H    0.040810
    58  H    0.086752
    59  H    0.031385
    60  H    0.102279
    61  H    0.028575
    62  H    0.053079
    63  H    0.018198
    64  H    0.044683
    65  H   -0.009138
    66  H   -0.011010
    67  H    0.041562
    68  H    0.060862
    69  H   -0.022861
    70  H    0.056388
    71  H    0.062633
    72  H    0.180001
    73  H    0.052330
    74  H    0.039299
    75  H    0.024426
    76  H   -0.006649
    77  H    0.165026
    78  H    0.017308
    79  H    0.075923
 Sum of Mulliken charges =  -0.00000

 Dipole moment (field-independent basis, Debye):
    X=             -0.5620    Y=              2.7648    Z=              2.6222  Tot=              3.8517
 Quadrupole moment (field-independent basis, Debye-Ang):
   XX=           -219.9775   YY=           -232.9473   ZZ=           -259.5790
   XY=             -7.7652   XZ=             30.5007   YZ=              3.6404

 Normal termination of Gaussian 16 at Tue Sep 24 14:21:14 2019.
