 Gaussian 16, Revision A.03,
 Gaussian 16:  ES64L-G16RevA.03 25-Dec-2016

 --------------------------
 # td=(NStates=1) B3LYP/SVP
 --------------------------

 --
 TD
 --
 Symbolic Z-matrix:
 Charge =  0 Multiplicity = 1

                         Standard orientation:
 ---------------------------------------------------------------------
 Center     Atomic      Atomic             Coordinates (Angstroms)
 Number     Number       Type             X           Y           Z
 ---------------------------------------------------------------------
      1          8           0       -3.297955   -1.207327   -2.877114
      2          8           0        3.469333    2.850750    3.151745
      3          8           0        3.697453    1.170001    4.477817
      4          8           0        7.719189   -1.500641   -0.901047
      5          8           0        6.636770   -3.268148   -1.939665
      6          8           0       -2.533199    1.711108    1.427656
      7          7           0       -0.406943   -2.417353    0.826405
      8          7           0       -2.765373   -1.243312   -0.678468
      9          7           0        1.177893    0.061171   -0.556635
     10          7           0       -0.967547    1.502318   -0.205317
     11          6           0       -3.497009   -1.198284    0.608964
     12          6           0       -2.832849   -2.137234    1.620025
     13          6           0       -1.329676   -1.945379    1.759810
     14          6           0       -0.635065   -1.228838    2.782482
     15          6           0        0.676827   -1.188494    2.423602
     16          6           0        0.746073   -1.921394    1.227016
     17          6           0       -4.907190   -1.784550    0.242141
     18          6           0        1.728672   -0.426308    3.179234
     19          6           0       -4.893874   -1.921555   -1.079187
     20          6           0        1.919528   -2.021689    0.255481
     21          6           0        2.087631   -0.969335   -0.574801
     22          6           0       -3.607732   -1.462223   -1.691310
     23          6           0        2.961271   -0.825633   -1.686474
     24          6           0       -1.454569   -0.470549    3.976325
     25          6           0       -5.842978   -2.079203    1.237840
     26          6           0        2.508641    0.443827   -2.391548
     27          6           0        2.054667    1.068987    2.731237
     28          6           0        1.376982    0.838651   -1.652372
     29          6           0        4.197795   -1.751003   -2.044703
     30          6           0       -5.942275   -2.509882   -2.045635
     31          6           0        5.436680   -1.093436   -1.319053
     32          6           0        3.174879    1.080257   -3.597085
     33          6           0        0.593450    1.956796   -1.978883
     34          6           0        3.063427    1.615279    3.654831
     35          6           0       -0.505936    2.386817   -1.222187
     36          6           0       -7.114587   -3.047874   -1.715373
     37          6           0        6.671904   -2.115464   -1.508232
     38          6           0       -1.320928    3.546805   -1.257295
     39          6           0       -2.234604    3.453593   -0.259749
     40          6           0       -1.980593    2.085300    0.427171
     41          6           0       -0.992015    4.645004   -2.190546
     42          6           0       -3.206795    4.429628    0.125906
     43          6           0       -1.411123    6.007465   -2.107558
     44          1           0       -3.849936   -0.123261    1.074741
     45          1           0       -3.003423   -3.031805    0.936064
     46          1           0       -3.396159   -2.188577    2.546372
     47          1           0       -0.677669   -2.630405   -0.149835
     48          1           0       -2.144765   -0.473001   -0.992217
     49          1           0        1.505978   -0.382683    4.215717
     50          1           0        2.566350   -0.911499    3.121469
     51          1           0        2.744341   -2.617932    0.571027
     52          1           0       -2.146096   -1.112302    4.281064
     53          1           0       -0.652503   -0.287714    4.623314
     54          1           0       -1.914911    0.376874    3.620021
     55          1           0       -5.692843   -1.578039    2.155894
     56          1           0       -5.847486   -3.033372    1.548756
     57          1           0       -6.935154   -1.711242    0.973169
     58          1           0        2.535174    1.172954    1.664379
     59          1           0        1.154500    1.627752    2.697176
     60          1           0        0.296822    0.585524   -0.108915
     61          1           0        4.459075   -1.908929   -3.229049
     62          1           0        3.737872   -2.769883   -1.577532
     63          1           0       -5.381358   -2.425309   -2.996569
     64          1           0        5.317876   -0.984609   -0.061110
     65          1           0        5.681998   -0.137548   -1.719578
     66          1           0        3.901936    0.426089   -4.334903
     67          1           0        3.675761    2.111107   -3.358269
     68          1           0        2.310345    1.551610   -4.282616
     69          1           0        0.807132    2.687093   -2.849116
     70          1           0       -7.503834   -3.108156   -0.658599
     71          1           0       -7.726246   -3.406801   -2.471648
     72          1           0        4.052368    3.309248    3.830736
     73          1           0       -0.285301    4.208575   -3.061541
     74          1           0       -4.016639    4.502629   -0.769181
     75          1           0       -3.759633    3.838462    0.901359
     76          1           0       -2.789915    5.349016    0.539495
     77          1           0        8.355710   -2.265914   -0.786678
     78          1           0       -1.193222    6.916237   -2.670282
     79          1           0       -1.916866    6.299611   -1.220553
 ---------------------------------------------------------------------

 SCF Done:  E(RB3LYP) =  -1947.79446260     A.U. after   19 cycles

 Excitation energies and oscillator strengths:

 Excited State   1:      Singlet-A      0.7934 eV 1562.67 nm  f=0.0072  <S**2>=0.000
     155 ->156         0.70539
 This state for optimization and/or second-order correction.
 Total Energy, E(TD-HF/TD-DFT) =  -1947.76530524
 Copying the excited state density for this state as the 1-particle RhoCI density.

 The electronic state is 1-A.
 Alpha  occ. eigenvalues --  -19.20442 -19.15168 -19.14913 -19.12859 -19.10986
 Alpha  occ. eigenvalues --  -19.08727 -14.37026 -14.35865 -14.33875 -14.30289
 Alpha  occ. eigenvalues --  -10.34220 -10.30578 -10.27168 -10.26740 -10.25865
 Alpha  occ. eigenvalues --  -10.25370 -10.24922 -10.24795 -10.24414 -10.24096
 Alpha  occ. eigenvalues --  -10.23996 -10.23368 -10.23270 -10.23248 -10.22480
 Alpha  occ. eigenvalues --  -10.21280 -10.20991 -10.20831 -10.20508 -10.20377
 Alpha  occ. eigenvalues --  -10.20214 -10.20082 -10.20005 -10.19720 -10.19675
 Alpha  occ. eigenvalues --  -10.18980 -10.18972 -10.18448 -10.18012 -10.17777
 Alpha  occ. eigenvalues --  -10.16805 -10.16670 -10.15990  -1.11023  -1.10571
 Alpha  occ. eigenvalues --   -1.03309  -1.01882  -1.00687  -0.99605  -0.99466
 Alpha  occ. eigenvalues --   -0.97672  -0.93296  -0.92212  -0.83027  -0.81911
 Alpha  occ. eigenvalues --   -0.81518  -0.81026  -0.80610  -0.78079  -0.77357
 Alpha  occ. eigenvalues --   -0.76932  -0.76513  -0.75240  -0.74490  -0.72202
 Alpha  occ. eigenvalues --   -0.71456  -0.70767  -0.70339  -0.68096  -0.67810
 Alpha  occ. eigenvalues --   -0.67030  -0.65319  -0.62251  -0.61215  -0.60527
 Alpha  occ. eigenvalues --   -0.59426  -0.58593  -0.57776  -0.57308  -0.56769
 Alpha  occ. eigenvalues --   -0.56055  -0.54830  -0.54539  -0.53689  -0.52734
 Alpha  occ. eigenvalues --   -0.52145  -0.51309  -0.50445  -0.50229  -0.50008
 Alpha  occ. eigenvalues --   -0.49696  -0.48925  -0.48468  -0.48254  -0.47104
 Alpha  occ. eigenvalues --   -0.46937  -0.46453  -0.46245  -0.46171  -0.45648
 Alpha  occ. eigenvalues --   -0.45358  -0.45224  -0.44640  -0.44429  -0.44064
 Alpha  occ. eigenvalues --   -0.43482  -0.43121  -0.42990  -0.42577  -0.42223
 Alpha  occ. eigenvalues --   -0.41979  -0.41785  -0.41497  -0.41337  -0.41091
 Alpha  occ. eigenvalues --   -0.40881  -0.40520  -0.40266  -0.40123  -0.39819
 Alpha  occ. eigenvalues --   -0.39209  -0.39128  -0.38983  -0.38757  -0.37889
 Alpha  occ. eigenvalues --   -0.37777  -0.37469  -0.37303  -0.36996  -0.36754
 Alpha  occ. eigenvalues --   -0.36465  -0.36145  -0.34914  -0.34626  -0.34582
 Alpha  occ. eigenvalues --   -0.33884  -0.33765  -0.33070  -0.31490  -0.31285
 Alpha  occ. eigenvalues --   -0.30539  -0.30036  -0.29810  -0.29184  -0.28385
 Alpha  occ. eigenvalues --   -0.28141  -0.26114  -0.25630  -0.25280  -0.24381
 Alpha  occ. eigenvalues --   -0.23987  -0.23393  -0.23199  -0.22285  -0.18466
 Alpha virt. eigenvalues --   -0.13023  -0.07839  -0.03871  -0.02730  -0.02434
 Alpha virt. eigenvalues --    0.01144   0.01900   0.02138   0.02377   0.03278
 Alpha virt. eigenvalues --    0.03806   0.04059   0.04579   0.05012   0.05226

 Mulliken charges:
               1
     1  O   -0.279788
     2  O   -0.269473
     3  O   -0.132066
     4  O   -0.189245
     5  O   -0.230933
     6  O   -0.202601
     7  N   -0.011964
     8  N   -0.165224
     9  N   -0.103842
    10  N   -0.336505
    11  C    0.024929
    12  C    0.176336
    13  C   -0.101697
    14  C   -0.169037
    15  C   -0.094763
    16  C   -0.085746
    17  C   -0.208421
    18  C    0.218922
    19  C   -0.099769
    20  C   -0.091471
    21  C    0.149099
    22  C    0.120007
    23  C   -0.087471
    24  C    0.242826
    25  C    0.153486
    26  C   -0.100074
    27  C   -0.037002
    28  C    0.119842
    29  C    0.010152
    30  C    0.046826
    31  C   -0.063689
    32  C   -0.019138
    33  C   -0.112838
    34  C    0.109086
    35  C    0.057374
    36  C   -0.012656
    37  C    0.175942
    38  C    0.098819
    39  C   -0.251600
    40  C    0.163631
    41  C   -0.052446
    42  C    0.045016
    43  C   -0.025284
    44  H    0.080419
    45  H   -0.016692
    46  H   -0.011565
    47  H    0.140754
    48  H    0.146058
    49  H   -0.009392
    50  H   -0.070142
    51  H    0.019725
    52  H   -0.036791
    53  H   -0.020992
    54  H    0.014475
    55  H   -0.015577
    56  H    0.000334
    57  H    0.048847
    58  H    0.065011
    59  H    0.034375
    60  H    0.221459
    61  H    0.068720
    62  H    0.064527
    63  H    0.008329
    64  H    0.084489
    65  H    0.043327
    66  H    0.066491
    67  H    0.048186
    68  H    0.041701
    69  H   -0.004066
    70  H    0.022914
    71  H    0.005611
    72  H    0.181809
    73  H    0.029496
    74  H    0.059883
    75  H    0.022086
    76  H    0.057216
    77  H    0.190019
    78  H    0.036073
    79  H    0.005336
 Sum of Mulliken charges =  -0.00000

 Dipole moment (field-independent basis, Debye):
    X=              3.3964    Y=              2.6266    Z=              0.1422  Tot=              4.2960
 Quadrupole moment (field-independent basis, Debye-Ang):
   XX=           -228.3021   YY=           -241.3036   ZZ=           -265.4866
   XY=              3.8281   XZ=            -22.9272   YZ=            -10.8253

 Normal termination of Gaussian 16 at Mon Jul 29 16:47:09 2019.
