 Gaussian 16, Revision A.03,
 Gaussian 16:  ES64L-G16RevA.03 25-Dec-2016

 --------------------------
 # td=(NStates=1) B3LYP/SVP
 --------------------------

 --
 TD
 --
 Symbolic Z-matrix:
 Charge =  0 Multiplicity = 1

                         Standard orientation:
 ---------------------------------------------------------------------
 Center     Atomic      Atomic             Coordinates (Angstroms)
 Number     Number       Type             X           Y           Z
 ---------------------------------------------------------------------
      1          8           0       -3.311110   -1.391003   -2.761565
      2          8           0        2.717778    3.333388    3.100879
      3          8           0        3.777935    1.501917    4.117493
      4          8           0        7.738873   -1.480900   -0.570463
      5          8           0        6.750495   -3.039466   -1.828604
      6          8           0       -2.643037    1.691016    1.402687
      7          7           0       -0.264131   -2.410077    0.982696
      8          7           0       -2.660989   -1.281626   -0.569304
      9          7           0        1.219278    0.076737   -0.719357
     10          7           0       -0.956239    1.524893   -0.236036
     11          6           0       -3.413215   -1.289224    0.747040
     12          6           0       -2.686834   -2.347183    1.776886
     13          6           0       -1.268877   -2.022155    1.862142
     14          6           0       -0.562364   -1.047802    2.754461
     15          6           0        0.728306   -1.055754    2.442491
     16          6           0        0.948522   -1.823434    1.279139
     17          6           0       -4.774806   -1.978701    0.311349
     18          6           0        1.789143   -0.324728    3.185054
     19          6           0       -4.849964   -2.004349   -1.042676
     20          6           0        2.074999   -1.876782    0.392621
     21          6           0        2.060516   -0.954855   -0.651202
     22          6           0       -3.491528   -1.513013   -1.585171
     23          6           0        3.009787   -0.829505   -1.736458
     24          6           0       -1.373638   -0.333543    3.824473
     25          6           0       -5.872264   -2.059118    1.308914
     26          6           0        2.614356    0.265725   -2.514734
     27          6           0        1.820838    1.187774    2.723450
     28          6           0        1.421544    0.844754   -1.954056
     29          6           0        4.367959   -1.648350   -1.863784
     30          6           0       -5.910191   -2.493224   -1.994873
     31          6           0        5.366997   -1.304056   -0.967004
     32          6           0        3.159515    0.822647   -3.773853
     33          6           0        0.507259    1.875590   -2.077761
     34          6           0        2.918716    1.983636    3.366256
     35          6           0       -0.520605    2.300820   -1.297376
     36          6           0       -6.917152   -3.311465   -1.769853
     37          6           0        6.667166   -2.008657   -1.217009
     38          6           0       -1.378355    3.451505   -1.342576
     39          6           0       -2.306994    3.394999   -0.336464
     40          6           0       -2.032354    2.094251    0.383577
     41          6           0       -1.163514    4.514832   -2.375269
     42          6           0       -3.299131    4.410651    0.184197
     43          6           0       -1.645645    5.684844   -2.383498
     44          1           0       -3.356207   -0.404855    1.225021
     45          1           0       -2.748124   -3.426768    1.467431
     46          1           0       -3.177508   -2.323414    2.779133
     47          1           0       -0.460023   -2.653345   -0.025983
     48          1           0       -1.952493   -0.504954   -0.684675
     49          1           0        1.736774   -0.212961    4.140744
     50          1           0        2.746766   -0.854001    2.921213
     51          1           0        2.893086   -2.580537    0.435583
     52          1           0       -2.144642   -0.963976    4.469612
     53          1           0       -0.876708    0.120207    4.678089
     54          1           0       -1.937606    0.535524    3.069843
     55          1           0       -5.620052   -1.393549    2.033235
     56          1           0       -5.709855   -3.100267    1.856190
     57          1           0       -6.830785   -1.904060    0.885027
     58          1           0        1.880978    1.042335    1.670361
     59          1           0        0.910198    1.618034    3.023745
     60          1           0        0.463462    0.343258   -0.020899
     61          1           0        4.473194   -1.618250   -2.977242
     62          1           0        4.179189   -2.745441   -1.709888
     63          1           0       -5.548083   -2.251590   -2.975183
     64          1           0        5.073779   -1.297657    0.200403
     65          1           0        5.669830   -0.195360   -1.150316
     66          1           0        3.858127    0.165219   -4.212171
     67          1           0        3.734019    1.757087   -3.393919
     68          1           0        2.556025    1.105601   -4.606418
     69          1           0        0.780571    2.395651   -3.022802
     70          1           0       -7.066920   -3.714229   -0.797480
     71          1           0       -7.744950   -3.315679   -2.476091
     72          1           0        3.503571    3.752069    3.605120
     73          1           0       -0.500011    4.334388   -3.317123
     74          1           0       -4.146818    4.660793   -0.522538
     75          1           0       -4.025846    3.781801    0.864995
     76          1           0       -2.893415    5.437600    0.528215
     77          1           0        8.595628   -1.851875   -0.733465
     78          1           0       -1.425049    6.100944   -3.335895
     79          1           0       -2.432167    6.236373   -1.731858
 ---------------------------------------------------------------------

 SCF Done:  E(RB3LYP) =  -1947.84622528     A.U. after   21 cycles

 Excitation energies and oscillator strengths:

 Excited State   1:      Singlet-A      0.4502 eV 2754.17 nm  f=0.0021  <S**2>=0.000
     155 ->156         0.70581
 This state for optimization and/or second-order correction.
 Total Energy, E(TD-HF/TD-DFT) =  -1947.82968186
 Copying the excited state density for this state as the 1-particle RhoCI density.

 The electronic state is 1-A.
 Alpha  occ. eigenvalues --  -19.18737 -19.18652 -19.13658 -19.13155 -19.12458
 Alpha  occ. eigenvalues --  -19.08010 -14.37086 -14.36971 -14.33495 -14.30513
 Alpha  occ. eigenvalues --  -10.33457 -10.32148 -10.28265 -10.27529 -10.26087
 Alpha  occ. eigenvalues --  -10.25388 -10.25170 -10.23996 -10.23914 -10.23361
 Alpha  occ. eigenvalues --  -10.22804 -10.22526 -10.22519 -10.21850 -10.21763
 Alpha  occ. eigenvalues --  -10.21364 -10.21313 -10.21080 -10.20799 -10.20332
 Alpha  occ. eigenvalues --  -10.20279 -10.20142 -10.19845 -10.19224 -10.18822
 Alpha  occ. eigenvalues --  -10.18731 -10.18681 -10.18121 -10.17929 -10.17341
 Alpha  occ. eigenvalues --  -10.17284 -10.16833 -10.16593  -1.10523  -1.07552
 Alpha  occ. eigenvalues --   -1.01926  -1.01743  -1.01650  -0.99519  -0.99126
 Alpha  occ. eigenvalues --   -0.95951  -0.93616  -0.91499  -0.84677  -0.83526
 Alpha  occ. eigenvalues --   -0.81530  -0.80825  -0.80719  -0.80080  -0.78576
 Alpha  occ. eigenvalues --   -0.76665  -0.76181  -0.75728  -0.74863  -0.73783
 Alpha  occ. eigenvalues --   -0.71595  -0.70128  -0.69802  -0.69306  -0.67826
 Alpha  occ. eigenvalues --   -0.66173  -0.65786  -0.63629  -0.62470  -0.60529
 Alpha  occ. eigenvalues --   -0.59225  -0.59026  -0.57829  -0.57409  -0.57158
 Alpha  occ. eigenvalues --   -0.55735  -0.55365  -0.54803  -0.53421  -0.52981
 Alpha  occ. eigenvalues --   -0.52792  -0.51934  -0.51251  -0.50927  -0.49954
 Alpha  occ. eigenvalues --   -0.49294  -0.48783  -0.48629  -0.48451  -0.47836
 Alpha  occ. eigenvalues --   -0.47772  -0.47437  -0.46891  -0.46536  -0.46436
 Alpha  occ. eigenvalues --   -0.45497  -0.44991  -0.44847  -0.44542  -0.44094
 Alpha  occ. eigenvalues --   -0.43903  -0.43501  -0.43197  -0.42664  -0.42204
 Alpha  occ. eigenvalues --   -0.41861  -0.41813  -0.41661  -0.41337  -0.41053
 Alpha  occ. eigenvalues --   -0.40943  -0.40910  -0.40492  -0.40175  -0.39909
 Alpha  occ. eigenvalues --   -0.39762  -0.39613  -0.38679  -0.37875  -0.37728
 Alpha  occ. eigenvalues --   -0.37206  -0.37010  -0.36636  -0.36342  -0.36309
 Alpha  occ. eigenvalues --   -0.35519  -0.35131  -0.34555  -0.34322  -0.33986
 Alpha  occ. eigenvalues --   -0.33868  -0.33551  -0.32965  -0.32477  -0.32258
 Alpha  occ. eigenvalues --   -0.31421  -0.29556  -0.29317  -0.29256  -0.28429
 Alpha  occ. eigenvalues --   -0.28157  -0.27371  -0.25837  -0.25483  -0.24110
 Alpha  occ. eigenvalues --   -0.23790  -0.23365  -0.22686  -0.22273  -0.18139
 Alpha virt. eigenvalues --   -0.13941  -0.07912  -0.03612  -0.01572  -0.00878
 Alpha virt. eigenvalues --   -0.00536   0.00882   0.02489   0.03078   0.03172
 Alpha virt. eigenvalues --    0.03936   0.04275   0.04688   0.04867   0.05254

 Mulliken charges:
               1
     1  O   -0.217688
     2  O   -0.226863
     3  O   -0.247991
     4  O   -0.187274
     5  O   -0.206751
     6  O   -0.242694
     7  N   -0.069247
     8  N   -0.206961
     9  N   -0.168867
    10  N   -0.334592
    11  C    0.090314
    12  C    0.179624
    13  C   -0.126130
    14  C   -0.070230
    15  C   -0.105102
    16  C   -0.019624
    17  C   -0.186883
    18  C    0.200520
    19  C   -0.091224
    20  C   -0.093519
    21  C    0.081448
    22  C    0.108208
    23  C   -0.092964
    24  C   -0.048882
    25  C    0.165403
    26  C   -0.097485
    27  C    0.009263
    28  C    0.106275
    29  C    0.103041
    30  C    0.021952
    31  C   -0.025889
    32  C    0.103933
    33  C   -0.094494
    34  C    0.170542
    35  C    0.164084
    36  C   -0.001630
    37  C    0.132752
    38  C    0.103734
    39  C   -0.189062
    40  C    0.192366
    41  C   -0.044896
    42  C    0.026161
    43  C   -0.038472
    44  H    0.004298
    45  H   -0.004495
    46  H    0.002400
    47  H    0.138082
    48  H    0.153760
    49  H   -0.065105
    50  H   -0.004944
    51  H    0.001760
    52  H    0.021967
    53  H   -0.004302
    54  H    0.100867
    55  H   -0.012168
    56  H    0.030062
    57  H    0.024289
    58  H    0.018607
    59  H    0.032334
    60  H    0.212138
    61  H    0.026999
    62  H    0.022467
    63  H   -0.001047
    64  H    0.088042
    65  H    0.034860
    66  H   -0.003638
    67  H    0.042778
    68  H    0.037058
    69  H   -0.018245
    70  H    0.001912
    71  H    0.024498
    72  H    0.196014
    73  H    0.017055
    74  H    0.024077
    75  H    0.040238
    76  H    0.067175
    77  H    0.181320
    78  H    0.008791
    79  H    0.035893
 Sum of Mulliken charges =  -0.00000

 Dipole moment (field-independent basis, Debye):
    X=              4.1309    Y=              3.6484    Z=             -1.7795  Tot=              5.7915
 Quadrupole moment (field-independent basis, Debye-Ang):
   XX=           -230.9553   YY=           -243.5995   ZZ=           -261.3868
   XY=              3.2383   XZ=            -23.5996   YZ=            -14.5832

 Normal termination of Gaussian 16 at Wed Jul 24 18:06:41 2019.
