 Gaussian 16, Revision A.03,
 Gaussian 16:  ES64L-G16RevA.03 25-Dec-2016

 --------------------------
 # td=(NStates=1) B3LYP/SVP
 --------------------------

 --
 TD
 --
 Symbolic Z-matrix:
 Charge =  0 Multiplicity = 1

                         Standard orientation:
 ---------------------------------------------------------------------
 Center     Atomic      Atomic             Coordinates (Angstroms)
 Number     Number       Type             X           Y           Z
 ---------------------------------------------------------------------
      1          8           0       -3.178416   -0.879738   -2.968499
      2          8           0        3.318769    2.540978    3.385183
      3          8           0        3.450668    0.715933    4.808024
      4          8           0        7.698798   -1.084506   -1.033015
      5          8           0        6.788929   -2.634244   -2.463173
      6          8           0       -2.604291    1.435871    1.729019
      7          7           0       -0.297360   -2.519915    0.618366
      8          7           0       -2.604551   -1.228966   -0.820649
      9          7           0        1.124696    0.129779   -0.680557
     10          7           0       -1.118177    1.459843   -0.077197
     11          6           0       -3.369735   -1.471524    0.420021
     12          6           0       -2.613874   -2.601020    1.256150
     13          6           0       -1.253304   -2.284246    1.630664
     14          6           0       -0.596712   -1.459791    2.685223
     15          6           0        0.772164   -1.461097    2.319977
     16          6           0        0.891318   -1.958199    1.016820
     17          6           0       -4.756798   -1.855585   -0.057094
     18          6           0        1.834059   -0.803577    3.247466
     19          6           0       -4.804732   -1.774132   -1.354722
     20          6           0        2.053241   -1.980403    0.088424
     21          6           0        2.088465   -0.911936   -0.806187
     22          6           0       -3.433739   -1.197126   -1.834795
     23          6           0        3.020030   -0.491820   -1.771972
     24          6           0       -1.345720   -0.969939    3.871150
     25          6           0       -5.734993   -2.119373    0.857404
     26          6           0        2.602010    0.750937   -2.263847
     27          6           0        1.886029    0.689428    2.897999
     28          6           0        1.473723    1.091071   -1.581293
     29          6           0        4.227181   -1.296399   -2.230203
     30          6           0       -5.860531   -2.057211   -2.341848
     31          6           0        5.327305   -1.005852   -1.294243
     32          6           0        3.213971    1.474732   -3.473301
     33          6           0        0.529718    2.275220   -1.729858
     34          6           0        2.951296    1.246333    3.800077
     35          6           0       -0.593910    2.448578   -0.911504
     36          6           0       -6.907189   -2.860638   -2.081127
     37          6           0        6.659923   -1.683624   -1.707837
     38          6           0       -1.515913    3.553495   -0.897924
     39          6           0       -2.424071    3.359559    0.198117
     40          6           0       -2.056724    1.997200    0.768412
     41          6           0       -1.176448    4.805577   -1.723234
     42          6           0       -3.485956    4.173800    0.766885
     43          6           0       -1.946559    5.849333   -1.838472
     44          1           0       -3.263622   -0.590741    1.176273
     45          1           0       -2.463308   -3.505295    0.553125
     46          1           0       -3.037947   -2.822407    2.231504
     47          1           0       -0.684781   -2.825392   -0.477258
     48          1           0       -1.887641   -0.415173   -0.720244
     49          1           0        1.356753   -0.936480    4.153545
     50          1           0        2.744340   -1.309471    3.071225
     51          1           0        2.702723   -2.724759    0.228158
     52          1           0       -1.861426   -1.801268    4.559601
     53          1           0       -0.614419   -0.643614    4.358943
     54          1           0       -2.110603   -0.116565    3.402194
     55          1           0       -5.868530   -1.693619    1.830598
     56          1           0       -5.737408   -3.253109    1.233333
     57          1           0       -6.642668   -2.026794    0.272191
     58          1           0        2.079777    1.046777    1.884494
     59          1           0        0.875301    1.182567    3.332234
     60          1           0        0.268948    0.136107   -0.029327
     61          1           0        4.314007   -0.768196   -3.202542
     62          1           0        4.165227   -2.372265   -2.252047
     63          1           0       -5.888459   -1.440893   -3.298141
     64          1           0        5.250047   -1.370693   -0.251754
     65          1           0        5.700259   -0.044381   -1.282590
     66          1           0        4.154528    1.113332   -3.986780
     67          1           0        3.347460    2.464148   -3.079568
     68          1           0        2.527699    1.924509   -4.243099
     69          1           0        0.770032    3.008212   -2.373341
     70          1           0       -6.951095   -3.211944   -1.000285
     71          1           0       -7.921907   -3.250477   -2.695290
     72          1           0        3.954279    3.003893    4.032085
     73          1           0       -0.088860    4.671027   -2.112788
     74          1           0       -4.282276    4.343980    0.189206
     75          1           0       -3.584935    3.541862    1.719487
     76          1           0       -2.833648    4.957791    1.260163
     77          1           0        8.565638   -1.498063   -1.400040
     78          1           0       -1.702431    6.747368   -2.463758
     79          1           0       -2.800119    6.009878   -1.111511
 ---------------------------------------------------------------------

 SCF Done:  E(RB3LYP) =  -1947.77505490     A.U. after   22 cycles

 Excitation energies and oscillator strengths:

 Excited State   1:      Singlet-A      0.6607 eV 1876.59 nm  f=0.0039  <S**2>=0.000
     155 ->156         0.70493
 This state for optimization and/or second-order correction.
 Total Energy, E(TD-HF/TD-DFT) =  -1947.75077506
 Copying the excited state density for this state as the 1-particle RhoCI density.

 The electronic state is 1-A.
 Alpha  occ. eigenvalues --  -19.20180 -19.17423 -19.14646 -19.12678 -19.11606
 Alpha  occ. eigenvalues --  -19.07354 -14.38145 -14.37577 -14.32875 -14.29389
 Alpha  occ. eigenvalues --  -10.33724 -10.32044 -10.27634 -10.27307 -10.26166
 Alpha  occ. eigenvalues --  -10.25629 -10.24357 -10.23953 -10.23767 -10.23542
 Alpha  occ. eigenvalues --  -10.22800 -10.22575 -10.22242 -10.21978 -10.21494
 Alpha  occ. eigenvalues --  -10.21249 -10.21150 -10.21094 -10.21014 -10.20652
 Alpha  occ. eigenvalues --  -10.19901 -10.19653 -10.19632 -10.19377 -10.19180
 Alpha  occ. eigenvalues --  -10.18995 -10.18862 -10.18714 -10.18352 -10.17947
 Alpha  occ. eigenvalues --  -10.17856 -10.17802 -10.17593  -1.09763  -1.06137
 Alpha  occ. eigenvalues --   -1.01495  -1.01492  -1.01074  -1.00268  -0.98312
 Alpha  occ. eigenvalues --   -0.95126  -0.92261  -0.91766  -0.85397  -0.82910
 Alpha  occ. eigenvalues --   -0.82241  -0.80987  -0.80381  -0.79743  -0.78323
 Alpha  occ. eigenvalues --   -0.77121  -0.76262  -0.75699  -0.74804  -0.73950
 Alpha  occ. eigenvalues --   -0.71164  -0.70610  -0.70161  -0.69893  -0.67706
 Alpha  occ. eigenvalues --   -0.66560  -0.65587  -0.62834  -0.60735  -0.60031
 Alpha  occ. eigenvalues --   -0.58977  -0.58406  -0.57921  -0.57780  -0.57458
 Alpha  occ. eigenvalues --   -0.55806  -0.55292  -0.53916  -0.53023  -0.52773
 Alpha  occ. eigenvalues --   -0.52371  -0.51823  -0.51036  -0.50139  -0.49564
 Alpha  occ. eigenvalues --   -0.49476  -0.49308  -0.48578  -0.48103  -0.47765
 Alpha  occ. eigenvalues --   -0.47550  -0.47345  -0.46699  -0.46207  -0.46058
 Alpha  occ. eigenvalues --   -0.45336  -0.45234  -0.44622  -0.44553  -0.44351
 Alpha  occ. eigenvalues --   -0.43855  -0.43615  -0.43437  -0.42778  -0.42566
 Alpha  occ. eigenvalues --   -0.42115  -0.41866  -0.41716  -0.41628  -0.41108
 Alpha  occ. eigenvalues --   -0.40932  -0.40582  -0.40124  -0.39958  -0.39580
 Alpha  occ. eigenvalues --   -0.39532  -0.39282  -0.38677  -0.38545  -0.38235
 Alpha  occ. eigenvalues --   -0.37802  -0.37360  -0.36919  -0.36723  -0.36332
 Alpha  occ. eigenvalues --   -0.35787  -0.35573  -0.35424  -0.35048  -0.34198
 Alpha  occ. eigenvalues --   -0.33999  -0.33448  -0.32139  -0.31535  -0.31244
 Alpha  occ. eigenvalues --   -0.31210  -0.29649  -0.29399  -0.29115  -0.27915
 Alpha  occ. eigenvalues --   -0.27602  -0.27450  -0.25326  -0.24876  -0.23528
 Alpha  occ. eigenvalues --   -0.23004  -0.22733  -0.22455  -0.21593  -0.18574
 Alpha virt. eigenvalues --   -0.13537  -0.08038  -0.03190  -0.01332  -0.00853
 Alpha virt. eigenvalues --   -0.00696   0.01119   0.01817   0.02324   0.02803
 Alpha virt. eigenvalues --    0.03353   0.03543   0.04153   0.04165   0.05434

 Mulliken charges:
               1
     1  O   -0.220850
     2  O   -0.262792
     3  O   -0.249833
     4  O   -0.234098
     5  O   -0.225236
     6  O   -0.245415
     7  N   -0.170076
     8  N   -0.195567
     9  N   -0.131482
    10  N   -0.367163
    11  C    0.022352
    12  C    0.158566
    13  C   -0.099795
    14  C   -0.156286
    15  C   -0.145259
    16  C   -0.068054
    17  C   -0.070765
    18  C    0.250055
    19  C   -0.058823
    20  C   -0.031862
    21  C    0.154422
    22  C    0.091866
    23  C   -0.111851
    24  C    0.124098
    25  C    0.052922
    26  C   -0.104049
    27  C   -0.038727
    28  C    0.102263
    29  C    0.173653
    30  C   -0.015454
    31  C    0.022887
    32  C    0.095429
    33  C   -0.012515
    34  C    0.164675
    35  C    0.122447
    36  C   -0.104782
    37  C    0.125447
    38  C    0.019680
    39  C   -0.275557
    40  C    0.208065
    41  C   -0.011811
    42  C    0.159272
    43  C   -0.051065
    44  H    0.072012
    45  H   -0.010099
    46  H   -0.003063
    47  H    0.200362
    48  H    0.177153
    49  H   -0.005569
    50  H   -0.009800
    51  H   -0.031451
    52  H    0.033525
    53  H   -0.096405
    54  H    0.093148
    55  H    0.011500
    56  H    0.030744
    57  H    0.018822
    58  H    0.039396
    59  H    0.079809
    60  H    0.220213
    61  H    0.019171
    62  H    0.025157
    63  H    0.030115
    64  H    0.052117
    65  H    0.005906
    66  H    0.051503
    67  H    0.005297
    68  H    0.033082
    69  H   -0.090984
    70  H    0.011728
    71  H    0.058720
    72  H    0.203563
    73  H    0.019527
    74  H    0.031587
    75  H    0.024629
    76  H    0.031997
    77  H    0.212551
    78  H    0.030581
    79  H    0.034526
 Sum of Mulliken charges =  -0.00000

 Dipole moment (field-independent basis, Debye):
    X=              5.3433    Y=              2.6297    Z=             -0.6701  Tot=              5.9929
 Quadrupole moment (field-independent basis, Debye-Ang):
   XX=           -227.3071   YY=           -239.2520   ZZ=           -274.0283
   XY=              9.3336   XZ=            -23.8065   YZ=             -9.1636

 Normal termination of Gaussian 16 at Sat Jul 27 15:36:14 2019.
