 Gaussian 16, Revision A.03,
 Gaussian 16:  ES64L-G16RevA.03 25-Dec-2016

 --------------------------
 # td=(NStates=1) B3LYP/SVP
 --------------------------

 --
 TD
 --
 Symbolic Z-matrix:
 Charge =  0 Multiplicity = 1

                         Standard orientation:
 ---------------------------------------------------------------------
 Center     Atomic      Atomic             Coordinates (Angstroms)
 Number     Number       Type             X           Y           Z
 ---------------------------------------------------------------------
      1          8           0       -3.178207   -2.342618   -2.387968
      2          8           0        3.043267    4.121852    2.302452
      3          8           0        3.619807    2.684126    3.974613
      4          8           0        7.666118   -1.787949   -0.249474
      5          8           0        6.720627   -3.399158   -1.591904
      6          8           0       -2.556938    1.739750    1.070696
      7          7           0       -0.142522   -1.998852    1.438802
      8          7           0       -2.519797   -1.487540   -0.279565
      9          7           0        1.160426   -0.024494   -0.735746
     10          7           0       -1.033958    1.297663   -0.701567
     11          6           0       -3.248460   -1.188209    0.914803
     12          6           0       -2.513322   -1.859836    2.248084
     13          6           0       -1.164702   -1.418087    2.274571
     14          6           0       -0.534457   -0.377036    3.111140
     15          6           0        0.840612   -0.354366    2.702466
     16          6           0        1.021812   -1.360472    1.710668
     17          6           0       -4.582271   -1.884529    0.770195
     18          6           0        1.840675    0.592721    3.187196
     19          6           0       -4.654965   -2.340264   -0.555185
     20          6           0        2.141517   -1.566374    0.852036
     21          6           0        2.133510   -0.876604   -0.398446
     22          6           0       -3.368661   -2.124392   -1.211475
     23          6           0        3.096615   -1.030336   -1.540546
     24          6           0       -1.295038    0.573538    3.966340
     25          6           0       -5.778950   -1.739454    1.760023
     26          6           0        2.599526   -0.098646   -2.557138
     27          6           0        1.769072    1.974372    2.528169
     28          6           0        1.392011    0.548929   -1.939925
     29          6           0        4.194823   -1.986413   -1.611860
     30          6           0       -5.698738   -3.111113   -1.290045
     31          6           0        5.506671   -1.363145   -0.903724
     32          6           0        3.242843    0.146466   -3.938043
     33          6           0        0.440809    1.340648   -2.572925
     34          6           0        2.930973    2.873650    3.080171
     35          6           0       -0.673686    1.894520   -1.928715
     36          6           0       -6.761372   -3.734946   -0.751987
     37          6           0        6.685138   -2.333510   -0.954446
     38          6           0       -1.640712    2.982864   -2.067553
     39          6           0       -2.511960    3.133394   -1.030049
     40          6           0       -2.013347    2.050526   -0.096038
     41          6           0       -1.668430    3.813964   -3.239477
     42          6           0       -3.650081    4.076451   -0.894382
     43          6           0       -2.341281    4.893732   -3.582085
     44          1           0       -3.454660   -0.128654    1.145796
     45          1           0       -2.352041   -3.006544    2.135570
     46          1           0       -3.121038   -1.588685    3.216462
     47          1           0       -0.260562   -2.594728    0.720468
     48          1           0       -1.974519   -0.625212   -0.625080
     49          1           0        1.652977    0.801276    4.431169
     50          1           0        2.791699    0.099395    2.909515
     51          1           0        2.786990   -2.337943    1.091407
     52          1           0       -1.823715    0.134048    4.634259
     53          1           0       -0.733418    1.129998    4.361767
     54          1           0       -1.899102    1.209637    3.299428
     55          1           0       -5.694487   -0.841161    2.252131
     56          1           0       -5.670715   -2.674742    2.494698
     57          1           0       -6.696623   -1.639644    1.496610
     58          1           0        1.927532    1.884698    1.258014
     59          1           0        0.742568    2.423937    2.705402
     60          1           0        0.113514    0.241591   -0.259113
     61          1           0        4.756431   -2.126256   -2.580680
     62          1           0        4.052697   -2.961607   -1.140855
     63          1           0       -5.338763   -3.206456   -2.324318
     64          1           0        5.150032   -1.174555    0.115460
     65          1           0        5.695067   -0.333446   -1.210964
     66          1           0        3.887571   -0.644557   -4.467532
     67          1           0        3.889514    1.148738   -3.904397
     68          1           0        2.187249    0.307462   -4.592158
     69          1           0        0.539394    1.534409   -3.557329
     70          1           0       -6.755427   -3.736454    0.342763
     71          1           0       -7.465748   -4.215637   -1.461641
     72          1           0        3.596689    4.747262    2.762291
     73          1           0       -0.789881    3.483585   -4.053638
     74          1           0       -4.446065    3.997336   -1.758264
     75          1           0       -3.840015    4.049000    0.231667
     76          1           0       -3.423583    4.997081   -1.238223
     77          1           0        8.298291   -2.594832   -0.027326
     78          1           0       -2.402965    5.299704   -4.708412
     79          1           0       -3.108373    5.418234   -2.946641
 ---------------------------------------------------------------------

 SCF Done:  E(RB3LYP) =  -1947.74273763     A.U. after   22 cycles

 Excitation energies and oscillator strengths:

 Excited State   1:      Singlet-A      0.4389 eV 2824.96 nm  f=0.0002  <S**2>=0.000
     155 ->156         0.70407
 This state for optimization and/or second-order correction.
 Total Energy, E(TD-HF/TD-DFT) =  -1947.72660880
 Copying the excited state density for this state as the 1-particle RhoCI density.

 The electronic state is 1-A.
 Alpha  occ. eigenvalues --  -19.21213 -19.14730 -19.14603 -19.14043 -19.11818
 Alpha  occ. eigenvalues --  -19.08733 -14.37516 -14.36104 -14.32981 -14.32174
 Alpha  occ. eigenvalues --  -10.34276 -10.31758 -10.29071 -10.27420 -10.26345
 Alpha  occ. eigenvalues --  -10.26338 -10.26151 -10.24510 -10.24228 -10.23889
 Alpha  occ. eigenvalues --  -10.22607 -10.22311 -10.22134 -10.22089 -10.22042
 Alpha  occ. eigenvalues --  -10.22039 -10.21929 -10.21820 -10.21481 -10.21233
 Alpha  occ. eigenvalues --  -10.20866 -10.20794 -10.20285 -10.20100 -10.20088
 Alpha  occ. eigenvalues --  -10.19937 -10.18671 -10.17945 -10.17764 -10.17764
 Alpha  occ. eigenvalues --  -10.16892 -10.16867 -10.13724  -1.11258  -1.09605
 Alpha  occ. eigenvalues --   -1.01481  -1.01107  -1.00239  -0.98856  -0.98808
 Alpha  occ. eigenvalues --   -0.95862  -0.92775  -0.91833  -0.83486  -0.82507
 Alpha  occ. eigenvalues --   -0.81996  -0.80405  -0.79115  -0.78840  -0.78018
 Alpha  occ. eigenvalues --   -0.76701  -0.75792  -0.75194  -0.73852  -0.72492
 Alpha  occ. eigenvalues --   -0.71886  -0.71409  -0.70201  -0.68734  -0.68118
 Alpha  occ. eigenvalues --   -0.66657  -0.65321  -0.64008  -0.61066  -0.60750
 Alpha  occ. eigenvalues --   -0.59704  -0.58608  -0.57495  -0.57475  -0.56056
 Alpha  occ. eigenvalues --   -0.55619  -0.55426  -0.54374  -0.53875  -0.52649
 Alpha  occ. eigenvalues --   -0.52192  -0.51447  -0.50814  -0.50596  -0.49922
 Alpha  occ. eigenvalues --   -0.49598  -0.49221  -0.48781  -0.48476  -0.47683
 Alpha  occ. eigenvalues --   -0.47155  -0.46675  -0.46225  -0.45922  -0.45824
 Alpha  occ. eigenvalues --   -0.45691  -0.45186  -0.45017  -0.44552  -0.44018
 Alpha  occ. eigenvalues --   -0.43788  -0.42792  -0.42659  -0.42167  -0.42051
 Alpha  occ. eigenvalues --   -0.41864  -0.41583  -0.41366  -0.40938  -0.40765
 Alpha  occ. eigenvalues --   -0.40587  -0.40267  -0.40167  -0.40037  -0.39694
 Alpha  occ. eigenvalues --   -0.39630  -0.39105  -0.38929  -0.38698  -0.38382
 Alpha  occ. eigenvalues --   -0.37632  -0.37478  -0.37184  -0.36690  -0.36518
 Alpha  occ. eigenvalues --   -0.35928  -0.35442  -0.34834  -0.34488  -0.33869
 Alpha  occ. eigenvalues --   -0.33732  -0.33600  -0.32665  -0.32166  -0.31196
 Alpha  occ. eigenvalues --   -0.31013  -0.30251  -0.29538  -0.29164  -0.28611
 Alpha  occ. eigenvalues --   -0.28366  -0.26151  -0.25857  -0.25577  -0.24139
 Alpha  occ. eigenvalues --   -0.23850  -0.22568  -0.22311  -0.21870  -0.17876
 Alpha virt. eigenvalues --   -0.13663  -0.08572  -0.04245  -0.02519  -0.02187
 Alpha virt. eigenvalues --    0.00619   0.01186   0.01685   0.02314   0.02418
 Alpha virt. eigenvalues --    0.02712   0.03810   0.04062   0.04225   0.04754

 Mulliken charges:
               1
     1  O   -0.226868
     2  O   -0.287320
     3  O   -0.126950
     4  O   -0.187128
     5  O   -0.248396
     6  O   -0.310981
     7  N   -0.033409
     8  N   -0.238157
     9  N   -0.118405
    10  N   -0.380205
    11  C    0.024006
    12  C    0.125882
    13  C   -0.081674
    14  C   -0.172064
    15  C   -0.083528
    16  C   -0.022842
    17  C   -0.153211
    18  C    0.050091
    19  C   -0.101920
    20  C   -0.067932
    21  C    0.086858
    22  C    0.148870
    23  C   -0.036558
    24  C    0.392032
    25  C    0.162834
    26  C   -0.112288
    27  C   -0.093526
    28  C    0.133374
    29  C    0.074981
    30  C   -0.002129
    31  C   -0.073378
    32  C   -0.035429
    33  C   -0.059454
    34  C    0.162029
    35  C    0.168495
    36  C   -0.009083
    37  C    0.184671
    38  C    0.072882
    39  C   -0.178061
    40  C    0.210845
    41  C   -0.034048
    42  C    0.137429
    43  C   -0.116761
    44  H    0.064977
    45  H    0.002091
    46  H    0.018651
    47  H    0.070852
    48  H    0.168411
    49  H    0.043783
    50  H   -0.004087
    51  H   -0.014090
    52  H   -0.057482
    53  H   -0.149259
    54  H    0.030529
    55  H   -0.009882
    56  H    0.045532
    57  H   -0.033051
    58  H    0.063808
    59  H    0.065276
    60  H    0.275576
    61  H    0.034165
    62  H    0.028489
    63  H    0.004222
    64  H    0.031339
    65  H    0.043251
    66  H    0.064220
    67  H    0.066701
    68  H    0.058883
    69  H   -0.064398
    70  H    0.014697
    71  H    0.029682
    72  H    0.162549
    73  H    0.021926
    74  H    0.039851
    75  H    0.058577
    76  H   -0.013511
    77  H    0.220096
    78  H    0.054397
    79  H    0.019654
 Sum of Mulliken charges =  -0.00000

 Dipole moment (field-independent basis, Debye):
    X=              3.4555    Y=              2.8804    Z=             -0.9404  Tot=              4.5958
 Quadrupole moment (field-independent basis, Debye-Ang):
   XX=           -231.2150   YY=           -248.8206   ZZ=           -257.5404
   XY=            -14.6044   XZ=            -13.3567   YZ=            -22.1184

 Normal termination of Gaussian 16 at Thu Jul 25 08:11:58 2019.
