 Gaussian 16, Revision A.03,
 Gaussian 16:  ES64L-G16RevA.03 25-Dec-2016

 --------------------------
 # td=(NStates=1) B3LYP/SVP
 --------------------------

 --
 TD
 --
 Symbolic Z-matrix:
 Charge =  0 Multiplicity = 1

                         Standard orientation:
 ---------------------------------------------------------------------
 Center     Atomic      Atomic             Coordinates (Angstroms)
 Number     Number       Type             X           Y           Z
 ---------------------------------------------------------------------
      1          8           0        5.478265    0.111340   -3.184681
      2          8           0       -3.338659   -2.927924    2.947424
      3          8           0       -3.422683   -0.710636    2.970405
      4          8           0       -1.402948    7.212815    1.632831
      5          8           0       -0.121175    6.961028   -0.340483
      6          8           0       -1.954989   -3.936022    0.037930
      7          7           0        2.288483    0.741156    0.727760
      8          7           0        4.459097   -0.682209   -1.242365
      9          7           0       -1.906145    0.705291   -0.291194
     10          7           0       -2.713252   -1.771820   -0.536941
     11          6           0        4.773493   -1.323900   -0.047225
     12          6           0        4.360963   -0.596972    1.271714
     13          6           0        2.928263   -0.350083    1.422596
     14          6           0        1.858648   -0.875452    2.183459
     15          6           0        0.676006   -0.220040    1.909480
     16          6           0        0.928919    0.822647    0.925055
     17          6           0        6.300578   -1.462856   -0.277049
     18          6           0       -0.600337   -0.341367    2.646879
     19          6           0        6.770172   -0.840043   -1.389246
     20          6           0        0.196061    1.845370    0.410683
     21          6           0       -1.112393    1.889799   -0.142187
     22          6           0        5.541854   -0.357396   -2.115788
     23          6           0       -1.851418    2.943085   -0.897390
     24          6           0        2.033787   -2.007656    3.183024
     25          6           0        7.150165   -2.042479    0.792857
     26          6           0       -3.025548    2.487104   -1.400100
     27          6           0       -1.267889   -1.814003    2.612761
     28          6           0       -3.090743    0.987899   -1.018034
     29          6           0       -1.318215    4.383641   -0.921943
     30          6           0        7.997748   -0.813559   -2.059808
     31          6           0       -1.461080    5.091882    0.488681
     32          6           0       -4.036480    3.245184   -2.005112
     33          6           0       -4.014062    0.127156   -1.433608
     34          6           0       -2.712931   -1.709472    2.759137
     35          6           0       -3.779694   -1.268240   -1.225506
     36          6           0        9.229829   -1.006719   -1.519035
     37          6           0       -0.935339    6.559134    0.489021
     38          6           0       -4.739352   -2.444513   -1.535545
     39          6           0       -4.089422   -3.578001   -1.064820
     40          6           0       -2.838620   -3.153888   -0.460174
     41          6           0       -5.983336   -2.229892   -2.170833
     42          6           0       -4.538611   -4.980597   -1.270200
     43          6           0       -6.840094   -3.104580   -2.668381
     44          1           0        4.522984   -2.342847   -0.038160
     45          1           0        4.973079    0.298993    1.257823
     46          1           0        4.628939   -1.178405    2.275759
     47          1           0        2.765772    1.429978   -0.068735
     48          1           0        3.443688   -0.520927   -1.555074
     49          1           0       -0.707655   -0.197137    3.723295
     50          1           0       -1.170592    0.436183    2.262201
     51          1           0        0.626405    2.921277    0.224530
     52          1           0        3.174114   -2.148536    3.345357
     53          1           0        1.476975   -1.905212    4.180891
     54          1           0        1.696262   -3.062806    2.645958
     55          1           0        6.511389   -2.745185    1.365625
     56          1           0        7.480935   -1.437184    1.550321
     57          1           0        8.029141   -2.598185    0.473980
     58          1           0       -1.095501   -2.277697    1.423369
     59          1           0       -0.716139   -2.335309    3.348351
     60          1           0       -1.855314   -0.348173   -0.080249
     61          1           0       -1.830806    5.008241   -1.678063
     62          1           0       -0.220611    4.476696   -1.061332
     63          1           0        7.940226   -0.571395   -3.036141
     64          1           0       -0.865356    4.500988    1.156031
     65          1           0       -2.623252    5.275211    0.739392
     66          1           0       -3.647172    4.192157   -2.375714
     67          1           0       -5.022390    3.429219   -1.368945
     68          1           0       -4.543352    2.558339   -2.910460
     69          1           0       -5.020344    0.547038   -1.865888
     70          1           0        9.386617   -1.295638   -0.489989
     71          1           0       10.175941   -0.951320   -2.250236
     72          1           0       -4.339236   -2.726671    3.142371
     73          1           0       -6.127509   -1.270900   -2.334734
     74          1           0       -5.408371   -5.189810   -0.681987
     75          1           0       -4.750122   -5.413779   -2.274280
     76          1           0       -3.631526   -5.527353   -0.812025
     77          1           0       -1.052633    8.127457    1.643729
     78          1           0       -7.708740   -2.849472   -3.151401
     79          1           0       -6.361161   -4.106709   -2.673984
 ---------------------------------------------------------------------

 SCF Done:  E(RB3LYP) =  -1947.87936349     A.U. after   17 cycles

 Excitation energies and oscillator strengths:

 Excited State   1:      Singlet-A      1.9353 eV  640.65 nm  f=0.3949  <S**2>=0.000
     154 ->156         0.10029
     155 ->156         0.69831
     155 <-156        -0.11081
 This state for optimization and/or second-order correction.
 Total Energy, E(TD-HF/TD-DFT) =  -1947.80824343
 Copying the excited state density for this state as the 1-particle RhoCI density.

 The electronic state is 1-A.
 Alpha  occ. eigenvalues --  -19.19668 -19.15539 -19.14546 -19.11118 -19.10667
 Alpha  occ. eigenvalues --  -19.10514 -14.39347 -14.36090 -14.35230 -14.30294
 Alpha  occ. eigenvalues --  -10.33778 -10.30343 -10.28652 -10.26958 -10.25399
 Alpha  occ. eigenvalues --  -10.24897 -10.24681 -10.24486 -10.23946 -10.23305
 Alpha  occ. eigenvalues --  -10.22969 -10.22662 -10.22439 -10.21956 -10.21874
 Alpha  occ. eigenvalues --  -10.21789 -10.21775 -10.21652 -10.21106 -10.20456
 Alpha  occ. eigenvalues --  -10.20388 -10.20254 -10.19861 -10.19653 -10.19632
 Alpha  occ. eigenvalues --  -10.19586 -10.19494 -10.19281 -10.19141 -10.18947
 Alpha  occ. eigenvalues --  -10.18703 -10.18633 -10.18117  -1.08656  -1.05568
 Alpha  occ. eigenvalues --   -1.05351  -1.01445  -0.99004  -0.97082  -0.95790
 Alpha  occ. eigenvalues --   -0.95391  -0.94704  -0.91357  -0.82655  -0.82486
 Alpha  occ. eigenvalues --   -0.82052  -0.81346  -0.80806  -0.80041  -0.77830
 Alpha  occ. eigenvalues --   -0.77651  -0.76139  -0.75724  -0.75437  -0.72457
 Alpha  occ. eigenvalues --   -0.71634  -0.70638  -0.69639  -0.68618  -0.67755
 Alpha  occ. eigenvalues --   -0.66627  -0.66095  -0.64607  -0.61682  -0.61107
 Alpha  occ. eigenvalues --   -0.59956  -0.59319  -0.57756  -0.57083  -0.56378
 Alpha  occ. eigenvalues --   -0.55837  -0.55030  -0.54561  -0.54179  -0.53573
 Alpha  occ. eigenvalues --   -0.52036  -0.51945  -0.51297  -0.50353  -0.49384
 Alpha  occ. eigenvalues --   -0.49162  -0.48964  -0.48607  -0.47882  -0.47779
 Alpha  occ. eigenvalues --   -0.47030  -0.46825  -0.46315  -0.46023  -0.45245
 Alpha  occ. eigenvalues --   -0.45025  -0.44703  -0.44587  -0.44183  -0.43975
 Alpha  occ. eigenvalues --   -0.43753  -0.43467  -0.43116  -0.42943  -0.42607
 Alpha  occ. eigenvalues --   -0.42210  -0.41887  -0.41398  -0.40912  -0.40783
 Alpha  occ. eigenvalues --   -0.40543  -0.40304  -0.39880  -0.39648  -0.39381
 Alpha  occ. eigenvalues --   -0.39331  -0.39111  -0.39048  -0.38730  -0.38249
 Alpha  occ. eigenvalues --   -0.37876  -0.37801  -0.37634  -0.37238  -0.36916
 Alpha  occ. eigenvalues --   -0.36501  -0.35795  -0.35587  -0.35159  -0.34357
 Alpha  occ. eigenvalues --   -0.33901  -0.33738  -0.33397  -0.32591  -0.32393
 Alpha  occ. eigenvalues --   -0.31699  -0.29322  -0.29023  -0.28491  -0.27585
 Alpha  occ. eigenvalues --   -0.26709  -0.26508  -0.25810  -0.25655  -0.24880
 Alpha  occ. eigenvalues --   -0.24466  -0.24207  -0.23788  -0.22502  -0.19083
 Alpha virt. eigenvalues --   -0.11480  -0.07168  -0.05901  -0.01947  -0.01476
 Alpha virt. eigenvalues --    0.00354   0.00455   0.01305   0.01865   0.02514
 Alpha virt. eigenvalues --    0.02757   0.03752   0.04030   0.04430   0.04845

 Mulliken charges:
               1
     1  O   -0.154718
     2  O   -0.248590
     3  O   -0.272385
     4  O   -0.216378
     5  O   -0.230340
     6  O   -0.265216
     7  N   -0.190951
     8  N   -0.258436
     9  N   -0.172160
    10  N   -0.310235
    11  C    0.173943
    12  C    0.171203
    13  C   -0.030683
    14  C   -0.105320
    15  C   -0.056340
    16  C    0.161088
    17  C   -0.230049
    18  C    0.105675
    19  C   -0.018392
    20  C   -0.134455
    21  C    0.066477
    22  C    0.145904
    23  C   -0.035169
    24  C    0.003242
    25  C    0.119381
    26  C   -0.077402
    27  C   -0.080092
    28  C    0.144741
    29  C    0.060710
    30  C    0.021054
    31  C   -0.042644
    32  C   -0.004670
    33  C   -0.152116
    34  C    0.179240
    35  C    0.096714
    36  C   -0.048762
    37  C    0.172673
    38  C    0.061049
    39  C   -0.185655
    40  C    0.195597
    41  C    0.010194
    42  C    0.056803
    43  C    0.053926
    44  H   -0.004960
    45  H   -0.007365
    46  H    0.024175
    47  H    0.166639
    48  H    0.139771
    49  H    0.003529
    50  H   -0.021180
    51  H    0.009265
    52  H    0.008337
    53  H    0.049938
    54  H    0.063199
    55  H   -0.008318
    56  H    0.008540
    57  H    0.028803
    58  H    0.128203
    59  H    0.029726
    60  H    0.181994
    61  H    0.010834
    62  H    0.025980
    63  H   -0.037000
    64  H    0.045421
    65  H    0.059182
    66  H    0.024497
    67  H    0.055425
    68  H    0.035416
    69  H    0.031611
    70  H    0.012825
    71  H    0.047560
    72  H    0.204807
    73  H   -0.099618
    74  H    0.017293
    75  H    0.048857
    76  H    0.039772
    77  H    0.189424
    78  H   -0.002034
    79  H    0.010997
 Sum of Mulliken charges =  -0.00000

 Dipole moment (field-independent basis, Debye):
    X=              0.1021    Y=              2.8781    Z=              1.9773  Tot=              3.4933
 Quadrupole moment (field-independent basis, Debye-Ang):
   XX=           -220.3412   YY=           -244.3347   ZZ=           -260.8000
   XY=            -16.4371   XZ=             35.4613   YZ=              5.7549

 Normal termination of Gaussian 16 at Thu Sep 12 14:23:40 2019.
