 Gaussian 16, Revision A.03,
 Gaussian 16:  ES64L-G16RevA.03 25-Dec-2016

 --------------------------
 # td=(NStates=1) B3LYP/SVP
 --------------------------

 --
 TD
 --
 Symbolic Z-matrix:
 Charge =  0 Multiplicity = 1

                         Standard orientation:
 ---------------------------------------------------------------------
 Center     Atomic      Atomic             Coordinates (Angstroms)
 Number     Number       Type             X           Y           Z
 ---------------------------------------------------------------------
      1          8           0        5.251489   -0.060269   -3.332831
      2          8           0       -2.751598   -2.989017    3.456041
      3          8           0       -3.339659   -0.884976    2.945934
      4          8           0       -2.006091    7.201662    1.442787
      5          8           0       -0.919930    7.058483   -0.510070
      6          8           0       -1.437497   -4.078584    0.053101
      7          7           0        2.273520    1.132235    0.529160
      8          7           0        4.225023   -0.646560   -1.271619
      9          7           0       -1.746146    0.705783   -0.541442
     10          7           0       -2.433992   -2.019091   -0.458622
     11          6           0        4.670478   -1.138382    0.046457
     12          6           0        4.310051   -0.094104    1.210143
     13          6           0        2.883130    0.159108    1.371940
     14          6           0        1.868967   -0.431662    2.112675
     15          6           0        0.674145    0.159014    1.841050
     16          6           0        0.902183    1.149453    0.768474
     17          6           0        6.195380   -1.356175   -0.209548
     18          6           0       -0.583741   -0.062619    2.585219
     19          6           0        6.580524   -0.840598   -1.370649
     20          6           0        0.209989    2.106870    0.083479
     21          6           0       -1.121465    1.861073   -0.467698
     22          6           0        5.267192   -0.481669   -2.144037
     23          6           0       -1.922000    2.780002   -1.017600
     24          6           0        2.147377   -1.456891    3.206339
     25          6           0        7.076851   -1.823153    0.961610
     26          6           0       -3.155274    2.273226   -1.438179
     27          6           0       -1.038170   -1.531734    2.773138
     28          6           0       -3.117515    0.838003   -1.158425
     29          6           0       -1.713691    4.397573   -1.021480
     30          6           0        7.888864   -0.610626   -1.986418
     31          6           0       -1.814729    5.036028    0.443913
     32          6           0       -4.369199    2.831778   -2.006917
     33          6           0       -3.881149   -0.264162   -1.411231
     34          6           0       -2.454499   -1.741659    3.028218
     35          6           0       -3.514255   -1.685282   -0.994581
     36          6           0        9.097351   -0.719072   -1.407300
     37          6           0       -1.526238    6.583870    0.360993
     38          6           0       -4.372803   -2.795450   -1.487871
     39          6           0       -3.679736   -3.912931   -1.042249
     40          6           0       -2.387294   -3.494441   -0.439894
     41          6           0       -5.621753   -2.687129   -2.033968
     42          6           0       -4.067256   -5.344163   -1.173044
     43          6           0       -6.533661   -3.675546   -2.331280
     44          1           0        4.051891   -1.938809    0.179860
     45          1           0        4.909706    0.713096    1.021766
     46          1           0        4.717032   -0.740314    2.078479
     47          1           0        2.698206    1.944696   -0.092338
     48          1           0        3.281064   -0.678425   -1.548306
     49          1           0       -0.266343    0.236530    3.399432
     50          1           0       -1.436376    0.577893    2.105425
     51          1           0        0.652164    3.183827   -0.157269
     52          1           0        3.275284   -1.542116    3.541706
     53          1           0        1.643193   -1.044081    4.079130
     54          1           0        1.762880   -2.572525    3.168315
     55          1           0        6.495066   -2.290631    1.841726
     56          1           0        7.776983   -1.081063    1.753709
     57          1           0        7.696012   -2.613012    0.571227
     58          1           0       -1.019659   -1.904451    1.606964
     59          1           0       -0.320342   -2.021940    3.488290
     60          1           0       -1.385907   -0.161941   -0.308111
     61          1           0       -2.386308    4.866445   -1.676486
     62          1           0       -0.615337    4.606949   -1.501535
     63          1           0        7.845276   -0.481299   -3.040189
     64          1           0       -1.089804    4.466024    1.244679
     65          1           0       -2.925631    4.956842    0.835701
     66          1           0       -4.571373    3.982848   -1.866767
     67          1           0       -5.264506    2.509907   -1.347045
     68          1           0       -4.409481    2.579219   -3.133263
     69          1           0       -4.823941   -0.052438   -1.966477
     70          1           0        9.276229   -0.816994   -0.382667
     71          1           0        9.893299   -0.670737   -2.097548
     72          1           0       -3.700121   -2.880289    3.394549
     73          1           0       -5.799298   -1.683351   -2.523077
     74          1           0       -4.871901   -5.762970   -0.495302
     75          1           0       -4.456524   -5.787332   -2.142279
     76          1           0       -3.169697   -6.064148   -0.545485
     77          1           0       -1.796664    8.126536    1.375043
     78          1           0       -7.490400   -3.489254   -2.817090
     79          1           0       -6.165544   -4.828971   -2.194495
 ---------------------------------------------------------------------

 SCF Done:  E(RB3LYP) =  -1947.80840750     A.U. after   17 cycles

 Excitation energies and oscillator strengths:

 Excited State   1:      Singlet-A      1.6462 eV  753.16 nm  f=0.4086  <S**2>=0.000
     155 ->156         0.71152
     155 <-156        -0.15493
 This state for optimization and/or second-order correction.
 Total Energy, E(TD-HF/TD-DFT) =  -1947.74791107
 Copying the excited state density for this state as the 1-particle RhoCI density.

 The electronic state is 1-A.
 Alpha  occ. eigenvalues --  -19.19001 -19.17073 -19.13534 -19.12510 -19.11082
 Alpha  occ. eigenvalues --  -19.09380 -14.38842 -14.35371 -14.35013 -14.29746
 Alpha  occ. eigenvalues --  -10.32377 -10.30722 -10.28630 -10.28223 -10.24602
 Alpha  occ. eigenvalues --  -10.24390 -10.23887 -10.23594 -10.23128 -10.23019
 Alpha  occ. eigenvalues --  -10.22755 -10.22515 -10.22299 -10.21988 -10.21762
 Alpha  occ. eigenvalues --  -10.21721 -10.21602 -10.21552 -10.21484 -10.21287
 Alpha  occ. eigenvalues --  -10.20825 -10.20719 -10.20607 -10.20530 -10.20325
 Alpha  occ. eigenvalues --  -10.20204 -10.20190 -10.20149 -10.19842 -10.19790
 Alpha  occ. eigenvalues --  -10.19734 -10.18919 -10.18077  -1.11915  -1.09235
 Alpha  occ. eigenvalues --   -1.03695  -1.02762  -0.99904  -0.98286  -0.97696
 Alpha  occ. eigenvalues --   -0.97068  -0.93881  -0.93217  -0.82810  -0.82043
 Alpha  occ. eigenvalues --   -0.81851  -0.81723  -0.80863  -0.79419  -0.77299
 Alpha  occ. eigenvalues --   -0.76305  -0.76016  -0.75277  -0.74472  -0.72257
 Alpha  occ. eigenvalues --   -0.71318  -0.70660  -0.69707  -0.68779  -0.67939
 Alpha  occ. eigenvalues --   -0.67372  -0.66018  -0.64022  -0.61992  -0.60915
 Alpha  occ. eigenvalues --   -0.60150  -0.59027  -0.58472  -0.57587  -0.56754
 Alpha  occ. eigenvalues --   -0.56048  -0.55424  -0.55027  -0.53347  -0.53164
 Alpha  occ. eigenvalues --   -0.52756  -0.51625  -0.51036  -0.49974  -0.49260
 Alpha  occ. eigenvalues --   -0.49088  -0.48607  -0.48529  -0.48059  -0.47885
 Alpha  occ. eigenvalues --   -0.47212  -0.46889  -0.46575  -0.45889  -0.45443
 Alpha  occ. eigenvalues --   -0.45215  -0.45093  -0.44807  -0.44235  -0.43856
 Alpha  occ. eigenvalues --   -0.43825  -0.43613  -0.43055  -0.43034  -0.42142
 Alpha  occ. eigenvalues --   -0.42008  -0.41937  -0.41442  -0.40998  -0.40786
 Alpha  occ. eigenvalues --   -0.40461  -0.40341  -0.40091  -0.39926  -0.39126
 Alpha  occ. eigenvalues --   -0.39006  -0.38757  -0.38535  -0.38449  -0.38258
 Alpha  occ. eigenvalues --   -0.37738  -0.37608  -0.37328  -0.37010  -0.36818
 Alpha  occ. eigenvalues --   -0.36556  -0.35819  -0.35119  -0.35102  -0.34756
 Alpha  occ. eigenvalues --   -0.34194  -0.33601  -0.33317  -0.32959  -0.31739
 Alpha  occ. eigenvalues --   -0.30839  -0.30456  -0.29071  -0.28833  -0.28661
 Alpha  occ. eigenvalues --   -0.26798  -0.26409  -0.25396  -0.25136  -0.24978
 Alpha  occ. eigenvalues --   -0.24892  -0.24487  -0.24122  -0.22764  -0.17774
 Alpha virt. eigenvalues --   -0.11665  -0.07867  -0.05878  -0.01508  -0.00016
 Alpha virt. eigenvalues --    0.00909   0.01154   0.01370   0.02575   0.02979
 Alpha virt. eigenvalues --    0.03635   0.04181   0.04629   0.04923   0.05085

 Mulliken charges:
               1
     1  O   -0.271740
     2  O   -0.162241
     3  O   -0.266638
     4  O   -0.153740
     5  O   -0.170380
     6  O   -0.169290
     7  N   -0.169178
     8  N   -0.187493
     9  N   -0.086421
    10  N   -0.219403
    11  C    0.122352
    12  C    0.230071
    13  C   -0.044047
    14  C   -0.084192
    15  C   -0.116283
    16  C    0.126096
    17  C   -0.140239
    18  C    0.222958
    19  C   -0.017190
    20  C   -0.187447
    21  C    0.032470
    22  C    0.164544
    23  C   -0.087292
    24  C    0.011711
    25  C   -0.019397
    26  C   -0.063634
    27  C   -0.063366
    28  C    0.117175
    29  C    0.073355
    30  C   -0.010385
    31  C   -0.097894
    32  C    0.000138
    33  C   -0.113109
    34  C    0.127983
    35  C    0.066910
    36  C    0.032949
    37  C    0.115799
    38  C    0.049924
    39  C   -0.143753
    40  C    0.166976
    41  C   -0.053942
    42  C   -0.042481
    43  C   -0.056942
    44  H   -0.025166
    45  H   -0.039879
    46  H    0.006673
    47  H    0.165129
    48  H    0.117512
    49  H   -0.075127
    50  H    0.046418
    51  H    0.032541
    52  H    0.022401
    53  H    0.015108
    54  H    0.066119
    55  H    0.018981
    56  H    0.057449
    57  H    0.039386
    58  H    0.115221
    59  H    0.034797
    60  H    0.101630
    61  H   -0.005517
    62  H    0.039714
    63  H    0.000060
    64  H    0.076928
    65  H    0.049749
    66  H    0.023550
    67  H    0.046164
    68  H    0.059405
    69  H   -0.012026
    70  H    0.001049
    71  H    0.016686
    72  H    0.156587
    73  H    0.015045
    74  H    0.032164
    75  H    0.053401
    76  H    0.044922
    77  H    0.165448
    78  H    0.033128
    79  H    0.041060
 Sum of Mulliken charges =  -0.00000

 Dipole moment (field-independent basis, Debye):
    X=             -0.5712    Y=              2.1063    Z=              3.2052  Tot=              3.8777
 Quadrupole moment (field-independent basis, Debye-Ang):
   XX=           -222.2324   YY=           -240.1665   ZZ=           -263.9951
   XY=             -6.0718   XZ=             38.6714   YZ=              7.3028

 Normal termination of Gaussian 16 at Thu Oct  3 22:28:12 2019.
