 Gaussian 16, Revision A.03,
 Gaussian 16:  ES64L-G16RevA.03 25-Dec-2016

 --------------------------
 # td=(NStates=1) B3LYP/SVP
 --------------------------

 --
 TD
 --
 Symbolic Z-matrix:
 Charge =  0 Multiplicity = 1

                         Standard orientation:
 ---------------------------------------------------------------------
 Center     Atomic      Atomic             Coordinates (Angstroms)
 Number     Number       Type             X           Y           Z
 ---------------------------------------------------------------------
      1          8           0        5.442547    0.018945   -3.304626
      2          8           0       -2.905376   -3.030717    3.180704
      3          8           0       -3.170935   -0.739802    3.002274
      4          8           0       -1.580431    7.076069    1.524033
      5          8           0       -0.512072    6.959593   -0.455301
      6          8           0       -1.973611   -4.051745    0.035447
      7          7           0        2.443340    0.809152    0.482881
      8          7           0        4.443562   -0.494455   -1.348755
      9          7           0       -1.843604    0.728649   -0.259876
     10          7           0       -2.679597   -1.872152   -0.376695
     11          6           0        4.704770   -1.208363   -0.094142
     12          6           0        4.478806   -0.293143    1.167086
     13          6           0        2.988522   -0.027539    1.325245
     14          6           0        1.957908   -0.691578    2.083478
     15          6           0        0.772514    0.043285    1.798225
     16          6           0        1.037832    0.979234    0.693879
     17          6           0        6.284599   -1.525824   -0.226686
     18          6           0       -0.512165   -0.177753    2.566310
     19          6           0        6.694099   -0.814355   -1.288248
     20          6           0        0.236590    2.005141    0.009966
     21          6           0       -1.080658    1.869459   -0.392296
     22          6           0        5.469528   -0.445319   -2.165312
     23          6           0       -1.877026    2.857472   -0.986288
     24          6           0        2.209988   -1.598418    3.243293
     25          6           0        7.002659   -2.203018    0.896756
     26          6           0       -3.167516    2.363991   -1.225867
     27          6           0       -1.056938   -1.600857    2.403213
     28          6           0       -3.126170    0.912973   -0.928260
     29          6           0       -1.447275    4.341760   -1.021243
     30          6           0        8.002916   -0.797870   -2.005549
     31          6           0       -1.730651    5.095484    0.369188
     32          6           0       -4.434735    3.052163   -1.687174
     33          6           0       -4.016496   -0.108884   -1.170778
     34          6           0       -2.514738   -1.706342    2.870049
     35          6           0       -3.739962   -1.457394   -0.960298
     36          6           0        9.190345   -0.937534   -1.356062
     37          6           0       -1.169157    6.391210    0.417675
     38          6           0       -4.637852   -2.556546   -1.386266
     39          6           0       -4.095387   -3.652347   -1.023705
     40          6           0       -2.762811   -3.365742   -0.450605
     41          6           0       -5.900471   -2.354309   -2.139672
     42          6           0       -4.529056   -5.068667   -1.144914
     43          6           0       -6.706568   -3.274841   -2.733623
     44          1           0        4.090511   -2.247163    0.177844
     45          1           0        4.913815    0.691752    1.106895
     46          1           0        5.020479   -0.656133    2.168718
     47          1           0        3.032148    1.421335   -0.182479
     48          1           0        3.563640   -0.309393   -1.956499
     49          1           0       -0.394182    0.269393    3.670727
     50          1           0       -1.267523    0.637699    2.233696
     51          1           0        0.726151    2.970123   -0.239264
     52          1           0        3.208870   -2.126093    3.287766
     53          1           0        1.750612   -1.163336    4.224312
     54          1           0        1.456338   -2.484618    3.110851
     55          1           0        6.366180   -3.049243    1.305830
     56          1           0        7.028972   -1.223508    1.732609
     57          1           0        7.952672   -2.424896    0.381492
     58          1           0       -1.001892   -2.070805    1.453033
     59          1           0       -0.494218   -2.191344    3.122982
     60          1           0       -1.793564   -0.439748   -0.011766
     61          1           0       -2.152276    4.900194   -1.697696
     62          1           0       -0.516003    4.602922   -1.148396
     63          1           0        8.110102   -0.754276   -3.087390
     64          1           0       -1.053670    4.435399    1.117184
     65          1           0       -2.858768    4.890164    0.604894
     66          1           0       -4.131435    4.077285   -2.147702
     67          1           0       -5.368263    3.116355   -0.969757
     68          1           0       -5.186727    2.391892   -2.515580
     69          1           0       -5.065469    0.226343   -1.366203
     70          1           0        8.927967   -0.968788   -0.146629
     71          1           0       10.247775   -1.071052   -1.883071
     72          1           0       -3.754602   -2.982502    3.632807
     73          1           0       -6.148871   -1.239099   -2.094452
     74          1           0       -5.613123   -5.202268   -0.742451
     75          1           0       -4.533568   -5.503759   -2.162177
     76          1           0       -3.939752   -5.722938   -0.744901
     77          1           0       -1.026319    7.900532    1.600035
     78          1           0       -7.732834   -2.868866   -3.124739
     79          1           0       -6.462716   -4.161831   -2.797909
 ---------------------------------------------------------------------

 SCF Done:  E(RB3LYP) =  -1947.79194792     A.U. after   16 cycles

 Excitation energies and oscillator strengths:

 Excited State   1:      Singlet-A      2.0479 eV  605.41 nm  f=0.4805  <S**2>=0.000
     155 ->156         0.70516
     155 <-156        -0.11205
 This state for optimization and/or second-order correction.
 Total Energy, E(TD-HF/TD-DFT) =  -1947.71668730
 Copying the excited state density for this state as the 1-particle RhoCI density.

 The electronic state is 1-A.
 Alpha  occ. eigenvalues --  -19.18113 -19.16397 -19.12994 -19.12453 -19.12235
 Alpha  occ. eigenvalues --  -19.10014 -14.39210 -14.36958 -14.34848 -14.29738
 Alpha  occ. eigenvalues --  -10.32402 -10.30740 -10.28297 -10.27740 -10.27509
 Alpha  occ. eigenvalues --  -10.24031 -10.23516 -10.23462 -10.23438 -10.23078
 Alpha  occ. eigenvalues --  -10.23059 -10.22979 -10.22940 -10.22661 -10.22318
 Alpha  occ. eigenvalues --  -10.22049 -10.21398 -10.21369 -10.21163 -10.21094
 Alpha  occ. eigenvalues --  -10.20787 -10.20763 -10.20308 -10.20275 -10.20023
 Alpha  occ. eigenvalues --  -10.19808 -10.19516 -10.19437 -10.18948 -10.18943
 Alpha  occ. eigenvalues --  -10.18558 -10.18549 -10.18531  -1.09013  -1.07738
 Alpha  occ. eigenvalues --   -1.06455  -1.02924  -1.00244  -0.99729  -0.98712
 Alpha  occ. eigenvalues --   -0.95306  -0.94348  -0.93670  -0.82666  -0.82285
 Alpha  occ. eigenvalues --   -0.81346  -0.81004  -0.80084  -0.78906  -0.77480
 Alpha  occ. eigenvalues --   -0.76745  -0.76036  -0.75633  -0.74461  -0.71970
 Alpha  occ. eigenvalues --   -0.71289  -0.71224  -0.70105  -0.68217  -0.67329
 Alpha  occ. eigenvalues --   -0.66237  -0.66010  -0.64046  -0.60917  -0.58756
 Alpha  occ. eigenvalues --   -0.58729  -0.58509  -0.57976  -0.57602  -0.56615
 Alpha  occ. eigenvalues --   -0.55731  -0.55521  -0.54305  -0.53657  -0.53173
 Alpha  occ. eigenvalues --   -0.52832  -0.51117  -0.50828  -0.50281  -0.49364
 Alpha  occ. eigenvalues --   -0.48831  -0.48517  -0.47954  -0.47746  -0.47452
 Alpha  occ. eigenvalues --   -0.47384  -0.46862  -0.46652  -0.45951  -0.45778
 Alpha  occ. eigenvalues --   -0.45355  -0.45058  -0.44043  -0.43963  -0.43877
 Alpha  occ. eigenvalues --   -0.43132  -0.42953  -0.42764  -0.42483  -0.42229
 Alpha  occ. eigenvalues --   -0.41953  -0.41475  -0.41406  -0.40861  -0.40799
 Alpha  occ. eigenvalues --   -0.40172  -0.40105  -0.39942  -0.39693  -0.39552
 Alpha  occ. eigenvalues --   -0.39303  -0.39180  -0.38909  -0.38526  -0.38356
 Alpha  occ. eigenvalues --   -0.38026  -0.37721  -0.37489  -0.37018  -0.36489
 Alpha  occ. eigenvalues --   -0.36338  -0.36053  -0.35806  -0.35170  -0.34743
 Alpha  occ. eigenvalues --   -0.34510  -0.33374  -0.32241  -0.31789  -0.31601
 Alpha  occ. eigenvalues --   -0.31308  -0.31209  -0.29603  -0.28617  -0.28454
 Alpha  occ. eigenvalues --   -0.27186  -0.27134  -0.25897  -0.25290  -0.24953
 Alpha  occ. eigenvalues --   -0.24423  -0.24196  -0.23987  -0.22913  -0.18429
 Alpha virt. eigenvalues --   -0.10435  -0.06428  -0.05608  -0.01743  -0.00626
 Alpha virt. eigenvalues --    0.00844   0.01109   0.01734   0.02130   0.02711
 Alpha virt. eigenvalues --    0.03243   0.03523   0.04120   0.04540   0.04765

 Mulliken charges:
               1
     1  O   -0.249855
     2  O   -0.232480
     3  O   -0.180522
     4  O   -0.209732
     5  O   -0.245284
     6  O   -0.106398
     7  N   -0.080692
     8  N   -0.164483
     9  N   -0.237359
    10  N   -0.325931
    11  C    0.063605
    12  C    0.125407
    13  C   -0.090750
    14  C   -0.125305
    15  C   -0.100171
    16  C    0.074656
    17  C   -0.162841
    18  C    0.007405
    19  C   -0.051229
    20  C   -0.099992
    21  C    0.123508
    22  C    0.106904
    23  C   -0.084778
    24  C    0.045329
    25  C    0.023766
    26  C   -0.047988
    27  C    0.052032
    28  C    0.098571
    29  C    0.157760
    30  C   -0.008458
    31  C   -0.098696
    32  C   -0.049637
    33  C   -0.147282
    34  C    0.131967
    35  C    0.117755
    36  C   -0.109017
    37  C    0.166999
    38  C    0.065867
    39  C   -0.243309
    40  C    0.151640
    41  C   -0.034500
    42  C    0.159255
    43  C    0.092013
    44  H    0.058668
    45  H   -0.013272
    46  H    0.031189
    47  H    0.146592
    48  H    0.158495
    49  H    0.024462
    50  H    0.029042
    51  H   -0.005114
    52  H    0.019120
    53  H    0.035617
    54  H    0.026105
    55  H    0.049147
    56  H    0.078773
    57  H    0.060905
    58  H    0.058740
    59  H    0.015198
    60  H    0.241869
    61  H    0.018054
    62  H   -0.039431
    63  H    0.018939
    64  H    0.066058
    65  H    0.079584
    66  H    0.046351
    67  H    0.053176
    68  H    0.035642
    69  H   -0.004054
    70  H    0.038354
    71  H    0.062223
    72  H    0.170076
    73  H   -0.001939
    74  H    0.033796
    75  H    0.021892
    76  H   -0.048209
    77  H    0.194035
    78  H    0.047325
    79  H   -0.085157
 Sum of Mulliken charges =  -0.00000

 Dipole moment (field-independent basis, Debye):
    X=             -0.0932    Y=             -0.2857    Z=              3.5670  Tot=              3.5797
 Quadrupole moment (field-independent basis, Debye-Ang):
   XX=           -222.3478   YY=           -249.7463   ZZ=           -263.3293
   XY=             -4.9062   XZ=             27.6083   YZ=              9.3200

 Normal termination of Gaussian 16 at Thu Oct  3 02:32:59 2019.
