 Gaussian 16, Revision A.03,
 Gaussian 16:  ES64L-G16RevA.03 25-Dec-2016

 --------------------------
 # td=(NStates=1) B3LYP/SVP
 --------------------------

 --
 TD
 --
 Symbolic Z-matrix:
 Charge =  0 Multiplicity = 1

                         Standard orientation:
 ---------------------------------------------------------------------
 Center     Atomic      Atomic             Coordinates (Angstroms)
 Number     Number       Type             X           Y           Z
 ---------------------------------------------------------------------
      1          8           0        5.457648   -0.251340   -3.243105
      2          8           0       -2.877406   -2.880076    3.022706
      3          8           0       -3.254036   -0.672772    3.127843
      4          8           0       -1.949563    7.291385    1.298600
      5          8           0       -0.667326    6.819416   -0.583595
      6          8           0       -1.469108   -4.016583    0.144574
      7          7           0        2.366179    1.060370    0.371068
      8          7           0        4.371624   -0.774653   -1.321270
      9          7           0       -1.936621    0.676441   -0.393326
     10          7           0       -2.487861   -1.945162   -0.537923
     11          6           0        4.815849   -1.084817    0.124771
     12          6           0        4.435924   -0.080567    1.184342
     13          6           0        3.019075    0.202729    1.291919
     14          6           0        2.018896   -0.404614    2.002759
     15          6           0        0.684063    0.175033    1.638524
     16          6           0        1.079712    1.105905    0.561884
     17          6           0        6.297991   -1.292937   -0.115466
     18          6           0       -0.548507   -0.047937    2.507789
     19          6           0        6.618062   -0.928557   -1.316026
     20          6           0        0.119338    2.069048   -0.004555
     21          6           0       -1.241870    1.823548   -0.413813
     22          6           0        5.422735   -0.571548   -2.128162
     23          6           0       -2.057181    2.887157   -0.972369
     24          6           0        2.311975   -1.413430    3.082771
     25          6           0        7.291268   -1.594007    1.059790
     26          6           0       -3.334015    2.285760   -1.271981
     27          6           0       -0.967447   -1.460622    2.540666
     28          6           0       -3.190098    0.867937   -1.013722
     29          6           0       -1.763507    4.323208   -1.014199
     30          6           0        7.868479   -0.744205   -1.853683
     31          6           0       -2.053807    5.078295    0.323874
     32          6           0       -4.601750    2.854033   -1.809134
     33          6           0       -4.012856   -0.243241   -1.337936
     34          6           0       -2.484043   -1.665041    2.925111
     35          6           0       -3.761911   -1.615573   -1.033754
     36          6           0        9.138290   -0.775922   -1.335406
     37          6           0       -1.469258    6.478845    0.262887
     38          6           0       -4.482718   -2.924043   -1.328826
     39          6           0       -3.737970   -3.875920   -0.947199
     40          6           0       -2.404903   -3.405157   -0.426093
     41          6           0       -5.871098   -2.788826   -1.868249
     42          6           0       -3.960405   -5.464259   -1.018423
     43          6           0       -6.750231   -3.761824   -2.114235
     44          1           0        4.390795   -1.942079    0.411166
     45          1           0        4.951626    0.954855    1.086381
     46          1           0        4.899278   -0.561201    2.156425
     47          1           0        2.768912    1.562392   -0.531620
     48          1           0        3.397009   -0.539861   -1.811830
     49          1           0       -0.437446    0.293494    3.550887
     50          1           0       -1.261717    0.603283    2.098217
     51          1           0        0.599339    2.989702   -0.433574
     52          1           0        3.377402   -1.614296    3.286639
     53          1           0        1.737392   -1.119623    4.053689
     54          1           0        1.966257   -2.469616    2.908818
     55          1           0        6.588325   -2.097291    1.855938
     56          1           0        7.644843   -0.601278    1.581309
     57          1           0        8.001912   -2.303150    0.757999
     58          1           0       -1.004148   -1.823610    1.409867
     59          1           0       -0.131245   -2.054999    3.057612
     60          1           0       -1.778259   -0.364186   -0.250230
     61          1           0       -2.476224    4.751829   -1.804855
     62          1           0       -0.712025    4.396308   -1.460549
     63          1           0        7.919506   -0.424895   -2.875640
     64          1           0       -1.505769    4.653758    1.134641
     65          1           0       -3.086651    5.154571    0.857127
     66          1           0       -4.539273    4.102672   -2.106156
     67          1           0       -5.458666    2.933674   -1.060087
     68          1           0       -5.158103    2.311389   -2.694854
     69          1           0       -4.758996   -0.172402   -1.951147
     70          1           0        9.498133   -0.986909   -0.285728
     71          1           0       10.023868   -0.461086   -2.117613
     72          1           0       -3.918821   -2.842011    3.371619
     73          1           0       -6.141176   -1.813530   -2.157512
     74          1           0       -4.637061   -5.715810   -0.171267
     75          1           0       -4.552765   -5.791904   -1.999440
     76          1           0       -3.242279   -6.045493   -0.710758
     77          1           0       -1.428440    8.179973    1.108006
     78          1           0       -7.811448   -3.654778   -2.414016
     79          1           0       -6.407476   -4.977805   -1.918619
 ---------------------------------------------------------------------

 SCF Done:  E(RB3LYP) =  -1947.82034374     A.U. after   17 cycles

 Excitation energies and oscillator strengths:

 Excited State   1:      Singlet-A      1.9247 eV  644.16 nm  f=0.4194  <S**2>=0.000
     155 ->156         0.70575
     155 <-156        -0.14549
 This state for optimization and/or second-order correction.
 Total Energy, E(TD-HF/TD-DFT) =  -1947.74961076
 Copying the excited state density for this state as the 1-particle RhoCI density.

 The electronic state is 1-A.
 Alpha  occ. eigenvalues --  -19.19393 -19.19052 -19.14028 -19.11075 -19.09973
 Alpha  occ. eigenvalues --  -19.09691 -14.39627 -14.36119 -14.35692 -14.29409
 Alpha  occ. eigenvalues --  -10.33009 -10.30907 -10.27345 -10.27055 -10.25161
 Alpha  occ. eigenvalues --  -10.24986 -10.24959 -10.24153 -10.23871 -10.23204
 Alpha  occ. eigenvalues --  -10.23164 -10.23136 -10.22855 -10.22281 -10.22231
 Alpha  occ. eigenvalues --  -10.22189 -10.21794 -10.21686 -10.21321 -10.21088
 Alpha  occ. eigenvalues --  -10.20753 -10.20567 -10.20448 -10.20331 -10.20331
 Alpha  occ. eigenvalues --  -10.19906 -10.19657 -10.19524 -10.19160 -10.19010
 Alpha  occ. eigenvalues --  -10.18851 -10.18205 -10.17989  -1.09184  -1.08519
 Alpha  occ. eigenvalues --   -1.05276  -1.00752  -0.99456  -0.99415  -0.97853
 Alpha  occ. eigenvalues --   -0.95903  -0.93689  -0.90150  -0.82748  -0.82590
 Alpha  occ. eigenvalues --   -0.82204  -0.80781  -0.80204  -0.79483  -0.77443
 Alpha  occ. eigenvalues --   -0.77157  -0.75925  -0.74907  -0.74050  -0.72172
 Alpha  occ. eigenvalues --   -0.70868  -0.70245  -0.69856  -0.69488  -0.67820
 Alpha  occ. eigenvalues --   -0.66578  -0.65815  -0.63798  -0.61211  -0.60382
 Alpha  occ. eigenvalues --   -0.58774  -0.58619  -0.57984  -0.57751  -0.56661
 Alpha  occ. eigenvalues --   -0.56164  -0.55552  -0.55206  -0.54209  -0.53163
 Alpha  occ. eigenvalues --   -0.51691  -0.51289  -0.50892  -0.50214  -0.49594
 Alpha  occ. eigenvalues --   -0.48877  -0.48826  -0.48245  -0.47416  -0.47342
 Alpha  occ. eigenvalues --   -0.47194  -0.46900  -0.46578  -0.45968  -0.45309
 Alpha  occ. eigenvalues --   -0.45016  -0.44818  -0.44556  -0.43897  -0.43728
 Alpha  occ. eigenvalues --   -0.43329  -0.42878  -0.42832  -0.42508  -0.42405
 Alpha  occ. eigenvalues --   -0.42239  -0.41975  -0.41464  -0.41171  -0.40926
 Alpha  occ. eigenvalues --   -0.40864  -0.40153  -0.40007  -0.39687  -0.39575
 Alpha  occ. eigenvalues --   -0.39246  -0.39162  -0.38975  -0.38702  -0.38573
 Alpha  occ. eigenvalues --   -0.38321  -0.38020  -0.37356  -0.37027  -0.36735
 Alpha  occ. eigenvalues --   -0.36234  -0.35317  -0.34771  -0.34284  -0.33958
 Alpha  occ. eigenvalues --   -0.33865  -0.33268  -0.32941  -0.32679  -0.32075
 Alpha  occ. eigenvalues --   -0.31132  -0.29465  -0.29282  -0.28251  -0.27535
 Alpha  occ. eigenvalues --   -0.26968  -0.25634  -0.25584  -0.25376  -0.24973
 Alpha  occ. eigenvalues --   -0.24393  -0.23971  -0.23746  -0.22689  -0.18838
 Alpha virt. eigenvalues --   -0.11559  -0.06810  -0.05445  -0.00825  -0.00718
 Alpha virt. eigenvalues --    0.01052   0.01314   0.01544   0.02125   0.02434
 Alpha virt. eigenvalues --    0.02754   0.03188   0.03498   0.03808   0.04168

 Mulliken charges:
               1
     1  O   -0.160874
     2  O   -0.165861
     3  O   -0.314526
     4  O   -0.253352
     5  O   -0.225027
     6  O   -0.232789
     7  N   -0.084548
     8  N   -0.273922
     9  N   -0.077369
    10  N   -0.397881
    11  C    0.234616
    12  C    0.094438
    13  C   -0.023821
    14  C   -0.110059
    15  C   -0.128800
    16  C   -0.006114
    17  C   -0.214622
    18  C    0.195122
    19  C    0.035171
    20  C   -0.089900
    21  C    0.112662
    22  C    0.106143
    23  C   -0.127677
    24  C    0.040341
    25  C    0.058113
    26  C   -0.040699
    27  C   -0.098043
    28  C    0.109341
    29  C    0.081910
    30  C   -0.029812
    31  C    0.029861
    32  C   -0.045487
    33  C    0.013738
    34  C    0.154595
    35  C    0.048462
    36  C   -0.110751
    37  C    0.141713
    38  C    0.112436
    39  C   -0.230816
    40  C    0.218005
    41  C    0.031690
    42  C    0.142281
    43  C   -0.085796
    44  H   -0.032348
    45  H    0.011915
    46  H    0.023415
    47  H    0.161497
    48  H    0.159360
    49  H    0.008659
    50  H   -0.024280
    51  H    0.001764
    52  H   -0.005960
    53  H    0.035639
    54  H    0.044038
    55  H    0.016042
    56  H    0.064338
    57  H    0.040765
    58  H    0.098441
    59  H    0.033919
    60  H    0.164717
    61  H    0.026091
    62  H    0.047819
    63  H   -0.003059
    64  H    0.026897
    65  H    0.057607
    66  H    0.032580
    67  H    0.041926
    68  H    0.053520
    69  H   -0.115182
    70  H    0.026623
    71  H    0.043943
    72  H    0.236959
    73  H   -0.025049
    74  H    0.008628
    75  H    0.050914
    76  H   -0.036649
    77  H    0.212017
    78  H    0.036346
    79  H    0.044059
 Sum of Mulliken charges =  -0.00000

 Dipole moment (field-independent basis, Debye):
    X=             -0.9050    Y=              2.3751    Z=              2.8311  Tot=              3.8047
 Quadrupole moment (field-independent basis, Debye-Ang):
   XX=           -224.1205   YY=           -242.8690   ZZ=           -263.8907
   XY=              0.6885   XZ=             34.2515   YZ=             -2.9652

 Normal termination of Gaussian 16 at Sun Sep 15 12:39:32 2019.
