 Gaussian 16, Revision A.03,
 Gaussian 16:  ES64L-G16RevA.03 25-Dec-2016

 --------------------------
 # td=(NStates=1) B3LYP/SVP
 --------------------------

 --
 TD
 --
 Symbolic Z-matrix:
 Charge =  0 Multiplicity = 1

                         Standard orientation:
 ---------------------------------------------------------------------
 Center     Atomic      Atomic             Coordinates (Angstroms)
 Number     Number       Type             X           Y           Z
 ---------------------------------------------------------------------
      1          8           0        5.260248    0.109248   -3.232506
      2          8           0       -3.188197   -2.804325    3.106180
      3          8           0       -3.409302   -0.657293    2.755650
      4          8           0       -1.754825    7.125585    1.575064
      5          8           0       -0.723634    7.018787   -0.419650
      6          8           0       -1.607068   -3.909659    0.098105
      7          7           0        2.395493    0.911462    0.555128
      8          7           0        4.345544   -0.400995   -1.197909
      9          7           0       -1.746889    0.616320   -0.357857
     10          7           0       -2.457528   -1.841098   -0.540122
     11          6           0        4.712930   -1.198293   -0.022225
     12          6           0        4.378623   -0.457663    1.261116
     13          6           0        2.935933   -0.097495    1.355341
     14          6           0        1.936764   -0.656594    2.061964
     15          6           0        0.702336    0.001464    1.798701
     16          6           0        1.008075    0.943713    0.737100
     17          6           0        6.268263   -1.294597   -0.163386
     18          6           0       -0.576341   -0.253233    2.583961
     19          6           0        6.526724   -0.878040   -1.331868
     20          6           0        0.211769    1.980126    0.122169
     21          6           0       -1.034349    1.784945   -0.339767
     22          6           0        5.355129   -0.355579   -2.101344
     23          6           0       -1.918351    2.863262   -0.914117
     24          6           0        2.122735   -1.697774    3.217163
     25          6           0        7.045856   -1.983238    0.894174
     26          6           0       -3.114751    2.385170   -1.295547
     27          6           0       -1.235836   -1.758622    2.654737
     28          6           0       -2.926108    0.855521   -1.091093
     29          6           0       -1.449480    4.287406   -0.939947
     30          6           0        7.909374   -0.711749   -1.979866
     31          6           0       -1.904604    5.047049    0.350097
     32          6           0       -4.213860    3.041341   -2.031421
     33          6           0       -3.918650   -0.104031   -1.193282
     34          6           0       -2.714542   -1.632364    2.868981
     35          6           0       -3.622520   -1.491162   -1.092477
     36          6           0        9.111271   -0.660626   -1.391511
     37          6           0       -1.390839    6.464443    0.451482
     38          6           0       -4.454313   -2.663393   -1.382906
     39          6           0       -3.752292   -3.837049   -1.064567
     40          6           0       -2.522892   -3.254882   -0.458029
     41          6           0       -5.783646   -2.574094   -2.027717
     42          6           0       -4.238461   -5.195200   -1.024113
     43          6           0       -6.469814   -3.538935   -2.709133
     44          1           0        4.321635   -2.353754   -0.050613
     45          1           0        4.862325    0.472145    1.256058
     46          1           0        4.829965   -1.097324    2.030657
     47          1           0        2.955976    1.681488    0.031777
     48          1           0        3.391305   -0.576679   -1.548005
     49          1           0       -0.117314    0.033331    3.593698
     50          1           0       -1.506877    0.367359    2.356846
     51          1           0        0.742547    2.958759    0.079967
     52          1           0        3.103734   -1.891393    3.700144
     53          1           0        1.576376   -1.498359    3.984884
     54          1           0        1.836061   -2.714698    3.109081
     55          1           0        6.363121   -2.504356    1.691615
     56          1           0        7.764561   -1.234189    1.459816
     57          1           0        7.930768   -2.774022    0.430683
     58          1           0       -1.132759   -2.350690    1.830184
     59          1           0       -0.778361   -2.385747    3.292020
     60          1           0       -1.724298   -0.423199   -0.324585
     61          1           0       -1.899231    4.780397   -1.833443
     62          1           0       -0.448990    4.386686   -1.189238
     63          1           0        7.924785   -0.600522   -3.020076
     64          1           0       -1.482085    4.484777    1.266560
     65          1           0       -2.977334    5.281341    0.510532
     66          1           0       -4.038044    4.112736   -2.343281
     67          1           0       -5.040975    3.035794   -1.244698
     68          1           0       -4.262823    2.590370   -3.002566
     69          1           0       -4.765209    0.017216   -1.654714
     70          1           0        9.186675   -1.012147   -0.358590
     71          1           0        9.879328   -0.479273   -2.048017
     72          1           0       -4.235552   -2.771714    2.857082
     73          1           0       -6.240296   -1.475164   -1.884159
     74          1           0       -5.323507   -5.155438   -0.696145
     75          1           0       -4.000321   -5.567782   -2.186526
     76          1           0       -3.563605   -5.689488   -0.457350
     77          1           0       -1.453654    8.028234    1.386329
     78          1           0       -7.457266   -3.252753   -3.224111
     79          1           0       -6.499586   -4.639488   -2.895269
 ---------------------------------------------------------------------

 SCF Done:  E(RB3LYP) =  -1947.84909058     A.U. after   16 cycles

 Excitation energies and oscillator strengths:

 Excited State   1:      Singlet-A      1.9470 eV  636.81 nm  f=0.3116  <S**2>=0.000
     153 ->156         0.10111
     155 ->156         0.70194
 This state for optimization and/or second-order correction.
 Total Energy, E(TD-HF/TD-DFT) =  -1947.77754087
 Copying the excited state density for this state as the 1-particle RhoCI density.

 The electronic state is 1-A.
 Alpha  occ. eigenvalues --  -19.18987 -19.17680 -19.12843 -19.10556 -19.10464
 Alpha  occ. eigenvalues --  -19.10089 -14.37764 -14.35397 -14.35104 -14.29531
 Alpha  occ. eigenvalues --  -10.32471 -10.29804 -10.28284 -10.27094 -10.25226
 Alpha  occ. eigenvalues --  -10.25008 -10.23965 -10.23763 -10.23234 -10.22622
 Alpha  occ. eigenvalues --  -10.22413 -10.22159 -10.21669 -10.21339 -10.21159
 Alpha  occ. eigenvalues --  -10.20968 -10.20952 -10.20837 -10.20804 -10.20664
 Alpha  occ. eigenvalues --  -10.20552 -10.20517 -10.20503 -10.20337 -10.19531
 Alpha  occ. eigenvalues --  -10.19513 -10.19252 -10.19046 -10.18408 -10.18123
 Alpha  occ. eigenvalues --  -10.17864 -10.17397 -10.16946  -1.10298  -1.09815
 Alpha  occ. eigenvalues --   -1.02344  -1.00148  -1.00084  -0.99049  -0.97099
 Alpha  occ. eigenvalues --   -0.96453  -0.94285  -0.92243  -0.82876  -0.82674
 Alpha  occ. eigenvalues --   -0.81474  -0.80799  -0.79721  -0.79266  -0.77879
 Alpha  occ. eigenvalues --   -0.76995  -0.76052  -0.75401  -0.75010  -0.72718
 Alpha  occ. eigenvalues --   -0.71442  -0.71027  -0.70499  -0.68958  -0.68576
 Alpha  occ. eigenvalues --   -0.66372  -0.65397  -0.63605  -0.61074  -0.60191
 Alpha  occ. eigenvalues --   -0.59811  -0.58895  -0.58621  -0.58117  -0.56292
 Alpha  occ. eigenvalues --   -0.56063  -0.55808  -0.54380  -0.53497  -0.52798
 Alpha  occ. eigenvalues --   -0.52512  -0.50972  -0.50562  -0.49962  -0.49365
 Alpha  occ. eigenvalues --   -0.49335  -0.48775  -0.48393  -0.48154  -0.47591
 Alpha  occ. eigenvalues --   -0.46896  -0.46621  -0.46336  -0.46052  -0.45836
 Alpha  occ. eigenvalues --   -0.45302  -0.45156  -0.44638  -0.44432  -0.43943
 Alpha  occ. eigenvalues --   -0.43079  -0.43016  -0.42748  -0.42241  -0.42159
 Alpha  occ. eigenvalues --   -0.41894  -0.41636  -0.41474  -0.41091  -0.40878
 Alpha  occ. eigenvalues --   -0.40458  -0.40180  -0.40018  -0.39672  -0.39504
 Alpha  occ. eigenvalues --   -0.39102  -0.39040  -0.38842  -0.38734  -0.38517
 Alpha  occ. eigenvalues --   -0.38162  -0.37819  -0.37670  -0.36944  -0.36477
 Alpha  occ. eigenvalues --   -0.35471  -0.35297  -0.34978  -0.34741  -0.34204
 Alpha  occ. eigenvalues --   -0.33607  -0.32949  -0.32653  -0.32608  -0.31017
 Alpha  occ. eigenvalues --   -0.30981  -0.30717  -0.28620  -0.28286  -0.28275
 Alpha  occ. eigenvalues --   -0.27213  -0.26728  -0.26174  -0.25622  -0.25115
 Alpha  occ. eigenvalues --   -0.24397  -0.23883  -0.23341  -0.22438  -0.18738
 Alpha virt. eigenvalues --   -0.10884  -0.05986  -0.04836  -0.01222  -0.00212
 Alpha virt. eigenvalues --    0.00895   0.01417   0.02037   0.03126   0.03456
 Alpha virt. eigenvalues --    0.04014   0.04270   0.04806   0.05041   0.05295

 Mulliken charges:
               1
     1  O   -0.218445
     2  O   -0.187197
     3  O   -0.236699
     4  O   -0.177950
     5  O   -0.253097
     6  O   -0.241375
     7  N   -0.145689
     8  N   -0.167676
     9  N   -0.080802
    10  N   -0.293360
    11  C   -0.050581
    12  C    0.304928
    13  C   -0.084976
    14  C   -0.099451
    15  C   -0.047615
    16  C    0.033765
    17  C   -0.127694
    18  C    0.007097
    19  C   -0.038555
    20  C   -0.157824
    21  C    0.187951
    22  C    0.145616
    23  C   -0.103061
    24  C    0.172921
    25  C   -0.044031
    26  C   -0.127120
    27  C    0.129724
    28  C    0.058120
    29  C    0.163060
    30  C   -0.020534
    31  C   -0.005479
    32  C    0.080980
    33  C    0.054403
    34  C    0.093921
    35  C    0.041835
    36  C    0.034591
    37  C    0.117530
    38  C    0.008914
    39  C   -0.197681
    40  C    0.156467
    41  C   -0.021077
    42  C    0.121702
    43  C   -0.091845
    44  H    0.057580
    45  H   -0.040969
    46  H   -0.017770
    47  H    0.154143
    48  H    0.142308
    49  H    0.027530
    50  H    0.050899
    51  H    0.004852
    52  H   -0.013251
    53  H   -0.062626
    54  H   -0.008176
    55  H    0.055861
    56  H    0.062637
    57  H    0.069806
    58  H    0.004995
    59  H   -0.036740
    60  H    0.150679
    61  H    0.001623
    62  H   -0.009007
    63  H   -0.013710
    64  H    0.062407
    65  H    0.046338
    66  H    0.014901
    67  H    0.055457
    68  H    0.037435
    69  H   -0.109999
    70  H   -0.003280
    71  H    0.005786
    72  H    0.219064
    73  H    0.044743
    74  H    0.056019
    75  H    0.053851
    76  H   -0.003093
    77  H    0.178782
    78  H    0.027009
    79  H    0.040205
 Sum of Mulliken charges =  -0.00000

 Dipole moment (field-independent basis, Debye):
    X=             -1.4708    Y=              0.3601    Z=              2.1031  Tot=              2.5915
 Quadrupole moment (field-independent basis, Debye-Ang):
   XX=           -216.3216   YY=           -240.6253   ZZ=           -262.6650
   XY=             -7.3192   XZ=             34.2467   YZ=              5.5097

 Normal termination of Gaussian 16 at Fri Oct 11 06:13:44 2019.
