 Gaussian 16, Revision A.03,
 Gaussian 16:  ES64L-G16RevA.03 25-Dec-2016

 --------------------------
 # td=(NStates=1) B3LYP/SVP
 --------------------------

 --
 TD
 --
 Symbolic Z-matrix:
 Charge =  0 Multiplicity = 1

                         Standard orientation:
 ---------------------------------------------------------------------
 Center     Atomic      Atomic             Coordinates (Angstroms)
 Number     Number       Type             X           Y           Z
 ---------------------------------------------------------------------
      1          8           0        5.402164   -0.096159   -3.347182
      2          8           0       -2.975582   -2.995037    2.907994
      3          8           0       -3.427674   -0.790873    3.146913
      4          8           0       -1.811714    7.025328    1.655586
      5          8           0       -0.669323    7.106086   -0.386770
      6          8           0       -1.672978   -4.021384    0.031745
      7          7           0        2.314553    0.901424    0.648046
      8          7           0        4.323261   -0.547258   -1.240635
      9          7           0       -1.851660    0.692475   -0.465307
     10          7           0       -2.542187   -1.830174   -0.506075
     11          6           0        4.718509   -1.192697   -0.003270
     12          6           0        4.430028   -0.306466    1.269053
     13          6           0        2.900733   -0.064720    1.477432
     14          6           0        1.903167   -0.626215    2.305135
     15          6           0        0.659959    0.025205    1.874531
     16          6           0        0.947055    0.966836    0.834709
     17          6           0        6.277624   -1.223098   -0.152045
     18          6           0       -0.610011   -0.237912    2.620167
     19          6           0        6.685963   -0.741292   -1.354520
     20          6           0        0.153806    1.956732    0.077317
     21          6           0       -1.091547    1.852629   -0.394630
     22          6           0        5.419116   -0.403921   -2.182276
     23          6           0       -1.912655    2.925201   -0.982136
     24          6           0        2.113439   -1.652154    3.328358
     25          6           0        7.152115   -1.847492    0.867759
     26          6           0       -3.093383    2.333449   -1.401917
     27          6           0       -1.182996   -1.748610    2.582998
     28          6           0       -3.056959    0.977265   -1.097014
     29          6           0       -1.524806    4.416341   -1.007407
     30          6           0        7.981871   -0.726926   -1.990300
     31          6           0       -1.725338    4.945999    0.366592
     32          6           0       -4.286663    3.080484   -2.142943
     33          6           0       -3.933723   -0.162222   -1.443956
     34          6           0       -2.672359   -1.674355    2.868525
     35          6           0       -3.610264   -1.469185   -1.234385
     36          6           0        9.228591   -0.841350   -1.412266
     37          6           0       -1.392584    6.508875    0.486547
     38          6           0       -4.534438   -2.697003   -1.481303
     39          6           0       -3.776193   -3.769458   -0.999946
     40          6           0       -2.565562   -3.298105   -0.432607
     41          6           0       -5.810483   -2.443660   -2.120862
     42          6           0       -4.274920   -5.183085   -0.997394
     43          6           0       -6.596212   -3.438462   -2.446344
     44          1           0        4.407627   -2.142514    0.226004
     45          1           0        4.840903    0.590239    1.009781
     46          1           0        4.664760   -0.968577    2.092900
     47          1           0        2.889823    1.365314   -0.017071
     48          1           0        3.480156   -0.733925   -1.751661
     49          1           0       -0.635910    0.044125    3.724892
     50          1           0       -1.387453    0.248821    2.295203
     51          1           0        0.594110    2.939029    0.027063
     52          1           0        3.322878   -1.576812    3.277851
     53          1           0        1.714042   -1.385589    4.337128
     54          1           0        1.610181   -2.608229    2.931501
     55          1           0        6.589710   -2.645210    1.542126
     56          1           0        7.831406   -1.092098    1.530767
     57          1           0        7.816385   -2.594268    0.485875
     58          1           0       -0.848083   -2.084538    1.615045
     59          1           0       -0.592792   -2.259070    3.298410
     60          1           0       -1.474872   -0.394145   -0.238427
     61          1           0       -2.139693    4.859252   -1.716384
     62          1           0       -0.409563    4.536950   -1.037203
     63          1           0        8.037693   -0.984989   -3.234571
     64          1           0       -1.239708    4.563370    1.208004
     65          1           0       -2.674434    4.870521    0.861705
     66          1           0       -4.076400    4.218536   -2.142079
     67          1           0       -5.335188    2.784998   -1.656921
     68          1           0       -4.577182    2.655431   -3.042096
     69          1           0       -4.957621    0.151565   -2.012702
     70          1           0        9.430938   -0.430025   -0.343995
     71          1           0       10.027045   -0.473196   -2.195971
     72          1           0       -3.893292   -3.015832    3.043387
     73          1           0       -6.130070   -1.534154   -2.457152
     74          1           0       -5.322433   -5.571995   -0.550714
     75          1           0       -4.286173   -5.482214   -2.052771
     76          1           0       -3.434533   -5.907970   -0.680004
     77          1           0       -1.539696    7.999468    1.560118
     78          1           0       -7.585808   -3.188008   -2.838370
     79          1           0       -6.708949   -4.536989   -2.307756
 ---------------------------------------------------------------------

 SCF Done:  E(RB3LYP) =  -1947.83048954     A.U. after   18 cycles

 Excitation energies and oscillator strengths:

 Excited State   1:      Singlet-A      2.0262 eV  611.89 nm  f=0.3696  <S**2>=0.000
     155 ->156         0.69185
     155 <-156        -0.10342
 This state for optimization and/or second-order correction.
 Total Energy, E(TD-HF/TD-DFT) =  -1947.75602656
 Copying the excited state density for this state as the 1-particle RhoCI density.

 The electronic state is 1-A.
 Alpha  occ. eigenvalues --  -19.21196 -19.16089 -19.13679 -19.12614 -19.12398
 Alpha  occ. eigenvalues --  -19.09871 -14.37758 -14.36211 -14.36099 -14.28851
 Alpha  occ. eigenvalues --  -10.33791 -10.30973 -10.30155 -10.26035 -10.25302
 Alpha  occ. eigenvalues --  -10.25174 -10.23757 -10.23614 -10.23043 -10.22991
 Alpha  occ. eigenvalues --  -10.22523 -10.22312 -10.22278 -10.22078 -10.22019
 Alpha  occ. eigenvalues --  -10.21900 -10.21724 -10.21640 -10.21492 -10.21282
 Alpha  occ. eigenvalues --  -10.21109 -10.21035 -10.20813 -10.20643 -10.20178
 Alpha  occ. eigenvalues --  -10.19880 -10.19529 -10.19492 -10.19448 -10.19405
 Alpha  occ. eigenvalues --  -10.19085 -10.17852 -10.17218  -1.10215  -1.09238
 Alpha  occ. eigenvalues --   -1.04150  -1.00751  -0.99660  -0.98960  -0.97554
 Alpha  occ. eigenvalues --   -0.97076  -0.94151  -0.90392  -0.83046  -0.82528
 Alpha  occ. eigenvalues --   -0.81424  -0.80763  -0.80652  -0.79460  -0.77916
 Alpha  occ. eigenvalues --   -0.76950  -0.76353  -0.75330  -0.74030  -0.72165
 Alpha  occ. eigenvalues --   -0.71110  -0.70970  -0.69041  -0.68725  -0.68115
 Alpha  occ. eigenvalues --   -0.67081  -0.66064  -0.63905  -0.61120  -0.60396
 Alpha  occ. eigenvalues --   -0.60312  -0.58931  -0.57926  -0.57618  -0.56685
 Alpha  occ. eigenvalues --   -0.56331  -0.55923  -0.55330  -0.54531  -0.53016
 Alpha  occ. eigenvalues --   -0.52176  -0.51348  -0.50399  -0.50105  -0.49963
 Alpha  occ. eigenvalues --   -0.49596  -0.48969  -0.48386  -0.47826  -0.47485
 Alpha  occ. eigenvalues --   -0.47028  -0.46993  -0.46790  -0.46399  -0.45559
 Alpha  occ. eigenvalues --   -0.45051  -0.44875  -0.44632  -0.44382  -0.44152
 Alpha  occ. eigenvalues --   -0.43666  -0.43447  -0.43097  -0.42519  -0.42420
 Alpha  occ. eigenvalues --   -0.42020  -0.41892  -0.41723  -0.41114  -0.40913
 Alpha  occ. eigenvalues --   -0.40621  -0.40344  -0.40079  -0.39819  -0.39537
 Alpha  occ. eigenvalues --   -0.39127  -0.38921  -0.38649  -0.38452  -0.38052
 Alpha  occ. eigenvalues --   -0.37629  -0.37515  -0.37394  -0.37018  -0.36510
 Alpha  occ. eigenvalues --   -0.35895  -0.34939  -0.34931  -0.34229  -0.33848
 Alpha  occ. eigenvalues --   -0.33707  -0.33446  -0.32711  -0.32320  -0.31631
 Alpha  occ. eigenvalues --   -0.31527  -0.31499  -0.29006  -0.28613  -0.28324
 Alpha  occ. eigenvalues --   -0.28193  -0.27001  -0.26808  -0.25749  -0.24851
 Alpha  occ. eigenvalues --   -0.23816  -0.23555  -0.23179  -0.21923  -0.19206
 Alpha virt. eigenvalues --   -0.10951  -0.06892  -0.06603  -0.01827  -0.01205
 Alpha virt. eigenvalues --    0.00107   0.01309   0.01512   0.02305   0.02722
 Alpha virt. eigenvalues --    0.03419   0.03621   0.04623   0.04936   0.05043

 Mulliken charges:
               1
     1  O   -0.181888
     2  O   -0.147593
     3  O   -0.204574
     4  O   -0.177502
     5  O   -0.294881
     6  O   -0.225080
     7  N   -0.074897
     8  N   -0.234105
     9  N   -0.174413
    10  N   -0.357312
    11  C    0.139250
    12  C    0.306499
    13  C   -0.136845
    14  C   -0.130867
    15  C   -0.105445
    16  C    0.083362
    17  C   -0.173371
    18  C    0.114681
    19  C   -0.006177
    20  C   -0.087645
    21  C    0.118986
    22  C    0.154500
    23  C   -0.145071
    24  C    0.036351
    25  C    0.021293
    26  C   -0.105688
    27  C   -0.031268
    28  C    0.110628
    29  C    0.254201
    30  C   -0.096593
    31  C   -0.006609
    32  C    0.089796
    33  C   -0.145234
    34  C    0.163718
    35  C    0.094418
    36  C   -0.087547
    37  C    0.153723
    38  C    0.083802
    39  C   -0.166102
    40  C    0.188965
    41  C    0.052187
    42  C    0.040767
    43  C   -0.048055
    44  H   -0.012588
    45  H   -0.048164
    46  H   -0.010205
    47  H    0.100581
    48  H    0.128411
    49  H    0.006479
    50  H   -0.064985
    51  H   -0.013320
    52  H    0.024528
    53  H    0.038523
    54  H    0.069479
    55  H    0.019520
    56  H    0.070105
    57  H    0.030470
    58  H    0.060959
    59  H    0.018260
    60  H    0.230317
    61  H   -0.005567
    62  H    0.027244
    63  H    0.071261
    64  H    0.015768
    65  H    0.003831
    66  H    0.045253
    67  H    0.024361
    68  H    0.003771
    69  H    0.008719
    70  H    0.036412
    71  H    0.048938
    72  H    0.134936
    73  H   -0.043167
    74  H    0.055391
    75  H    0.012324
    76  H    0.020754
    77  H    0.205646
    78  H    0.000078
    79  H    0.023311
 Sum of Mulliken charges =  -0.00000

 Dipole moment (field-independent basis, Debye):
    X=             -0.3540    Y=              2.3396    Z=              2.1424  Tot=              3.1920
 Quadrupole moment (field-independent basis, Debye-Ang):
   XX=           -222.0509   YY=           -245.9190   ZZ=           -262.8429
   XY=             -9.0458   XZ=             32.0760   YZ=              7.6208

 Normal termination of Gaussian 16 at Fri Sep 20 19:34:02 2019.
