 Gaussian 16, Revision A.03,
 Gaussian 16:  ES64L-G16RevA.03 25-Dec-2016

 --------------------------
 # td=(NStates=1) B3LYP/SVP
 --------------------------

 --
 TD
 --
 Symbolic Z-matrix:
 Charge =  0 Multiplicity = 1

                         Standard orientation:
 ---------------------------------------------------------------------
 Center     Atomic      Atomic             Coordinates (Angstroms)
 Number     Number       Type             X           Y           Z
 ---------------------------------------------------------------------
      1          8           0       -3.227017   -1.210112   -2.976772
      2          8           0        3.188234    2.933102    3.098949
      3          8           0        3.355934    1.228162    4.687649
      4          8           0        7.616699   -1.496697   -0.692881
      5          8           0        6.726014   -2.727109   -2.372629
      6          8           0       -2.726934    1.496472    1.530656
      7          7           0       -0.203690   -2.618383    0.847533
      8          7           0       -2.534171   -1.317630   -0.756053
      9          7           0        1.198766    0.112784   -0.607237
     10          7           0       -1.006146    1.465012   -0.051832
     11          6           0       -3.238412   -1.393691    0.586711
     12          6           0       -2.685044   -2.426892    1.546371
     13          6           0       -1.170768   -2.108697    1.740911
     14          6           0       -0.476168   -1.319901    2.760151
     15          6           0        0.860324   -1.266484    2.346455
     16          6           0        0.977066   -1.987846    1.157156
     17          6           0       -4.685087   -1.855017    0.191303
     18          6           0        1.826961   -0.489685    3.111364
     19          6           0       -4.721174   -1.997667   -1.158507
     20          6           0        2.113817   -1.928363    0.194118
     21          6           0        2.096797   -0.835934   -0.727332
     22          6           0       -3.429017   -1.502201   -1.750827
     23          6           0        3.097191   -0.512059   -1.841256
     24          6           0       -1.321417   -0.694874    3.805660
     25          6           0       -5.871946   -2.142869    1.190070
     26          6           0        2.541845    0.656969   -2.475397
     27          6           0        1.922605    1.029954    2.669406
     28          6           0        1.376056    1.091666   -1.635874
     29          6           0        4.322424   -1.289128   -2.087508
     30          6           0       -5.725563   -2.258231   -2.149815
     31          6           0        5.358036   -1.126252   -1.057879
     32          6           0        3.206135    1.519325   -3.529260
     33          6           0        0.438946    2.094974   -1.822194
     34          6           0        2.858452    1.665722    3.639900
     35          6           0       -0.617208    2.340274   -0.974066
     36          6           0       -6.804418   -3.099128   -1.972219
     37          6           0        6.583265   -1.942372   -1.519625
     38          6           0       -1.473390    3.546467   -1.075720
     39          6           0       -2.378465    3.257107    0.003601
     40          6           0       -2.027545    2.010162    0.676520
     41          6           0       -1.298000    4.547218   -2.045258
     42          6           0       -3.458065    4.090225    0.484167
     43          6           0       -2.124935    5.655282   -2.258217
     44          1           0       -3.250641   -0.434876    0.989798
     45          1           0       -2.711003   -3.329350    0.980091
     46          1           0       -3.104183   -2.653572    2.446806
     47          1           0       -0.440712   -3.109205    0.057405
     48          1           0       -2.195152   -0.313054   -0.747852
     49          1           0        1.662101   -0.498578    4.092551
     50          1           0        2.883794   -1.081281    3.005139
     51          1           0        3.184532   -2.456706    0.284911
     52          1           0       -2.357516   -1.442492    4.141689
     53          1           0       -0.851791   -0.331610    4.711608
     54          1           0       -1.751773    0.382801    3.248153
     55          1           0       -5.874667   -1.271632    2.070894
     56          1           0       -5.658205   -3.151588    1.536426
     57          1           0       -6.882914   -1.869949    0.331002
     58          1           0        2.172738    1.209785    1.640847
     59          1           0        0.920215    1.516116    2.949862
     60          1           0        0.410506    0.233541   -0.125391
     61          1           0        4.645022   -0.891645   -3.193940
     62          1           0        3.817007   -2.333568   -2.137294
     63          1           0       -5.411689   -1.854420   -3.234161
     64          1           0        4.987090   -1.533848   -0.072796
     65          1           0        5.674387   -0.114852   -0.932492
     66          1           0        4.094884    1.195853   -3.978917
     67          1           0        3.586003    2.376258   -2.991112
     68          1           0        2.510499    1.657054   -4.403826
     69          1           0        0.603335    2.822916   -2.538794
     70          1           0       -7.113533   -3.309775   -0.981683
     71          1           0       -7.370867   -3.407761   -2.630450
     72          1           0        3.863523    3.164608    3.698423
     73          1           0       -0.192385    4.530485   -2.668266
     74          1           0       -4.181568    4.073879   -0.330783
     75          1           0       -4.100432    3.681667    1.420320
     76          1           0       -3.287158    5.251841    0.792353
     77          1           0        8.246304   -2.113378   -1.121003
     78          1           0       -1.631176    6.399744   -3.078713
     79          1           0       -2.981099    5.755259   -1.594919
 ---------------------------------------------------------------------

 SCF Done:  E(RB3LYP) =  -1947.74754117     A.U. after   20 cycles

 Excitation energies and oscillator strengths:

 Excited State   1:      Singlet-A      0.7511 eV 1650.71 nm  f=0.0011  <S**2>=0.000
     155 ->156         0.70425
 This state for optimization and/or second-order correction.
 Total Energy, E(TD-HF/TD-DFT) =  -1947.71993883
 Copying the excited state density for this state as the 1-particle RhoCI density.

 The electronic state is 1-A.
 Alpha  occ. eigenvalues --  -19.18938 -19.17367 -19.16236 -19.13847 -19.12611
 Alpha  occ. eigenvalues --  -19.08638 -14.37484 -14.36629 -14.33465 -14.30390
 Alpha  occ. eigenvalues --  -10.33804 -10.32472 -10.28070 -10.27495 -10.26851
 Alpha  occ. eigenvalues --  -10.25964 -10.24793 -10.24150 -10.24009 -10.23444
 Alpha  occ. eigenvalues --  -10.23406 -10.23215 -10.23094 -10.22826 -10.22272
 Alpha  occ. eigenvalues --  -10.21882 -10.21655 -10.21584 -10.21457 -10.21182
 Alpha  occ. eigenvalues --  -10.21101 -10.20851 -10.20792 -10.20559 -10.20294
 Alpha  occ. eigenvalues --  -10.20246 -10.19405 -10.19039 -10.18902 -10.18525
 Alpha  occ. eigenvalues --  -10.17172 -10.17115 -10.16649  -1.12537  -1.08194
 Alpha  occ. eigenvalues --   -1.04078  -1.03596  -1.00429  -1.00025  -0.98916
 Alpha  occ. eigenvalues --   -0.96051  -0.94785  -0.91237  -0.84830  -0.82590
 Alpha  occ. eigenvalues --   -0.81567  -0.81114  -0.80282  -0.79930  -0.78423
 Alpha  occ. eigenvalues --   -0.77006  -0.76517  -0.75483  -0.74106  -0.73233
 Alpha  occ. eigenvalues --   -0.71139  -0.70047  -0.69915  -0.68904  -0.67520
 Alpha  occ. eigenvalues --   -0.66529  -0.65268  -0.63466  -0.61181  -0.60535
 Alpha  occ. eigenvalues --   -0.60416  -0.59545  -0.58186  -0.57755  -0.56595
 Alpha  occ. eigenvalues --   -0.55633  -0.55040  -0.54544  -0.53511  -0.53163
 Alpha  occ. eigenvalues --   -0.52617  -0.51518  -0.51323  -0.51041  -0.50195
 Alpha  occ. eigenvalues --   -0.50108  -0.49287  -0.49024  -0.48361  -0.47829
 Alpha  occ. eigenvalues --   -0.47798  -0.47467  -0.47197  -0.46947  -0.46052
 Alpha  occ. eigenvalues --   -0.45690  -0.45387  -0.44870  -0.44440  -0.44131
 Alpha  occ. eigenvalues --   -0.43943  -0.43534  -0.43039  -0.42765  -0.42538
 Alpha  occ. eigenvalues --   -0.42379  -0.42223  -0.42105  -0.41268  -0.41070
 Alpha  occ. eigenvalues --   -0.40705  -0.40390  -0.39808  -0.39370  -0.39112
 Alpha  occ. eigenvalues --   -0.38802  -0.38740  -0.38557  -0.38258  -0.38086
 Alpha  occ. eigenvalues --   -0.37846  -0.37438  -0.36997  -0.36710  -0.36340
 Alpha  occ. eigenvalues --   -0.35799  -0.35433  -0.35258  -0.34987  -0.34950
 Alpha  occ. eigenvalues --   -0.34745  -0.34496  -0.32724  -0.32153  -0.31938
 Alpha  occ. eigenvalues --   -0.31333  -0.30940  -0.29858  -0.29471  -0.29142
 Alpha  occ. eigenvalues --   -0.28810  -0.26928  -0.26115  -0.25741  -0.23729
 Alpha  occ. eigenvalues --   -0.23027  -0.22883  -0.22461  -0.22281  -0.18618
 Alpha virt. eigenvalues --   -0.13376  -0.08279  -0.04347  -0.02636  -0.01287
 Alpha virt. eigenvalues --   -0.01089   0.00895   0.01058   0.01981   0.02206
 Alpha virt. eigenvalues --    0.02989   0.03358   0.04200   0.04900   0.05118

 Mulliken charges:
               1
     1  O   -0.292369
     2  O   -0.201195
     3  O   -0.243108
     4  O   -0.208389
     5  O   -0.161959
     6  O   -0.208024
     7  N   -0.018093
     8  N   -0.174270
     9  N    0.024187
    10  N   -0.293786
    11  C    0.054879
    12  C    0.314923
    13  C   -0.156773
    14  C   -0.052573
    15  C   -0.086433
    16  C   -0.012589
    17  C   -0.189519
    18  C    0.123181
    19  C   -0.031357
    20  C   -0.135760
    21  C    0.049248
    22  C    0.130195
    23  C   -0.076463
    24  C   -0.052952
    25  C   -0.038711
    26  C   -0.120134
    27  C    0.011535
    28  C    0.087956
    29  C    0.023313
    30  C   -0.075821
    31  C    0.033705
    32  C    0.103323
    33  C   -0.018491
    34  C    0.154238
    35  C    0.071370
    36  C    0.083012
    37  C    0.132090
    38  C    0.115906
    39  C   -0.165473
    40  C    0.182393
    41  C   -0.133089
    42  C   -0.026555
    43  C   -0.036714
    44  H    0.022921
    45  H   -0.049773
    46  H   -0.030640
    47  H    0.087695
    48  H    0.167259
    49  H   -0.033361
    50  H    0.009460
    51  H    0.036436
    52  H    0.031572
    53  H    0.005596
    54  H    0.077732
    55  H    0.065155
    56  H    0.061088
    57  H    0.082866
    58  H    0.036701
    59  H    0.062504
    60  H    0.105522
    61  H    0.047291
    62  H    0.060047
    63  H    0.055928
    64  H    0.056967
    65  H    0.031580
    66  H   -0.009768
    67  H    0.035983
    68  H    0.049004
    69  H   -0.072082
    70  H   -0.002910
    71  H   -0.061963
    72  H    0.145092
    73  H    0.048214
    74  H    0.036845
    75  H    0.047532
    76  H    0.058080
    77  H    0.158508
    78  H    0.063819
    79  H    0.028245
 Sum of Mulliken charges =  -0.00000

 Dipole moment (field-independent basis, Debye):
    X=              3.4803    Y=              2.8780    Z=             -1.2840  Tot=              4.6951
 Quadrupole moment (field-independent basis, Debye-Ang):
   XX=           -236.9390   YY=           -237.4504   ZZ=           -275.1899
   XY=              3.9466   XZ=            -24.3513   YZ=            -13.7922

 Normal termination of Gaussian 16 at Sat Jul 27 09:39:20 2019.
