 Gaussian 16, Revision A.03,
 Gaussian 16:  ES64L-G16RevA.03 25-Dec-2016

 --------------------------
 # td=(NStates=1) B3LYP/SVP
 --------------------------

 --
 TD
 --
 Symbolic Z-matrix:
 Charge =  0 Multiplicity = 1

                         Standard orientation:
 ---------------------------------------------------------------------
 Center     Atomic      Atomic             Coordinates (Angstroms)
 Number     Number       Type             X           Y           Z
 ---------------------------------------------------------------------
      1          8           0        5.256524   -0.213290   -3.227849
      2          8           0       -3.176474   -2.666680    3.296727
      3          8           0       -3.467273   -0.394480    2.978963
      4          8           0       -1.757623    7.423556    1.066582
      5          8           0       -0.139032    6.791858   -0.525928
      6          8           0       -1.536758   -3.948623    0.052210
      7          7           0        2.343608    1.021916    0.654374
      8          7           0        4.308382   -0.547944   -1.255458
      9          7           0       -1.846472    0.694255   -0.428721
     10          7           0       -2.380184   -1.896537   -0.562961
     11          6           0        4.710767   -1.178553    0.064164
     12          6           0        4.424754   -0.305099    1.281767
     13          6           0        2.867543   -0.018345    1.436066
     14          6           0        1.885673   -0.591896    2.165095
     15          6           0        0.697442    0.012963    1.797094
     16          6           0        0.995126    1.133151    0.822852
     17          6           0        6.153709   -1.380238   -0.113780
     18          6           0       -0.598997   -0.048216    2.538178
     19          6           0        6.533135   -0.937742   -1.265449
     20          6           0        0.155756    2.027008    0.114187
     21          6           0       -1.102884    1.806950   -0.347332
     22          6           0        5.381098   -0.560292   -2.053028
     23          6           0       -2.002365    2.797846   -0.956746
     24          6           0        1.987441   -1.666631    3.223302
     25          6           0        6.912131   -2.059952    1.045887
     26          6           0       -3.116088    2.251240   -1.379815
     27          6           0       -1.328792   -1.428609    2.683941
     28          6           0       -3.004926    0.846237   -1.062239
     29          6           0       -1.549392    4.338221   -1.002450
     30          6           0        7.776501   -0.820764   -1.951617
     31          6           0       -1.801062    5.099640    0.252394
     32          6           0       -4.335127    2.901485   -2.006677
     33          6           0       -3.893782   -0.193910   -1.263768
     34          6           0       -2.751869   -1.375609    2.972546
     35          6           0       -3.538142   -1.473675   -1.078616
     36          6           0        8.991200   -0.820018   -1.431150
     37          6           0       -1.054698    6.452204    0.214393
     38          6           0       -4.431158   -2.774264   -1.499244
     39          6           0       -3.681013   -3.877193   -1.056827
     40          6           0       -2.448223   -3.343059   -0.511048
     41          6           0       -5.802065   -2.650595   -2.007576
     42          6           0       -3.910379   -5.287979   -1.221779
     43          6           0       -6.547786   -3.726049   -2.340830
     44          1           0        4.007057   -2.180270    0.091139
     45          1           0        4.898510    0.708286    1.100711
     46          1           0        4.862350   -0.825537    2.205353
     47          1           0        3.016029    1.653964    0.004442
     48          1           0        3.439061   -0.502252   -1.534672
     49          1           0       -0.262107    0.218984    3.483787
     50          1           0       -1.391311    0.623566    2.071442
     51          1           0        0.551602    3.002753   -0.099315
     52          1           0        2.922528   -1.932754    3.440053
     53          1           0        1.311544   -1.495858    3.978220
     54          1           0        1.635025   -2.592614    2.962248
     55          1           0        6.291001   -2.699832    1.525273
     56          1           0        7.353139   -1.306252    1.833746
     57          1           0        7.767943   -2.631420    0.740510
     58          1           0       -1.060203   -1.761228    1.610592
     59          1           0       -0.780372   -2.115735    3.386117
     60          1           0       -1.603785   -0.372521   -0.316026
     61          1           0       -2.236160    4.932452   -1.713872
     62          1           0       -0.569995    4.193931   -1.442275
     63          1           0        7.648429   -0.567909   -2.972919
     64          1           0       -1.398296    4.657279    1.207806
     65          1           0       -2.896647    5.251189    0.486062
     66          1           0       -4.105003    4.007312   -2.265630
     67          1           0       -5.191407    2.781027   -1.189489
     68          1           0       -4.545103    2.316498   -2.922955
     69          1           0       -4.883135    0.159265   -1.562209
     70          1           0        8.825150   -0.803796   -0.451470
     71          1           0        9.861669   -0.821857   -2.123892
     72          1           0       -4.167067   -2.601157    3.313130
     73          1           0       -6.137079   -1.753139   -2.120450
     74          1           0       -4.517043   -5.764363   -0.120560
     75          1           0       -4.432017   -5.519014   -2.137038
     76          1           0       -2.853726   -5.830957   -1.093913
     77          1           0       -1.452374    8.336533    1.302669
     78          1           0       -7.516550   -3.730838   -2.804114
     79          1           0       -6.245095   -4.763823   -2.220147
 ---------------------------------------------------------------------

 SCF Done:  E(RB3LYP) =  -1947.84996680     A.U. after   16 cycles

 Excitation energies and oscillator strengths:

 Excited State   1:      Singlet-A      2.0931 eV  592.35 nm  f=0.3911  <S**2>=0.000
     155 ->156         0.69800
     155 <-156        -0.10054
 This state for optimization and/or second-order correction.
 Total Energy, E(TD-HF/TD-DFT) =  -1947.77304730
 Copying the excited state density for this state as the 1-particle RhoCI density.

 The electronic state is 1-A.
 Alpha  occ. eigenvalues --  -19.16595 -19.16275 -19.14472 -19.12185 -19.09789
 Alpha  occ. eigenvalues --  -19.08782 -14.39559 -14.35809 -14.34231 -14.29324
 Alpha  occ. eigenvalues --  -10.33876 -10.30946 -10.27315 -10.26273 -10.25827
 Alpha  occ. eigenvalues --  -10.23815 -10.23663 -10.23507 -10.23431 -10.23331
 Alpha  occ. eigenvalues --  -10.23074 -10.22821 -10.21876 -10.21874 -10.21800
 Alpha  occ. eigenvalues --  -10.21613 -10.21315 -10.21213 -10.21015 -10.20475
 Alpha  occ. eigenvalues --  -10.19897 -10.19820 -10.19768 -10.19661 -10.19439
 Alpha  occ. eigenvalues --  -10.19430 -10.18904 -10.18879 -10.18532 -10.18495
 Alpha  occ. eigenvalues --  -10.18449 -10.18224 -10.17591  -1.06918  -1.05943
 Alpha  occ. eigenvalues --   -1.02417  -1.00475  -1.00031  -0.99080  -0.98495
 Alpha  occ. eigenvalues --   -0.97889  -0.94032  -0.90538  -0.84367  -0.82734
 Alpha  occ. eigenvalues --   -0.82011  -0.81802  -0.80703  -0.79954  -0.78603
 Alpha  occ. eigenvalues --   -0.78242  -0.76882  -0.76282  -0.75463  -0.73473
 Alpha  occ. eigenvalues --   -0.72544  -0.71657  -0.69797  -0.68395  -0.67823
 Alpha  occ. eigenvalues --   -0.67091  -0.66113  -0.64038  -0.62323  -0.61813
 Alpha  occ. eigenvalues --   -0.60281  -0.59832  -0.58939  -0.57895  -0.56623
 Alpha  occ. eigenvalues --   -0.56532  -0.56002  -0.55139  -0.53967  -0.53520
 Alpha  occ. eigenvalues --   -0.51960  -0.51041  -0.50626  -0.50245  -0.50204
 Alpha  occ. eigenvalues --   -0.49639  -0.49194  -0.48365  -0.47736  -0.47575
 Alpha  occ. eigenvalues --   -0.47190  -0.46831  -0.46634  -0.45975  -0.45733
 Alpha  occ. eigenvalues --   -0.45502  -0.45097  -0.44905  -0.44292  -0.43964
 Alpha  occ. eigenvalues --   -0.43471  -0.43165  -0.43022  -0.42384  -0.42341
 Alpha  occ. eigenvalues --   -0.42231  -0.42086  -0.41946  -0.41624  -0.41394
 Alpha  occ. eigenvalues --   -0.41098  -0.40714  -0.40603  -0.40037  -0.39662
 Alpha  occ. eigenvalues --   -0.39603  -0.39346  -0.39231  -0.38379  -0.38199
 Alpha  occ. eigenvalues --   -0.37959  -0.37702  -0.37455  -0.37223  -0.36702
 Alpha  occ. eigenvalues --   -0.36518  -0.35439  -0.35200  -0.34719  -0.34329
 Alpha  occ. eigenvalues --   -0.33956  -0.33736  -0.32806  -0.32346  -0.31878
 Alpha  occ. eigenvalues --   -0.31516  -0.31171  -0.29067  -0.28928  -0.27571
 Alpha  occ. eigenvalues --   -0.27019  -0.26639  -0.26068  -0.25328  -0.25289
 Alpha  occ. eigenvalues --   -0.24489  -0.24167  -0.23462  -0.22123  -0.18790
 Alpha virt. eigenvalues --   -0.10384  -0.06585  -0.05864  -0.01936  -0.00368
 Alpha virt. eigenvalues --    0.00486   0.01482   0.01912   0.02694   0.03051
 Alpha virt. eigenvalues --    0.03229   0.04091   0.04746   0.05003   0.05670

 Mulliken charges:
               1
     1  O   -0.243819
     2  O   -0.226060
     3  O   -0.225651
     4  O   -0.318897
     5  O   -0.205349
     6  O   -0.213605
     7  N   -0.130494
     8  N   -0.110859
     9  N   -0.051434
    10  N   -0.324420
    11  C    0.015224
    12  C    0.160308
    13  C   -0.092784
    14  C   -0.122408
    15  C   -0.144515
    16  C    0.073532
    17  C   -0.183846
    18  C    0.081964
    19  C    0.003542
    20  C   -0.084901
    21  C    0.090254
    22  C    0.113493
    23  C   -0.116190
    24  C    0.294788
    25  C    0.128384
    26  C   -0.120058
    27  C   -0.077660
    28  C    0.025721
    29  C    0.073433
    30  C   -0.051527
    31  C    0.013292
    32  C    0.064536
    33  C   -0.131194
    34  C    0.175731
    35  C    0.137516
    36  C    0.080100
    37  C    0.191237
    38  C    0.021737
    39  C   -0.152753
    40  C    0.167275
    41  C    0.096401
    42  C   -0.015753
    43  C   -0.013269
    44  H    0.054534
    45  H    0.001511
    46  H    0.026910
    47  H    0.168180
    48  H    0.069338
    49  H   -0.003671
    50  H    0.039571
    51  H   -0.019163
    52  H   -0.052847
    53  H   -0.023023
    54  H   -0.013285
    55  H   -0.007228
    56  H    0.049697
    57  H    0.019928
    58  H    0.107587
    59  H    0.030008
    60  H    0.182620
    61  H    0.019832
    62  H    0.040298
    63  H   -0.012628
    64  H    0.049781
    65  H    0.056565
    66  H    0.032630
    67  H    0.058114
    68  H    0.037651
    69  H   -0.027586
    70  H   -0.040140
    71  H    0.040407
    72  H    0.182098
    73  H   -0.095701
    74  H    0.048166
    75  H    0.044050
    76  H    0.055859
    77  H    0.199263
    78  H    0.016129
    79  H    0.013523
 Sum of Mulliken charges =  -0.00000

 Dipole moment (field-independent basis, Debye):
    X=             -0.0839    Y=              1.6894    Z=              3.2056  Tot=              3.6245
 Quadrupole moment (field-independent basis, Debye-Ang):
   XX=           -217.2895   YY=           -244.5992   ZZ=           -263.2175
   XY=             -8.3056   XZ=             35.8514   YZ=              4.5241

 Normal termination of Gaussian 16 at Sat Sep 28 14:07:57 2019.
