 Gaussian 16, Revision A.03,
 Gaussian 16:  ES64L-G16RevA.03 25-Dec-2016

 --------------------------
 # td=(NStates=1) B3LYP/SVP
 --------------------------

 --
 TD
 --
 Symbolic Z-matrix:
 Charge =  0 Multiplicity = 1

                         Standard orientation:
 ---------------------------------------------------------------------
 Center     Atomic      Atomic             Coordinates (Angstroms)
 Number     Number       Type             X           Y           Z
 ---------------------------------------------------------------------
      1          8           0       -3.226071   -1.257876   -2.827322
      2          8           0        3.252432    2.902558    3.222442
      3          8           0        3.467893    1.213372    4.705558
      4          8           0        7.684066   -1.714639   -0.745131
      5          8           0        6.533738   -2.998638   -2.091958
      6          8           0       -2.571954    1.749192    1.508647
      7          7           0       -0.433715   -2.341804    0.804282
      8          7           0       -2.684825   -1.225089   -0.583725
      9          7           0        1.106076    0.087466   -0.849709
     10          7           0       -1.027484    1.479144   -0.222766
     11          6           0       -3.464190   -1.343485    0.675841
     12          6           0       -2.694747   -2.328347    1.694988
     13          6           0       -1.297760   -1.989447    1.773633
     14          6           0       -0.660331   -1.307503    2.879196
     15          6           0        0.680816   -1.208286    2.386222
     16          6           0        0.871489   -1.787235    1.158546
     17          6           0       -4.778031   -1.869603    0.190546
     18          6           0        1.829339   -0.531746    3.164069
     19          6           0       -4.789559   -2.014540   -1.132255
     20          6           0        2.037767   -1.877788    0.164198
     21          6           0        2.153690   -0.844652   -0.757184
     22          6           0       -3.491963   -1.444816   -1.657289
     23          6           0        3.030704   -0.679846   -1.769778
     24          6           0       -1.364302   -0.612753    3.958180
     25          6           0       -5.836643   -2.351308    1.124122
     26          6           0        2.616960    0.513246   -2.504974
     27          6           0        1.938851    0.991871    2.882113
     28          6           0        1.452884    0.998253   -1.828723
     29          6           0        4.212996   -1.529514   -2.086833
     30          6           0       -5.855761   -2.350105   -2.104732
     31          6           0        5.480089   -1.075964   -1.230694
     32          6           0        3.214048    1.108811   -3.654421
     33          6           0        0.529547    2.070217   -2.014411
     34          6           0        2.977663    1.676071    3.704827
     35          6           0       -0.612517    2.345062   -1.172937
     36          6           0       -6.903855   -3.264951   -1.911570
     37          6           0        6.645118   -2.007636   -1.429075
     38          6           0       -1.315049    3.623101   -1.205471
     39          6           0       -2.130602    3.536374   -0.165269
     40          6           0       -2.002079    2.226038    0.524276
     41          6           0       -1.098316    4.699430   -2.181866
     42          6           0       -3.231262    4.390438    0.446861
     43          6           0       -1.887003    5.861087   -2.262079
     44          1           0       -3.598861   -0.366971    1.020539
     45          1           0       -2.781718   -3.309878    1.173075
     46          1           0       -3.161758   -2.107322    2.585688
     47          1           0       -0.782161   -2.781848   -0.076675
     48          1           0       -2.137328   -0.482798   -0.784803
     49          1           0        1.792194   -0.595912    4.345114
     50          1           0        2.600362   -1.031598    2.850765
     51          1           0        2.835723   -2.746591    0.279800
     52          1           0       -2.009775   -1.385862    4.455942
     53          1           0       -0.618935   -0.220289    4.509001
     54          1           0       -1.842927    0.160212    3.531433
     55          1           0       -5.787122   -1.930177    2.142539
     56          1           0       -5.575885   -3.418859    1.403555
     57          1           0       -6.844671   -1.898316    0.791894
     58          1           0        2.147936    1.011188    1.874262
     59          1           0        0.979841    1.593601    3.053205
     60          1           0        0.325996    0.374429   -0.324749
     61          1           0        4.558578   -1.356821   -3.165957
     62          1           0        3.947786   -2.556864   -1.907287
     63          1           0       -5.764752   -2.012937   -3.153234
     64          1           0        5.226018   -0.992282   -0.146942
     65          1           0        5.836928   -0.086232   -1.513487
     66          1           0        4.235323    0.580022   -3.720183
     67          1           0        3.511964    2.134091   -3.329824
     68          1           0        2.761646    1.030206   -4.627224
     69          1           0        0.768005    3.006716   -2.665698
     70          1           0       -7.114274   -3.445992   -0.987430
     71          1           0       -7.544700   -3.553513   -2.708714
     72          1           0        4.095286    3.049052    3.781154
     73          1           0       -0.507854    4.372893   -3.014713
     74          1           0       -4.187190    4.427632   -0.134841
     75          1           0       -3.557283    3.723450    1.269532
     76          1           0       -3.000990    5.364176    0.772371
     77          1           0        8.400237   -2.249076   -1.011040
     78          1           0       -1.714376    6.690076   -2.946755
     79          1           0       -2.880392    6.139769   -1.783112
 ---------------------------------------------------------------------

 SCF Done:  E(RB3LYP) =  -1947.88200934     A.U. after   17 cycles

 Excitation energies and oscillator strengths:

 Excited State   1:      Singlet-A      0.8483 eV 1461.53 nm  f=0.0003  <S**2>=0.000
     155 ->156         0.70328
 This state for optimization and/or second-order correction.
 Total Energy, E(TD-HF/TD-DFT) =  -1947.85083428
 Copying the excited state density for this state as the 1-particle RhoCI density.

 The electronic state is 1-A.
 Alpha  occ. eigenvalues --  -19.20373 -19.18566 -19.12866 -19.12662 -19.12548
 Alpha  occ. eigenvalues --  -19.07978 -14.36072 -14.35920 -14.31937 -14.30363
 Alpha  occ. eigenvalues --  -10.32746 -10.31303 -10.28153 -10.25932 -10.25872
 Alpha  occ. eigenvalues --  -10.25109 -10.24634 -10.24287 -10.22736 -10.22486
 Alpha  occ. eigenvalues --  -10.22455 -10.22399 -10.22363 -10.22051 -10.21905
 Alpha  occ. eigenvalues --  -10.21361 -10.21286 -10.20981 -10.20956 -10.20485
 Alpha  occ. eigenvalues --  -10.20136 -10.19772 -10.19445 -10.19262 -10.19027
 Alpha  occ. eigenvalues --  -10.18997 -10.18549 -10.18086 -10.17861 -10.17195
 Alpha  occ. eigenvalues --  -10.17010 -10.15891 -10.15618  -1.14556  -1.09896
 Alpha  occ. eigenvalues --   -1.02846  -1.02639  -1.00935  -1.00528  -0.99281
 Alpha  occ. eigenvalues --   -0.94906  -0.93242  -0.92337  -0.84339  -0.82016
 Alpha  occ. eigenvalues --   -0.81170  -0.80967  -0.79987  -0.79067  -0.78114
 Alpha  occ. eigenvalues --   -0.76529  -0.76217  -0.74842  -0.74092  -0.73492
 Alpha  occ. eigenvalues --   -0.71311  -0.70927  -0.70384  -0.70150  -0.67405
 Alpha  occ. eigenvalues --   -0.66441  -0.65997  -0.63767  -0.63020  -0.61212
 Alpha  occ. eigenvalues --   -0.59424  -0.59018  -0.57897  -0.57339  -0.56714
 Alpha  occ. eigenvalues --   -0.56185  -0.54803  -0.54270  -0.53237  -0.52931
 Alpha  occ. eigenvalues --   -0.52209  -0.51713  -0.51459  -0.50599  -0.50250
 Alpha  occ. eigenvalues --   -0.49676  -0.49242  -0.48871  -0.48412  -0.48277
 Alpha  occ. eigenvalues --   -0.47689  -0.47222  -0.46972  -0.46531  -0.45759
 Alpha  occ. eigenvalues --   -0.45316  -0.45067  -0.45029  -0.44422  -0.44084
 Alpha  occ. eigenvalues --   -0.43888  -0.43512  -0.43138  -0.42932  -0.42640
 Alpha  occ. eigenvalues --   -0.42154  -0.41947  -0.41685  -0.41011  -0.40705
 Alpha  occ. eigenvalues --   -0.40515  -0.40317  -0.40234  -0.39841  -0.39604
 Alpha  occ. eigenvalues --   -0.39465  -0.39053  -0.38759  -0.38699  -0.38059
 Alpha  occ. eigenvalues --   -0.37843  -0.37391  -0.37301  -0.36971  -0.36677
 Alpha  occ. eigenvalues --   -0.36276  -0.36139  -0.35868  -0.35298  -0.34979
 Alpha  occ. eigenvalues --   -0.34076  -0.34026  -0.33163  -0.32509  -0.31716
 Alpha  occ. eigenvalues --   -0.30885  -0.29515  -0.29299  -0.29099  -0.28853
 Alpha  occ. eigenvalues --   -0.28137  -0.26217  -0.26054  -0.25295  -0.23855
 Alpha  occ. eigenvalues --   -0.23451  -0.22822  -0.22326  -0.21572  -0.18496
 Alpha virt. eigenvalues --   -0.12789  -0.08377  -0.03787  -0.03170   0.00087
 Alpha virt. eigenvalues --    0.00730   0.01698   0.02350   0.02845   0.03480
 Alpha virt. eigenvalues --    0.04325   0.04438   0.05352   0.05584   0.05677

 Mulliken charges:
               1
     1  O   -0.232003
     2  O   -0.195571
     3  O   -0.229247
     4  O   -0.085185
     5  O   -0.223660
     6  O   -0.209532
     7  N   -0.096939
     8  N   -0.155611
     9  N   -0.066514
    10  N   -0.320881
    11  C    0.110306
    12  C    0.323714
    13  C   -0.156752
    14  C   -0.161721
    15  C   -0.125795
    16  C    0.009455
    17  C   -0.231342
    18  C    0.130360
    19  C   -0.014024
    20  C   -0.147475
    21  C    0.161578
    22  C    0.084161
    23  C   -0.068812
    24  C    0.239981
    25  C    0.081860
    26  C   -0.128773
    27  C    0.028993
    28  C    0.108793
    29  C    0.120155
    30  C   -0.063272
    31  C   -0.029571
    32  C    0.092051
    33  C   -0.105978
    34  C    0.122281
    35  C    0.042267
    36  C    0.045733
    37  C    0.089270
    38  C    0.052929
    39  C   -0.226244
    40  C    0.194320
    41  C    0.024816
    42  C    0.100291
    43  C   -0.058355
    44  H    0.013181
    45  H   -0.019091
    46  H   -0.049918
    47  H    0.132838
    48  H    0.097954
    49  H    0.033465
    50  H   -0.061545
    51  H    0.054612
    52  H    0.020201
    53  H   -0.044821
    54  H   -0.001226
    55  H   -0.007139
    56  H    0.047685
    57  H    0.056857
    58  H   -0.005999
    59  H    0.059096
    60  H    0.137054
    61  H    0.030379
    62  H    0.025112
    63  H    0.013667
    64  H    0.045290
    65  H    0.025137
    66  H    0.001699
    67  H    0.034394
    68  H    0.052513
    69  H    0.002186
    70  H   -0.042244
    71  H    0.016213
    72  H    0.187106
    73  H    0.010681
    74  H    0.027246
    75  H    0.015865
    76  H    0.019017
    77  H    0.164445
    78  H    0.028140
    79  H    0.049890
 Sum of Mulliken charges =  -0.00000

 Dipole moment (field-independent basis, Debye):
    X=              4.5349    Y=              3.0640    Z=             -1.6301  Tot=              5.7106
 Quadrupole moment (field-independent basis, Debye-Ang):
   XX=           -214.7297   YY=           -238.9591   ZZ=           -271.3609
   XY=              1.7862   XZ=            -21.8072   YZ=            -15.7034

 Normal termination of Gaussian 16 at Tue Jul 30 14:18:35 2019.
