 Gaussian 16, Revision A.03,
 Gaussian 16:  ES64L-G16RevA.03 25-Dec-2016

 --------------------------
 # td=(NStates=1) B3LYP/SVP
 --------------------------

 --
 TD
 --
 Symbolic Z-matrix:
 Charge =  0 Multiplicity = 1

                         Standard orientation:
 ---------------------------------------------------------------------
 Center     Atomic      Atomic             Coordinates (Angstroms)
 Number     Number       Type             X           Y           Z
 ---------------------------------------------------------------------
      1          8           0       -3.169351   -1.458021   -2.859045
      2          8           0        2.927911    3.155264    3.007306
      3          8           0        3.487263    1.630737    4.657610
      4          8           0        7.758191   -1.615354   -0.937098
      5          8           0        6.528886   -3.285267   -1.857716
      6          8           0       -2.659221    1.667442    1.375843
      7          7           0       -0.279952   -2.311993    1.019691
      8          7           0       -2.625009   -1.260441   -0.665269
      9          7           0        1.145646    0.189819   -0.706379
     10          7           0       -1.002720    1.487996   -0.229572
     11          6           0       -3.349567   -1.272576    0.577736
     12          6           0       -2.699272   -2.208472    1.692819
     13          6           0       -1.244064   -1.892843    1.921287
     14          6           0       -0.463663   -1.158215    2.945725
     15          6           0        0.833673   -1.090324    2.517697
     16          6           0        0.926484   -1.825349    1.342537
     17          6           0       -4.725993   -1.887967    0.240449
     18          6           0        1.919814   -0.445069    3.159684
     19          6           0       -4.760832   -2.135678   -1.047365
     20          6           0        2.066131   -1.828790    0.384388
     21          6           0        2.094683   -0.880148   -0.604287
     22          6           0       -3.503274   -1.585539   -1.696611
     23          6           0        3.075007   -0.546975   -1.802462
     24          6           0       -1.181134   -0.513583    4.002518
     25          6           0       -5.754222   -2.136064    1.251280
     26          6           0        2.668459    0.587578   -2.356095
     27          6           0        1.976672    1.035748    2.795624
     28          6           0        1.414279    1.028683   -1.792809
     29          6           0        4.210763   -1.507597   -1.975010
     30          6           0       -5.776182   -2.619697   -1.923063
     31          6           0        5.480554   -1.082056   -1.316509
     32          6           0        3.232608    1.099366   -3.628296
     33          6           0        0.642836    2.076749   -2.025813
     34          6           0        2.870708    1.948629    3.614895
     35          6           0       -0.603889    2.284824   -1.236541
     36          6           0       -6.936166   -3.310423   -1.734500
     37          6           0        6.651765   -2.121138   -1.450943
     38          6           0       -1.502674    3.436690   -1.343272
     39          6           0       -2.379289    3.304252   -0.319577
     40          6           0       -2.081492    2.052066    0.362752
     41          6           0       -1.270612    4.482455   -2.289821
     42          6           0       -3.489125    4.254770    0.103417
     43          6           0       -1.997442    5.541105   -2.438193
     44          1           0       -3.313537   -0.369219    1.165678
     45          1           0       -2.979000   -3.250234    1.284257
     46          1           0       -3.200001   -2.099883    2.635092
     47          1           0       -0.273064   -2.814902    0.146180
     48          1           0       -1.941123   -0.500191   -0.621150
     49          1           0        1.593564   -0.359275    4.278625
     50          1           0        2.991721   -0.915921    3.139100
     51          1           0        2.963765   -2.580140    0.391293
     52          1           0       -1.781634   -1.237836    4.615668
     53          1           0       -0.526202    0.201375    4.652248
     54          1           0       -2.023732    0.062000    3.485817
     55          1           0       -5.529022   -1.688926    2.185680
     56          1           0       -5.743268   -3.142144    1.513397
     57          1           0       -6.686046   -1.988321    0.681314
     58          1           0        2.297153    1.186654    1.732105
     59          1           0        0.941092    1.409407    2.701835
     60          1           0        0.221076    0.471569   -0.045143
     61          1           0        4.417979   -1.344951   -3.100223
     62          1           0        3.780053   -2.480911   -1.846382
     63          1           0       -5.634312   -2.581428   -3.063421
     64          1           0        5.233166   -1.012887   -0.299311
     65          1           0        5.816245   -0.031275   -1.720058
     66          1           0        4.212361    0.800495   -4.112892
     67          1           0        3.557766    2.171610   -3.328248
     68          1           0        2.473642    1.246773   -4.360592
     69          1           0        0.816770    2.903218   -2.709662
     70          1           0       -7.274017   -3.370117   -0.590374
     71          1           0       -7.532913   -3.725889   -2.532536
     72          1           0        3.499298    3.733277    3.616403
     73          1           0       -0.529043    4.169742   -3.155701
     74          1           0       -4.209195    4.561424   -0.609028
     75          1           0       -4.017357    3.836273    0.930702
     76          1           0       -3.060711    5.144859    0.588923
     77          1           0        8.573864   -2.237613   -1.078779
     78          1           0       -1.979467    6.266497   -3.194830
     79          1           0       -2.884323    5.564348   -1.990325
 ---------------------------------------------------------------------

 SCF Done:  E(RB3LYP) =  -1947.90674236     A.U. after   16 cycles

 Excitation energies and oscillator strengths:

 Excited State   1:      Singlet-A      0.8431 eV 1470.53 nm  f=0.0009  <S**2>=0.000
     155 ->156         0.70537
 This state for optimization and/or second-order correction.
 Total Energy, E(TD-HF/TD-DFT) =  -1947.87575808
 Copying the excited state density for this state as the 1-particle RhoCI density.

 The electronic state is 1-A.
 Alpha  occ. eigenvalues --  -19.20490 -19.18843 -19.13454 -19.12925 -19.12262
 Alpha  occ. eigenvalues --  -19.08442 -14.36645 -14.35918 -14.32641 -14.32095
 Alpha  occ. eigenvalues --  -10.33588 -10.31880 -10.28599 -10.26994 -10.26438
 Alpha  occ. eigenvalues --  -10.25981 -10.25064 -10.22561 -10.22391 -10.22349
 Alpha  occ. eigenvalues --  -10.21896 -10.21608 -10.21576 -10.21340 -10.21304
 Alpha  occ. eigenvalues --  -10.21269 -10.21132 -10.21123 -10.20469 -10.20202
 Alpha  occ. eigenvalues --  -10.19864 -10.19757 -10.19431 -10.19347 -10.19221
 Alpha  occ. eigenvalues --  -10.19152 -10.18951 -10.18913 -10.18753 -10.18484
 Alpha  occ. eigenvalues --  -10.18096 -10.16777 -10.15892  -1.10525  -1.08318
 Alpha  occ. eigenvalues --   -1.04031  -1.00893  -1.00364  -0.98531  -0.97347
 Alpha  occ. eigenvalues --   -0.96757  -0.95149  -0.92016  -0.83817  -0.83132
 Alpha  occ. eigenvalues --   -0.82109  -0.81884  -0.81417  -0.79254  -0.78205
 Alpha  occ. eigenvalues --   -0.77278  -0.76226  -0.75757  -0.74302  -0.72683
 Alpha  occ. eigenvalues --   -0.71703  -0.71190  -0.70735  -0.69053  -0.67481
 Alpha  occ. eigenvalues --   -0.66962  -0.66043  -0.62992  -0.62142  -0.61585
 Alpha  occ. eigenvalues --   -0.60023  -0.59860  -0.58511  -0.57500  -0.56671
 Alpha  occ. eigenvalues --   -0.55709  -0.55365  -0.54965  -0.54141  -0.52388
 Alpha  occ. eigenvalues --   -0.51447  -0.51098  -0.50623  -0.50199  -0.49605
 Alpha  occ. eigenvalues --   -0.48983  -0.48743  -0.48568  -0.48226  -0.47880
 Alpha  occ. eigenvalues --   -0.47700  -0.47538  -0.46784  -0.46385  -0.46158
 Alpha  occ. eigenvalues --   -0.45789  -0.45531  -0.44869  -0.44741  -0.44287
 Alpha  occ. eigenvalues --   -0.43963  -0.43853  -0.43411  -0.42816  -0.42524
 Alpha  occ. eigenvalues --   -0.42397  -0.41829  -0.41294  -0.41231  -0.41228
 Alpha  occ. eigenvalues --   -0.40695  -0.40470  -0.40304  -0.40127  -0.39586
 Alpha  occ. eigenvalues --   -0.39457  -0.39105  -0.38976  -0.38392  -0.37905
 Alpha  occ. eigenvalues --   -0.37781  -0.37587  -0.37451  -0.37135  -0.36767
 Alpha  occ. eigenvalues --   -0.36361  -0.36003  -0.35524  -0.34227  -0.34046
 Alpha  occ. eigenvalues --   -0.33591  -0.33075  -0.32619  -0.32088  -0.31833
 Alpha  occ. eigenvalues --   -0.31598  -0.30833  -0.29897  -0.29705  -0.28817
 Alpha  occ. eigenvalues --   -0.27492  -0.26936  -0.26641  -0.24858  -0.24492
 Alpha  occ. eigenvalues --   -0.23879  -0.22937  -0.22745  -0.22533  -0.18263
 Alpha virt. eigenvalues --   -0.12865  -0.06771  -0.04016  -0.02001  -0.01103
 Alpha virt. eigenvalues --   -0.00080   0.01517   0.01975   0.02623   0.02764
 Alpha virt. eigenvalues --    0.03877   0.04111   0.05062   0.05209   0.05372

 Mulliken charges:
               1
     1  O   -0.219448
     2  O   -0.198888
     3  O   -0.263552
     4  O   -0.188671
     5  O   -0.246036
     6  O   -0.204028
     7  N   -0.004562
     8  N   -0.178009
     9  N   -0.253299
    10  N   -0.296161
    11  C    0.033853
    12  C    0.159806
    13  C   -0.103466
    14  C   -0.084843
    15  C   -0.063420
    16  C   -0.052489
    17  C   -0.188716
    18  C    0.084022
    19  C   -0.001214
    20  C   -0.165766
    21  C    0.135626
    22  C    0.146259
    23  C   -0.089556
    24  C    0.035996
    25  C    0.182454
    26  C   -0.113165
    27  C   -0.052236
    28  C    0.236607
    29  C    0.118280
    30  C   -0.069101
    31  C    0.011584
    32  C    0.060414
    33  C   -0.117167
    34  C    0.170113
    35  C    0.046493
    36  C   -0.071033
    37  C    0.152631
    38  C    0.071279
    39  C   -0.212739
    40  C    0.167333
    41  C   -0.050544
    42  C    0.137173
    43  C    0.058741
    44  H    0.030077
    45  H   -0.006114
    46  H   -0.025977
    47  H    0.112651
    48  H    0.134911
    49  H    0.013116
    50  H    0.022532
    51  H    0.033795
    52  H    0.012422
    53  H    0.022132
    54  H    0.038552
    55  H    0.001617
    56  H    0.002977
    57  H    0.045417
    58  H    0.027387
    59  H    0.043762
    60  H    0.260776
    61  H    0.009054
    62  H    0.029762
    63  H    0.021263
    64  H    0.023800
    65  H    0.053293
    66  H    0.037613
    67  H    0.015984
    68  H    0.030067
    69  H   -0.022072
    70  H    0.010328
    71  H    0.026457
    72  H    0.197314
    73  H    0.028653
    74  H    0.034574
    75  H   -0.000498
    76  H    0.022653
    77  H    0.221868
    78  H    0.006812
    79  H   -0.037512
 Sum of Mulliken charges =  -0.00000

 Dipole moment (field-independent basis, Debye):
    X=              2.9339    Y=              4.4707    Z=             -2.1187  Tot=              5.7519
 Quadrupole moment (field-independent basis, Debye-Ang):
   XX=           -220.6007   YY=           -238.6372   ZZ=           -270.3792
   XY=              2.6205   XZ=            -24.4261   YZ=            -15.6217

 Normal termination of Gaussian 16 at Sat Jul 27 11:10:15 2019.
