 Gaussian 16, Revision A.03,
 Gaussian 16:  ES64L-G16RevA.03 25-Dec-2016

 --------------------------
 # td=(NStates=1) B3LYP/SVP
 --------------------------

 --
 TD
 --
 Symbolic Z-matrix:
 Charge =  0 Multiplicity = 1

                         Standard orientation:
 ---------------------------------------------------------------------
 Center     Atomic      Atomic             Coordinates (Angstroms)
 Number     Number       Type             X           Y           Z
 ---------------------------------------------------------------------
      1          8           0       -3.121358   -1.632335   -2.627102
      2          8           0        2.909334    3.655640    2.517855
      3          8           0        3.389755    2.277088    4.157237
      4          8           0        7.688257   -1.577565   -0.305771
      5          8           0        6.891197   -3.128747   -1.789091
      6          8           0       -2.597198    1.857870    1.172379
      7          7           0       -0.347672   -2.305666    1.349873
      8          7           0       -2.656197   -1.149254   -0.405246
      9          7           0        1.093631   -0.180592   -0.754614
     10          7           0       -1.021298    1.297871   -0.354060
     11          6           0       -3.410847   -1.235280    0.808469
     12          6           0       -2.752354   -2.172795    1.906394
     13          6           0       -1.260180   -1.848579    2.028420
     14          6           0       -0.684764   -0.857207    2.955301
     15          6           0        0.647054   -0.705528    2.628049
     16          6           0        0.873412   -1.692884    1.568802
     17          6           0       -4.775988   -1.810067    0.388041
     18          6           0        1.703194    0.124382    3.285763
     19          6           0       -4.722370   -2.270541   -0.924394
     20          6           0        2.126100   -1.893919    0.655749
     21          6           0        2.129399   -1.025300   -0.398613
     22          6           0       -3.431219   -1.658126   -1.466757
     23          6           0        3.049296   -0.962590   -1.559142
     24          6           0       -1.299413    0.094297    3.857362
     25          6           0       -5.843625   -1.931888    1.405608
     26          6           0        2.572096   -0.000156   -2.389394
     27          6           0        1.774472    1.527039    2.600688
     28          6           0        1.282276    0.518282   -1.899055
     29          6           0        4.269141   -1.963243   -1.570767
     30          6           0       -5.799637   -2.638112   -1.808320
     31          6           0        5.556226   -1.361203   -1.017419
     32          6           0        3.291429    0.473868   -3.681009
     33          6           0        0.535264    1.594538   -2.177553
     34          6           0        2.740128    2.577999    3.205860
     35          6           0       -0.560570    1.996440   -1.537003
     36          6           0       -6.883071   -3.303640   -1.418814
     37          6           0        6.705182   -2.150870   -1.051521
     38          6           0       -1.436710    3.231677   -1.718800
     39          6           0       -2.359673    3.307673   -0.721551
     40          6           0       -1.973739    2.126484    0.159641
     41          6           0       -1.157269    4.115721   -2.873078
     42          6           0       -3.311885    4.326210   -0.397526
     43          6           0       -1.590251    5.307939   -2.973611
     44          1           0       -3.605568   -0.192553    1.267957
     45          1           0       -2.904974   -3.368973    1.805087
     46          1           0       -3.165821   -2.010302    2.933675
     47          1           0       -0.717033   -2.664229    0.497309
     48          1           0       -1.891191   -0.382029   -0.415819
     49          1           0        1.623858    0.310877    4.259140
     50          1           0        2.690214   -0.350529    3.154065
     51          1           0        2.893042   -2.725168    0.863198
     52          1           0       -2.156769   -0.306760    4.589028
     53          1           0       -0.503295    0.598643    4.464856
     54          1           0       -1.674743    0.839170    3.035716
     55          1           0       -5.535436   -1.508180    2.345981
     56          1           0       -6.011024   -3.090257    1.622906
     57          1           0       -6.925022   -1.364370    1.037134
     58          1           0        2.111704    1.360261    1.569041
     59          1           0        0.847960    1.783683    2.540991
     60          1           0        0.280340    0.172877   -0.196881
     61          1           0        4.419400   -2.370594   -2.773658
     62          1           0        3.797710   -2.839152   -1.126302
     63          1           0       -5.602995   -2.481583   -2.794342
     64          1           0        5.260962   -0.973420    0.031536
     65          1           0        5.926482   -0.333948   -1.371507
     66          1           0        4.456250    0.013826   -3.603799
     67          1           0        3.242594    1.607645   -3.642146
     68          1           0        2.913479    0.060196   -4.862063
     69          1           0        0.842153    2.244711   -3.090086
     70          1           0       -7.038671   -3.447148   -0.487788
     71          1           0       -7.568294   -3.642137   -2.315631
     72          1           0        3.883369    4.007196    2.838590
     73          1           0       -0.447856    3.753111   -3.574302
     74          1           0       -3.961107    4.221082   -1.373134
     75          1           0       -3.916520    4.016955    0.506645
     76          1           0       -2.922340    5.281084   -0.103133
     77          1           0        8.343684   -2.134214   -0.535133
     78          1           0       -1.470126    5.829242   -3.793687
     79          1           0       -2.280171    5.789112   -2.378105
 ---------------------------------------------------------------------

 SCF Done:  E(RB3LYP) =  -1947.77318365     A.U. after   22 cycles

 Excitation energies and oscillator strengths:

 Excited State   1:      Singlet-A      0.7637 eV 1623.40 nm  f=0.0089  <S**2>=0.000
     155 ->156         0.70521
 This state for optimization and/or second-order correction.
 Total Energy, E(TD-HF/TD-DFT) =  -1947.74511702
 Copying the excited state density for this state as the 1-particle RhoCI density.

 The electronic state is 1-A.
 Alpha  occ. eigenvalues --  -19.19512 -19.19324 -19.14277 -19.11572 -19.11123
 Alpha  occ. eigenvalues --  -19.08037 -14.37558 -14.37198 -14.32291 -14.31241
 Alpha  occ. eigenvalues --  -10.33406 -10.31134 -10.27468 -10.26976 -10.26591
 Alpha  occ. eigenvalues --  -10.25827 -10.25490 -10.24758 -10.24336 -10.24186
 Alpha  occ. eigenvalues --  -10.23417 -10.23260 -10.23162 -10.22467 -10.21548
 Alpha  occ. eigenvalues --  -10.21248 -10.21131 -10.21004 -10.20984 -10.20942
 Alpha  occ. eigenvalues --  -10.20459 -10.20436 -10.20194 -10.19881 -10.18243
 Alpha  occ. eigenvalues --  -10.18154 -10.17884 -10.17761 -10.17735 -10.17476
 Alpha  occ. eigenvalues --  -10.17327 -10.17143 -10.15922  -1.12645  -1.11218
 Alpha  occ. eigenvalues --   -1.02834  -1.01782  -1.01026  -1.00863  -1.00849
 Alpha  occ. eigenvalues --   -1.00355  -0.92083  -0.91036  -0.84317  -0.82844
 Alpha  occ. eigenvalues --   -0.82507  -0.81087  -0.80555  -0.80312  -0.78684
 Alpha  occ. eigenvalues --   -0.77616  -0.76448  -0.76080  -0.74559  -0.72320
 Alpha  occ. eigenvalues --   -0.71659  -0.69839  -0.69066  -0.68836  -0.67705
 Alpha  occ. eigenvalues --   -0.66961  -0.65695  -0.62683  -0.61761  -0.61044
 Alpha  occ. eigenvalues --   -0.59865  -0.59610  -0.59408  -0.57636  -0.56384
 Alpha  occ. eigenvalues --   -0.56020  -0.55904  -0.55015  -0.53353  -0.52723
 Alpha  occ. eigenvalues --   -0.52586  -0.51796  -0.51459  -0.50553  -0.50443
 Alpha  occ. eigenvalues --   -0.50196  -0.49654  -0.49034  -0.48820  -0.48048
 Alpha  occ. eigenvalues --   -0.47924  -0.47676  -0.47142  -0.46745  -0.46508
 Alpha  occ. eigenvalues --   -0.46292  -0.45223  -0.44896  -0.44086  -0.43827
 Alpha  occ. eigenvalues --   -0.43458  -0.43016  -0.42936  -0.42471  -0.42105
 Alpha  occ. eigenvalues --   -0.41825  -0.41527  -0.41461  -0.41386  -0.40909
 Alpha  occ. eigenvalues --   -0.40559  -0.40342  -0.40178  -0.39937  -0.39709
 Alpha  occ. eigenvalues --   -0.39041  -0.38918  -0.38753  -0.38162  -0.37532
 Alpha  occ. eigenvalues --   -0.37364  -0.37036  -0.36869  -0.36781  -0.36393
 Alpha  occ. eigenvalues --   -0.36350  -0.35407  -0.35310  -0.35091  -0.34669
 Alpha  occ. eigenvalues --   -0.34442  -0.33795  -0.33353  -0.32667  -0.32472
 Alpha  occ. eigenvalues --   -0.31533  -0.30215  -0.30034  -0.29624  -0.28989
 Alpha  occ. eigenvalues --   -0.27862  -0.27306  -0.25509  -0.24547  -0.24272
 Alpha  occ. eigenvalues --   -0.23650  -0.23408  -0.22807  -0.22008  -0.17958
 Alpha virt. eigenvalues --   -0.12750  -0.06935  -0.03964  -0.02882  -0.01370
 Alpha virt. eigenvalues --    0.00120   0.01783   0.02389   0.02924   0.02967
 Alpha virt. eigenvalues --    0.03509   0.04215   0.04436   0.04659   0.05372

 Mulliken charges:
               1
     1  O   -0.219052
     2  O   -0.183243
     3  O   -0.224601
     4  O   -0.124212
     5  O   -0.249478
     6  O   -0.220172
     7  N    0.139761
     8  N   -0.266113
     9  N   -0.094449
    10  N   -0.380601
    11  C    0.084332
    12  C    0.137514
    13  C   -0.243194
    14  C   -0.123690
    15  C   -0.089428
    16  C   -0.114280
    17  C   -0.174995
    18  C    0.194882
    19  C   -0.042207
    20  C   -0.115948
    21  C    0.129005
    22  C    0.138307
    23  C   -0.067520
    24  C   -0.008698
    25  C    0.016520
    26  C   -0.120346
    27  C    0.025171
    28  C    0.143431
    29  C    0.059191
    30  C    0.009321
    31  C   -0.003040
    32  C   -0.058145
    33  C   -0.114821
    34  C    0.115690
    35  C    0.120769
    36  C    0.054872
    37  C    0.143731
    38  C    0.064762
    39  C   -0.180095
    40  C    0.163822
    41  C    0.007523
    42  C    0.053941
    43  C    0.079621
    44  H    0.062080
    45  H    0.012793
    46  H    0.000267
    47  H    0.109420
    48  H    0.184329
    49  H   -0.033807
    50  H   -0.016611
    51  H    0.053638
    52  H    0.019219
    53  H    0.007986
    54  H    0.079658
    55  H    0.012036
    56  H    0.058195
    57  H    0.066504
    58  H    0.016777
    59  H   -0.024977
    60  H    0.191839
    61  H    0.055903
    62  H    0.034396
    63  H   -0.034863
    64  H    0.050173
    65  H    0.067920
    66  H    0.051552
    67  H    0.050414
    68  H    0.076161
    69  H    0.009380
    70  H   -0.069391
    71  H    0.037276
    72  H    0.225132
    73  H   -0.033183
    74  H    0.060299
    75  H    0.031617
    76  H    0.046223
    77  H    0.124413
    78  H   -0.029286
    79  H   -0.017320
 Sum of Mulliken charges =  -0.00000

 Dipole moment (field-independent basis, Debye):
    X=              3.4762    Y=              3.4662    Z=             -1.6712  Tot=              5.1857
 Quadrupole moment (field-independent basis, Debye-Ang):
   XX=           -236.7924   YY=           -239.4761   ZZ=           -270.4152
   XY=              4.5507   XZ=            -16.0053   YZ=            -20.2401

 Normal termination of Gaussian 16 at Sun Jul 28 03:33:11 2019.
