 Gaussian 16, Revision A.03,
 Gaussian 16:  ES64L-G16RevA.03 25-Dec-2016

 --------------------------
 # td=(NStates=1) B3LYP/SVP
 --------------------------

 --
 TD
 --
 Symbolic Z-matrix:
 Charge =  0 Multiplicity = 1

                         Standard orientation:
 ---------------------------------------------------------------------
 Center     Atomic      Atomic             Coordinates (Angstroms)
 Number     Number       Type             X           Y           Z
 ---------------------------------------------------------------------
      1          8           0       -3.283205   -1.384443   -2.869781
      2          8           0        2.970070    3.235682    2.753342
      3          8           0        3.297423    1.865974    4.646708
      4          8           0        7.678963   -1.610105   -0.644811
      5          8           0        6.530600   -3.238482   -1.750437
      6          8           0       -2.494992    1.740264    1.463923
      7          7           0       -0.255736   -2.311385    1.003783
      8          7           0       -2.636193   -1.201549   -0.575626
      9          7           0        1.162167    0.016610   -0.792686
     10          7           0       -0.894469    1.534356   -0.177872
     11          6           0       -3.328756   -1.315904    0.761065
     12          6           0       -2.620531   -2.288951    1.679380
     13          6           0       -1.173057   -2.016541    1.947187
     14          6           0       -0.541882   -1.228475    2.839224
     15          6           0        0.840800   -1.121326    2.551220
     16          6           0        1.017133   -1.773748    1.312140
     17          6           0       -4.657613   -1.876370    0.308801
     18          6           0        1.800804   -0.268384    3.221326
     19          6           0       -4.749210   -2.155000   -1.011439
     20          6           0        2.097282   -1.855013    0.351956
     21          6           0        2.158541   -0.956864   -0.671470
     22          6           0       -3.465953   -1.553564   -1.658936
     23          6           0        3.010621   -0.757328   -1.841314
     24          6           0       -1.300077   -0.459400    3.906176
     25          6           0       -5.672983   -2.267110    1.378518
     26          6           0        2.587885    0.298935   -2.568600
     27          6           0        1.923132    1.178378    2.642903
     28          6           0        1.371550    0.921841   -1.851837
     29          6           0        4.241345   -1.527606   -2.035468
     30          6           0       -5.774006   -2.597288   -1.882525
     31          6           0        5.450856   -1.090902   -1.077065
     32          6           0        3.148213    0.944797   -3.920036
     33          6           0        0.612660    2.016959   -2.079524
     34          6           0        2.827465    2.076916    3.389092
     35          6           0       -0.546449    2.308101   -1.270189
     36          6           0       -6.834078   -3.450734   -1.676150
     37          6           0        6.516161   -2.062585   -1.176779
     38          6           0       -1.415458    3.497395   -1.382740
     39          6           0       -2.244126    3.387103   -0.240003
     40          6           0       -1.892995    2.175965    0.441152
     41          6           0       -1.422109    4.502192   -2.418790
     42          6           0       -3.376225    4.331738    0.168916
     43          6           0       -2.026697    5.643515   -2.465880
     44          1           0       -3.501991   -0.277297    1.095987
     45          1           0       -2.685829   -3.212063    1.056569
     46          1           0       -3.158949   -2.236808    2.534203
     47          1           0       -0.369316   -2.969100    0.286455
     48          1           0       -1.725755   -0.539960   -0.725297
     49          1           0        1.543406   -0.048757    4.328745
     50          1           0        2.727299   -0.757576    3.320729
     51          1           0        2.854053   -2.779282    0.128308
     52          1           0       -1.975785   -1.038217    4.590789
     53          1           0       -0.554008    0.102645    4.603407
     54          1           0       -1.872770    0.444847    3.313980
     55          1           0       -5.895566   -1.343880    2.212454
     56          1           0       -5.727299   -3.159666    1.819353
     57          1           0       -6.473503   -2.124123    0.838033
     58          1           0        2.066674    0.912459    1.623547
     59          1           0        0.947816    1.593951    2.768305
     60          1           0        0.443927    0.383960   -0.172172
     61          1           0        4.624948   -1.626616   -2.982400
     62          1           0        4.016334   -2.626337   -1.896965
     63          1           0       -5.632516   -2.336703   -2.810286
     64          1           0        5.008457   -1.303885   -0.062983
     65          1           0        5.692846   -0.056674   -1.095728
     66          1           0        3.650220    0.214777   -4.569217
     67          1           0        3.720680    1.803393   -3.637180
     68          1           0        2.055114    1.237529   -4.445946
     69          1           0        0.684161    2.721147   -2.728790
     70          1           0       -7.246447   -3.927454   -0.705966
     71          1           0       -7.631916   -3.772388   -2.532512
     72          1           0        3.748226    3.761084    3.354295
     73          1           0       -0.791685    4.106281   -3.398762
     74          1           0       -4.119773    4.384580   -0.464708
     75          1           0       -3.813541    3.931451    1.119398
     76          1           0       -2.991049    5.390812    0.288050
     77          1           0        8.389827   -2.281829   -0.848810
     78          1           0       -1.892340    6.268058   -3.473082
     79          1           0       -2.708671    6.059818   -1.748419
 ---------------------------------------------------------------------

 SCF Done:  E(RB3LYP) =  -1947.80554380     A.U. after   19 cycles

 Excitation energies and oscillator strengths:

 Excited State   1:      Singlet-A      1.1254 eV 1101.64 nm  f=0.0016  <S**2>=0.000
     155 ->156         0.70380
 This state for optimization and/or second-order correction.
 Total Energy, E(TD-HF/TD-DFT) =  -1947.76418435
 Copying the excited state density for this state as the 1-particle RhoCI density.

 The electronic state is 1-A.
 Alpha  occ. eigenvalues --  -19.20700 -19.19767 -19.13341 -19.12232 -19.11929
 Alpha  occ. eigenvalues --  -19.08634 -14.37323 -14.36240 -14.33471 -14.31359
 Alpha  occ. eigenvalues --  -10.34050 -10.32921 -10.27961 -10.27690 -10.27169
 Alpha  occ. eigenvalues --  -10.26543 -10.25982 -10.23870 -10.23511 -10.23477
 Alpha  occ. eigenvalues --  -10.23254 -10.22827 -10.22563 -10.22336 -10.22152
 Alpha  occ. eigenvalues --  -10.21917 -10.21741 -10.21444 -10.21322 -10.20831
 Alpha  occ. eigenvalues --  -10.20561 -10.20475 -10.19671 -10.19639 -10.19546
 Alpha  occ. eigenvalues --  -10.19215 -10.18893 -10.18404 -10.18333 -10.18288
 Alpha  occ. eigenvalues --  -10.18106 -10.17429 -10.16171  -1.09343  -1.08301
 Alpha  occ. eigenvalues --   -1.01973  -0.99271  -0.98931  -0.97286  -0.97026
 Alpha  occ. eigenvalues --   -0.94038  -0.93951  -0.90244  -0.84635  -0.82877
 Alpha  occ. eigenvalues --   -0.82393  -0.81048  -0.80265  -0.79899  -0.79192
 Alpha  occ. eigenvalues --   -0.77549  -0.76826  -0.76586  -0.74926  -0.73484
 Alpha  occ. eigenvalues --   -0.71935  -0.70668  -0.70011  -0.69391  -0.67852
 Alpha  occ. eigenvalues --   -0.66853  -0.66361  -0.64135  -0.62160  -0.61344
 Alpha  occ. eigenvalues --   -0.60598  -0.59378  -0.59168  -0.58267  -0.57790
 Alpha  occ. eigenvalues --   -0.55267  -0.55016  -0.54814  -0.54219  -0.53653
 Alpha  occ. eigenvalues --   -0.52503  -0.52254  -0.51335  -0.50902  -0.49770
 Alpha  occ. eigenvalues --   -0.49663  -0.48971  -0.48586  -0.48547  -0.48500
 Alpha  occ. eigenvalues --   -0.48118  -0.47653  -0.46698  -0.46154  -0.45711
 Alpha  occ. eigenvalues --   -0.45313  -0.45175  -0.45154  -0.44927  -0.44273
 Alpha  occ. eigenvalues --   -0.44225  -0.43793  -0.43585  -0.42424  -0.42037
 Alpha  occ. eigenvalues --   -0.41944  -0.41680  -0.41334  -0.41144  -0.40971
 Alpha  occ. eigenvalues --   -0.40762  -0.40676  -0.39992  -0.39802  -0.39479
 Alpha  occ. eigenvalues --   -0.38824  -0.38728  -0.38603  -0.38315  -0.38027
 Alpha  occ. eigenvalues --   -0.37524  -0.37358  -0.36748  -0.36368  -0.36116
 Alpha  occ. eigenvalues --   -0.35900  -0.35698  -0.35437  -0.35257  -0.34839
 Alpha  occ. eigenvalues --   -0.33625  -0.33278  -0.32460  -0.31918  -0.31724
 Alpha  occ. eigenvalues --   -0.30680  -0.29847  -0.29753  -0.29382  -0.28697
 Alpha  occ. eigenvalues --   -0.27812  -0.26649  -0.26386  -0.24591  -0.24291
 Alpha  occ. eigenvalues --   -0.23749  -0.23377  -0.22993  -0.22635  -0.20208
 Alpha virt. eigenvalues --   -0.13677  -0.08132  -0.04549  -0.03169  -0.02520
 Alpha virt. eigenvalues --   -0.02218   0.00349   0.01282   0.02437   0.02647
 Alpha virt. eigenvalues --    0.03124   0.03546   0.04109   0.05219   0.05264

 Mulliken charges:
               1
     1  O   -0.255610
     2  O   -0.213257
     3  O   -0.355556
     4  O   -0.194691
     5  O   -0.316258
     6  O   -0.243327
     7  N   -0.048821
     8  N   -0.323926
     9  N   -0.135278
    10  N   -0.286199
    11  C    0.133239
    12  C    0.299254
    13  C   -0.080946
    14  C   -0.117735
    15  C   -0.051976
    16  C    0.007543
    17  C   -0.236603
    18  C    0.052790
    19  C   -0.011545
    20  C   -0.148818
    21  C    0.113813
    22  C    0.173425
    23  C   -0.036956
    24  C   -0.015443
    25  C    0.131861
    26  C   -0.127867
    27  C    0.048950
    28  C    0.177138
    29  C    0.082448
    30  C    0.073732
    31  C    0.053884
    32  C    0.065750
    33  C    0.027363
    34  C    0.204915
    35  C    0.029713
    36  C   -0.117243
    37  C    0.160360
    38  C    0.049974
    39  C   -0.195352
    40  C    0.163607
    41  C   -0.024403
    42  C    0.136533
    43  C   -0.057796
    44  H    0.047574
    45  H   -0.019961
    46  H   -0.038010
    47  H    0.091715
    48  H    0.178764
    49  H    0.018134
    50  H   -0.013507
    51  H    0.039788
    52  H    0.024885
    53  H    0.004962
    54  H    0.072107
    55  H    0.020423
    56  H    0.013944
    57  H   -0.024555
    58  H    0.016221
    59  H    0.045657
    60  H    0.176184
    61  H   -0.019583
    62  H    0.030096
    63  H   -0.052532
    64  H    0.056639
    65  H    0.036240
    66  H    0.045233
    67  H    0.044199
    68  H    0.059119
    69  H   -0.133122
    70  H    0.031741
    71  H    0.042139
    72  H    0.245899
    73  H    0.035154
    74  H   -0.007693
    75  H    0.031556
    76  H    0.038986
    77  H    0.204604
    78  H    0.049428
    79  H    0.016890
 Sum of Mulliken charges =  -0.00000

 Dipole moment (field-independent basis, Debye):
    X=              3.1138    Y=              4.0218    Z=             -2.9037  Tot=              5.8569
 Quadrupole moment (field-independent basis, Debye-Ang):
   XX=           -230.7631   YY=           -235.4189   ZZ=           -277.2992
   XY=              6.6690   XZ=            -23.4259   YZ=            -18.0232

 Normal termination of Gaussian 16 at Sat Jul 27 00:11:34 2019.
