 Gaussian 16, Revision A.03,
 Gaussian 16:  ES64L-G16RevA.03 25-Dec-2016

 --------------------------
 # td=(NStates=1) B3LYP/SVP
 --------------------------

 --
 TD
 --
 Symbolic Z-matrix:
 Charge =  0 Multiplicity = 1

                         Standard orientation:
 ---------------------------------------------------------------------
 Center     Atomic      Atomic             Coordinates (Angstroms)
 Number     Number       Type             X           Y           Z
 ---------------------------------------------------------------------
      1          8           0       -3.297036   -1.438629   -2.893193
      2          8           0        3.035855    3.299420    3.011791
      3          8           0        3.608528    1.562769    4.322657
      4          8           0        7.793950   -1.593670   -0.734878
      5          8           0        6.658903   -3.218341   -1.779344
      6          8           0       -2.693634    1.785824    1.306558
      7          7           0       -0.322538   -2.318409    1.081232
      8          7           0       -2.782816   -1.138930   -0.637595
      9          7           0        1.107458   -0.095584   -0.734365
     10          7           0       -0.907331    1.481216   -0.286731
     11          6           0       -3.437762   -1.252994    0.600546
     12          6           0       -2.754792   -2.197072    1.474283
     13          6           0       -1.363524   -1.894433    1.941221
     14          6           0       -0.638425   -1.168402    2.918445
     15          6           0        0.635328   -0.940504    2.508907
     16          6           0        0.910665   -1.769446    1.395117
     17          6           0       -4.820623   -1.771489    0.320933
     18          6           0        1.723629   -0.204857    3.178827
     19          6           0       -4.832608   -2.018502   -1.065953
     20          6           0        2.011341   -2.008783    0.464137
     21          6           0        2.076517   -0.982593   -0.548283
     22          6           0       -3.538108   -1.531195   -1.674941
     23          6           0        3.006814   -0.872152   -1.699432
     24          6           0       -1.339409   -0.496496    4.052231
     25          6           0       -5.861001   -1.994622    1.343080
     26          6           0        2.539837    0.235644   -2.526228
     27          6           0        1.798931    1.316179    2.731656
     28          6           0        1.356877    0.746833   -1.720243
     29          6           0        4.221517   -1.747995   -1.925308
     30          6           0       -5.880754   -2.533906   -1.997798
     31          6           0        5.461039   -1.255577   -1.083110
     32          6           0        3.202809    0.815878   -3.661975
     33          6           0        0.590454    1.791486   -2.129074
     34          6           0        2.926085    2.073083    3.452296
     35          6           0       -0.477100    2.177009   -1.302598
     36          6           0       -6.889642   -3.355415   -1.553434
     37          6           0        6.692063   -2.129239   -1.197498
     38          6           0       -1.256520    3.463757   -1.475425
     39          6           0       -2.209631    3.457030   -0.397771
     40          6           0       -2.055905    2.119981    0.290225
     41          6           0       -1.085882    4.549054   -2.404147
     42          6           0       -3.285297    4.377766    0.022867
     43          6           0       -1.389142    5.883787   -2.446681
     44          1           0       -3.406688   -0.213766    1.179707
     45          1           0       -2.959329   -3.223272    1.165308
     46          1           0       -3.386041   -2.090322    2.508671
     47          1           0       -0.512393   -2.896066    0.325344
     48          1           0       -2.081043   -0.334992   -0.532838
     49          1           0        1.666133   -0.326288    4.319750
     50          1           0        2.833227   -0.474722    3.080240
     51          1           0        3.052113   -2.725516    0.605593
     52          1           0       -1.964279   -1.215227    4.625267
     53          1           0       -0.609204   -0.299786    4.917364
     54          1           0       -2.248750    0.452953    3.846241
     55          1           0       -5.760296   -1.070885    2.225296
     56          1           0       -5.632102   -2.994038    1.734345
     57          1           0       -6.741696   -1.830301    0.882083
     58          1           0        2.084982    1.256123    1.718926
     59          1           0        0.963924    2.045991    2.662784
     60          1           0        0.178132    0.166377   -0.138152
     61          1           0        4.498921   -1.796597   -2.926142
     62          1           0        3.844621   -2.885708   -1.606997
     63          1           0       -5.874782   -2.194422   -3.063993
     64          1           0        5.070551   -1.078886   -0.117414
     65          1           0        5.782995   -0.280983   -1.492617
     66          1           0        4.211224    0.150802   -3.902598
     67          1           0        3.510145    2.043413   -3.576780
     68          1           0        2.486908    0.999652   -4.511131
     69          1           0        0.771992    2.163749   -3.123384
     70          1           0       -6.900242   -3.730019   -0.504256
     71          1           0       -7.562471   -3.685057   -2.241536
     72          1           0        3.645434    3.695245    3.573194
     73          1           0       -0.495769    4.114416   -3.396405
     74          1           0       -4.013494    4.279842   -0.968579
     75          1           0       -3.814364    4.049051    0.859233
     76          1           0       -2.718451    5.264943    0.518204
     77          1           0        8.477050   -2.285468   -0.650703
     78          1           0       -0.953763    6.400262   -3.242480
     79          1           0       -2.185835    6.581587   -1.887303
 ---------------------------------------------------------------------

 SCF Done:  E(RB3LYP) =  -1947.80551307     A.U. after   19 cycles

 Excitation energies and oscillator strengths:

 Excited State   1:      Singlet-A      1.1958 eV 1036.86 nm  f=0.0003  <S**2>=0.000
     155 ->156         0.70239
 This state for optimization and/or second-order correction.
 Total Energy, E(TD-HF/TD-DFT) =  -1947.76156949
 Copying the excited state density for this state as the 1-particle RhoCI density.

 The electronic state is 1-A.
 Alpha  occ. eigenvalues --  -19.20307 -19.18987 -19.13685 -19.12908 -19.12004
 Alpha  occ. eigenvalues --  -19.07537 -14.37441 -14.36176 -14.33220 -14.32327
 Alpha  occ. eigenvalues --  -10.33229 -10.31463 -10.29658 -10.26483 -10.26029
 Alpha  occ. eigenvalues --  -10.25936 -10.25786 -10.24035 -10.23991 -10.23097
 Alpha  occ. eigenvalues --  -10.22997 -10.22942 -10.22319 -10.22239 -10.21986
 Alpha  occ. eigenvalues --  -10.21915 -10.21619 -10.21384 -10.21291 -10.21154
 Alpha  occ. eigenvalues --  -10.20863 -10.20669 -10.20409 -10.20367 -10.20333
 Alpha  occ. eigenvalues --  -10.19566 -10.19533 -10.19313 -10.19221 -10.19143
 Alpha  occ. eigenvalues --  -10.18005 -10.17389 -10.17326  -1.12218  -1.12004
 Alpha  occ. eigenvalues --   -1.02958  -1.01156  -1.00750  -1.00630  -0.99494
 Alpha  occ. eigenvalues --   -0.96310  -0.94693  -0.93113  -0.82823  -0.82552
 Alpha  occ. eigenvalues --   -0.81071  -0.80441  -0.80405  -0.78812  -0.78505
 Alpha  occ. eigenvalues --   -0.76888  -0.76274  -0.75683  -0.74363  -0.72874
 Alpha  occ. eigenvalues --   -0.70986  -0.70296  -0.69916  -0.68826  -0.67640
 Alpha  occ. eigenvalues --   -0.67074  -0.65946  -0.63326  -0.62377  -0.61522
 Alpha  occ. eigenvalues --   -0.60746  -0.60040  -0.59612  -0.57017  -0.56295
 Alpha  occ. eigenvalues --   -0.55830  -0.55053  -0.54299  -0.52958  -0.52865
 Alpha  occ. eigenvalues --   -0.52005  -0.51534  -0.51091  -0.50259  -0.49717
 Alpha  occ. eigenvalues --   -0.48984  -0.48819  -0.48613  -0.48401  -0.47854
 Alpha  occ. eigenvalues --   -0.47813  -0.47237  -0.46909  -0.46439  -0.46107
 Alpha  occ. eigenvalues --   -0.45787  -0.45371  -0.44945  -0.44533  -0.44256
 Alpha  occ. eigenvalues --   -0.44068  -0.43795  -0.43039  -0.42735  -0.42434
 Alpha  occ. eigenvalues --   -0.42127  -0.41711  -0.41161  -0.40816  -0.40467
 Alpha  occ. eigenvalues --   -0.40374  -0.40031  -0.39984  -0.39712  -0.39433
 Alpha  occ. eigenvalues --   -0.39212  -0.38932  -0.38063  -0.37784  -0.37756
 Alpha  occ. eigenvalues --   -0.37513  -0.37043  -0.36757  -0.36503  -0.36291
 Alpha  occ. eigenvalues --   -0.36164  -0.35102  -0.34906  -0.34602  -0.34004
 Alpha  occ. eigenvalues --   -0.33539  -0.33117  -0.32863  -0.32688  -0.31838
 Alpha  occ. eigenvalues --   -0.31144  -0.30337  -0.29297  -0.29069  -0.28533
 Alpha  occ. eigenvalues --   -0.27652  -0.26491  -0.25853  -0.24428  -0.23519
 Alpha  occ. eigenvalues --   -0.23371  -0.23092  -0.22342  -0.22181  -0.19744
 Alpha virt. eigenvalues --   -0.12801  -0.08339  -0.04190  -0.02681  -0.00995
 Alpha virt. eigenvalues --    0.00330   0.01224   0.01444   0.01944   0.02614
 Alpha virt. eigenvalues --    0.03189   0.03588   0.04013   0.04365   0.04851

 Mulliken charges:
               1
     1  O   -0.268043
     2  O   -0.099724
     3  O   -0.245083
     4  O   -0.142783
     5  O   -0.251382
     6  O   -0.220158
     7  N   -0.070818
     8  N   -0.167640
     9  N   -0.064192
    10  N   -0.343977
    11  C   -0.003708
    12  C    0.115966
    13  C   -0.031541
    14  C   -0.087644
    15  C   -0.033751
    16  C    0.011176
    17  C   -0.166541
    18  C    0.030679
    19  C   -0.089436
    20  C   -0.124445
    21  C    0.062504
    22  C    0.145854
    23  C   -0.111906
    24  C    0.004640
    25  C    0.101704
    26  C   -0.064609
    27  C    0.003464
    28  C    0.091753
    29  C    0.056413
    30  C   -0.036235
    31  C    0.021989
    32  C   -0.036703
    33  C   -0.124848
    34  C    0.094001
    35  C    0.162684
    36  C   -0.000195
    37  C    0.134638
    38  C    0.035761
    39  C   -0.237552
    40  C    0.217705
    41  C   -0.062999
    42  C    0.098036
    43  C   -0.054337
    44  H    0.072517
    45  H   -0.012808
    46  H    0.008300
    47  H    0.083713
    48  H    0.160874
    49  H    0.023653
    50  H    0.010406
    51  H    0.067356
    52  H   -0.003019
    53  H    0.003366
    54  H    0.060876
    55  H    0.044768
    56  H    0.052164
    57  H    0.011373
    58  H    0.003759
    59  H    0.037648
    60  H    0.254321
    61  H   -0.004884
    62  H    0.057803
    63  H    0.028634
    64  H    0.028304
    65  H    0.033290
    66  H    0.064246
    67  H    0.051248
    68  H    0.043590
    69  H   -0.017930
    70  H    0.019767
    71  H   -0.004768
    72  H    0.143779
    73  H    0.028162
    74  H    0.080898
    75  H   -0.000404
    76  H    0.050525
    77  H    0.194393
    78  H    0.014926
    79  H    0.060438
 Sum of Mulliken charges =  -0.00000

 Dipole moment (field-independent basis, Debye):
    X=              3.2016    Y=              3.6759    Z=             -0.2905  Tot=              4.8833
 Quadrupole moment (field-independent basis, Debye-Ang):
   XX=           -229.8896   YY=           -238.8054   ZZ=           -269.5672
   XY=              3.9950   XZ=            -17.5072   YZ=            -14.9478

 Normal termination of Gaussian 16 at Mon Jul 29 03:51:14 2019.
