 Gaussian 16, Revision A.03,
 Gaussian 16:  ES64L-G16RevA.03 25-Dec-2016

 --------------------------
 # td=(NStates=1) B3LYP/SVP
 --------------------------

 --
 TD
 --
 Symbolic Z-matrix:
 Charge =  0 Multiplicity = 1

                         Standard orientation:
 ---------------------------------------------------------------------
 Center     Atomic      Atomic             Coordinates (Angstroms)
 Number     Number       Type             X           Y           Z
 ---------------------------------------------------------------------
      1          8           0        5.009288   -0.204012   -3.335782
      2          8           0       -3.041219   -2.979010    3.196311
      3          8           0       -3.274690   -0.805600    3.075130
      4          8           0       -1.580516    7.324719    1.481827
      5          8           0       -0.753203    7.134181   -0.561435
      6          8           0       -1.651820   -3.917704    0.042415
      7          7           0        2.329260    0.910096    0.687206
      8          7           0        4.301817   -0.667801   -1.220342
      9          7           0       -1.791400    0.710641   -0.404436
     10          7           0       -2.502874   -1.906545   -0.564823
     11          6           0        4.686501   -1.241062    0.089882
     12          6           0        4.492300   -0.254687    1.255852
     13          6           0        2.924259   -0.075558    1.498298
     14          6           0        1.892207   -0.678482    2.228507
     15          6           0        0.663077   -0.071389    1.865838
     16          6           0        0.963503    0.950755    0.938814
     17          6           0        6.212028   -1.286221   -0.165334
     18          6           0       -0.637538   -0.239938    2.483336
     19          6           0        6.565931   -0.831061   -1.368567
     20          6           0        0.137400    2.046283    0.323935
     21          6           0       -1.067244    1.834397   -0.265485
     22          6           0        5.344915   -0.578536   -2.180542
     23          6           0       -1.943433    2.938014   -0.912479
     24          6           0        2.188325   -1.766540    3.201376
     25          6           0        6.983861   -1.887312    0.932714
     26          6           0       -3.013438    2.320325   -1.391940
     27          6           0       -1.145207   -1.761114    2.562762
     28          6           0       -3.013400    0.916703   -1.071997
     29          6           0       -1.438980    4.363756   -0.844166
     30          6           0        7.801494   -0.775032   -2.129073
     31          6           0       -1.767927    5.156521    0.474237
     32          6           0       -4.162372    3.041642   -2.071342
     33          6           0       -3.895767   -0.078853   -1.435918
     34          6           0       -2.581580   -1.742546    3.028756
     35          6           0       -3.624291   -1.485348   -1.187289
     36          6           0        9.096043   -0.702723   -1.685538
     37          6           0       -1.313651    6.627172    0.366784
     38          6           0       -4.529858   -2.638347   -1.456479
     39          6           0       -3.826070   -3.772478   -1.073363
     40          6           0       -2.503470   -3.295584   -0.532069
     41          6           0       -5.747160   -2.576665   -2.198294
     42          6           0       -4.266689   -5.218795   -1.037329
     43          6           0       -6.599203   -3.542372   -2.498430
     44          1           0        4.378776   -2.241457    0.229465
     45          1           0        4.832896    0.898593    0.947858
     46          1           0        4.885826   -0.627069    2.346616
     47          1           0        2.754365    1.520403   -0.253350
     48          1           0        3.325192   -0.770336   -1.568883
     49          1           0       -0.560187    0.321885    3.434769
     50          1           0       -1.558618    0.459518    2.121856
     51          1           0        0.695342    2.877067    0.122534
     52          1           0        3.432325   -1.577733    3.659923
     53          1           0        1.628163   -1.660825    4.005169
     54          1           0        2.168696   -2.858667    2.850662
     55          1           0        6.700460   -2.501680    1.663624
     56          1           0        7.326380   -1.086879    1.592971
     57          1           0        8.028768   -2.357118    0.543248
     58          1           0       -1.024398   -2.432477    1.626745
     59          1           0       -0.611487   -2.268134    3.331795
     60          1           0       -1.563361   -0.161498   -0.105573
     61          1           0       -1.854940    4.850407   -1.720930
     62          1           0       -0.436482    4.430772   -1.029234
     63          1           0        7.682128   -0.961096   -3.315759
     64          1           0       -1.301585    4.740649    1.465921
     65          1           0       -2.822317    5.361960    0.711182
     66          1           0       -3.809994    4.065279   -2.198107
     67          1           0       -5.191534    2.859935   -1.696460
     68          1           0       -4.424710    2.798680   -3.058447
     69          1           0       -4.752058    0.311622   -1.993053
     70          1           0        9.212898   -0.559297   -0.535518
     71          1           0        9.947314   -0.781832   -2.289184
     72          1           0       -3.942636   -2.780436    3.128156
     73          1           0       -6.001954   -1.473540   -2.289387
     74          1           0       -5.194224   -5.250793   -0.576478
     75          1           0       -4.430655   -5.807020   -2.004050
     76          1           0       -3.534318   -5.754966   -0.473944
     77          1           0       -1.290796    8.285103    1.321292
     78          1           0       -7.541322   -3.235165   -2.876317
     79          1           0       -6.419698   -4.548746   -2.262814
 ---------------------------------------------------------------------

 SCF Done:  E(RB3LYP) =  -1947.86711655     A.U. after   16 cycles

 Excitation energies and oscillator strengths:

 Excited State   1:      Singlet-A      1.9124 eV  648.33 nm  f=0.3247  <S**2>=0.000
     155 ->156         0.70106
 This state for optimization and/or second-order correction.
 Total Energy, E(TD-HF/TD-DFT) =  -1947.79683806
 Copying the excited state density for this state as the 1-particle RhoCI density.

 The electronic state is 1-A.
 Alpha  occ. eigenvalues --  -19.18923 -19.16297 -19.13081 -19.11485 -19.11154
 Alpha  occ. eigenvalues --  -19.10296 -14.38151 -14.36198 -14.34576 -14.28872
 Alpha  occ. eigenvalues --  -10.32465 -10.29804 -10.28975 -10.26664 -10.25083
 Alpha  occ. eigenvalues --  -10.24881 -10.24629 -10.24366 -10.23971 -10.22876
 Alpha  occ. eigenvalues --  -10.22807 -10.22626 -10.21853 -10.21451 -10.21330
 Alpha  occ. eigenvalues --  -10.21116 -10.21061 -10.20900 -10.20731 -10.20669
 Alpha  occ. eigenvalues --  -10.20365 -10.20208 -10.20193 -10.20137 -10.20106
 Alpha  occ. eigenvalues --  -10.20028 -10.19844 -10.19136 -10.18816 -10.18777
 Alpha  occ. eigenvalues --  -10.18653 -10.18558 -10.18294  -1.11256  -1.10506
 Alpha  occ. eigenvalues --   -1.03037  -1.01411  -1.01096  -1.00510  -0.98647
 Alpha  occ. eigenvalues --   -0.95745  -0.92449  -0.91915  -0.83085  -0.82055
 Alpha  occ. eigenvalues --   -0.81454  -0.80801  -0.80082  -0.78960  -0.77909
 Alpha  occ. eigenvalues --   -0.77092  -0.75664  -0.74945  -0.74472  -0.72467
 Alpha  occ. eigenvalues --   -0.71983  -0.71177  -0.70473  -0.69843  -0.68105
 Alpha  occ. eigenvalues --   -0.66053  -0.66021  -0.63518  -0.61221  -0.60637
 Alpha  occ. eigenvalues --   -0.60332  -0.59382  -0.58759  -0.58195  -0.57488
 Alpha  occ. eigenvalues --   -0.55851  -0.54896  -0.54407  -0.53520  -0.52659
 Alpha  occ. eigenvalues --   -0.52117  -0.51126  -0.50773  -0.49882  -0.49274
 Alpha  occ. eigenvalues --   -0.48673  -0.48509  -0.48272  -0.48203  -0.47716
 Alpha  occ. eigenvalues --   -0.47533  -0.47208  -0.47028  -0.46544  -0.45599
 Alpha  occ. eigenvalues --   -0.45114  -0.44778  -0.44478  -0.44341  -0.43957
 Alpha  occ. eigenvalues --   -0.43507  -0.43346  -0.42992  -0.42671  -0.42474
 Alpha  occ. eigenvalues --   -0.42110  -0.41690  -0.41579  -0.41302  -0.41252
 Alpha  occ. eigenvalues --   -0.41020  -0.40815  -0.40414  -0.39958  -0.39826
 Alpha  occ. eigenvalues --   -0.39603  -0.39452  -0.39212  -0.38919  -0.38435
 Alpha  occ. eigenvalues --   -0.38053  -0.37802  -0.37413  -0.37117  -0.37045
 Alpha  occ. eigenvalues --   -0.35986  -0.35603  -0.35261  -0.34942  -0.34797
 Alpha  occ. eigenvalues --   -0.34397  -0.33354  -0.33075  -0.31924  -0.31614
 Alpha  occ. eigenvalues --   -0.31329  -0.30977  -0.28847  -0.28682  -0.27451
 Alpha  occ. eigenvalues --   -0.27315  -0.26602  -0.26043  -0.25469  -0.24571
 Alpha  occ. eigenvalues --   -0.24352  -0.23801  -0.23526  -0.22166  -0.18944
 Alpha virt. eigenvalues --   -0.11253  -0.06288  -0.06000  -0.00484   0.00068
 Alpha virt. eigenvalues --    0.00536   0.00990   0.01717   0.02195   0.02730
 Alpha virt. eigenvalues --    0.03344   0.04326   0.04738   0.05419   0.05886

 Mulliken charges:
               1
     1  O   -0.257416
     2  O   -0.134061
     3  O   -0.198448
     4  O   -0.205711
     5  O   -0.217740
     6  O   -0.175801
     7  N   -0.194422
     8  N   -0.252343
     9  N   -0.001135
    10  N   -0.269252
    11  C    0.185068
    12  C    0.061643
    13  C   -0.038947
    14  C   -0.127727
    15  C   -0.013526
    16  C    0.010358
    17  C   -0.185302
    18  C   -0.055588
    19  C    0.001375
    20  C   -0.054102
    21  C    0.106980
    22  C    0.177479
    23  C   -0.095025
    24  C    0.062801
    25  C    0.098105
    26  C   -0.117781
    27  C    0.000033
    28  C    0.097800
    29  C    0.185309
    30  C   -0.069391
    31  C   -0.022917
    32  C    0.131013
    33  C   -0.086519
    34  C    0.091400
    35  C    0.103662
    36  C   -0.028266
    37  C    0.106846
    38  C    0.022328
    39  C   -0.223159
    40  C    0.148618
    41  C   -0.029934
    42  C    0.117397
    43  C    0.031353
    44  H    0.018252
    45  H    0.043545
    46  H    0.045807
    47  H    0.194232
    48  H    0.134393
    49  H    0.011023
    50  H    0.043034
    51  H   -0.050494
    52  H    0.002536
    53  H   -0.011921
    54  H    0.050447
    55  H   -0.019868
    56  H    0.024594
    57  H    0.041641
    58  H    0.101313
    59  H    0.000762
    60  H    0.095353
    61  H    0.003304
    62  H   -0.015324
    63  H    0.053267
    64  H    0.068369
    65  H    0.039881
    66  H    0.003223
    67  H    0.021910
    68  H   -0.009065
    69  H   -0.025139
    70  H    0.028952
    71  H    0.017614
    72  H    0.134186
    73  H   -0.003702
    74  H    0.009368
    75  H    0.037904
    76  H    0.014214
    77  H    0.204216
    78  H    0.013657
    79  H   -0.006539
 Sum of Mulliken charges =  -0.00000

 Dipole moment (field-independent basis, Debye):
    X=             -0.3845    Y=              1.9115    Z=              2.6353  Tot=              3.2782
 Quadrupole moment (field-independent basis, Debye-Ang):
   XX=           -214.8190   YY=           -239.4158   ZZ=           -266.9103
   XY=             -9.9558   XZ=             32.5479   YZ=              5.3008

 Normal termination of Gaussian 16 at Thu Oct  3 22:57:50 2019.
