 Gaussian 16, Revision A.03,
 Gaussian 16:  ES64L-G16RevA.03 25-Dec-2016

 --------------------------
 # td=(NStates=1) B3LYP/SVP
 --------------------------

 --
 TD
 --
 Symbolic Z-matrix:
 Charge =  0 Multiplicity = 1

                         Standard orientation:
 ---------------------------------------------------------------------
 Center     Atomic      Atomic             Coordinates (Angstroms)
 Number     Number       Type             X           Y           Z
 ---------------------------------------------------------------------
      1          8           0        5.421583   -0.094739   -3.212213
      2          8           0       -3.315083   -2.863152    3.168879
      3          8           0       -3.385303   -0.661514    3.212144
      4          8           0       -1.357204    7.350734    1.451063
      5          8           0       -0.305705    6.948360   -0.514121
      6          8           0       -1.782344   -3.913833   -0.006128
      7          7           0        2.325364    0.778090    0.584296
      8          7           0        4.347241   -0.623626   -1.229131
      9          7           0       -1.934959    0.763959   -0.268238
     10          7           0       -2.529718   -1.813744   -0.510134
     11          6           0        4.826173   -1.316011   -0.055183
     12          6           0        4.313207   -0.476127    1.221081
     13          6           0        2.815026   -0.267923    1.312519
     14          6           0        1.843210   -0.879690    2.021888
     15          6           0        0.626786   -0.141037    1.777643
     16          6           0        0.887753    0.864196    0.874368
     17          6           0        6.237962   -1.376299   -0.133265
     18          6           0       -0.643075   -0.280586    2.568551
     19          6           0        6.695561   -0.851613   -1.304066
     20          6           0        0.170552    1.948603    0.272202
     21          6           0       -1.103680    1.837970   -0.283784
     22          6           0        5.339271   -0.548367   -2.119822
     23          6           0       -1.881351    2.923410   -0.761481
     24          6           0        2.043980   -2.026881    3.051125
     25          6           0        7.101598   -2.003021    0.983493
     26          6           0       -3.084543    2.403359   -1.306330
     27          6           0       -1.306888   -1.632172    2.536445
     28          6           0       -2.977483    0.989499   -0.967732
     29          6           0       -1.354509    4.364774   -0.869175
     30          6           0        8.018677   -0.685785   -1.980798
     31          6           0       -1.805754    5.105741    0.482509
     32          6           0       -4.160303    3.083744   -1.985286
     33          6           0       -3.930978   -0.024180   -1.250469
     34          6           0       -2.792214   -1.617795    2.983726
     35          6           0       -3.635745   -1.381018   -1.109967
     36          6           0        9.282047   -0.841726   -1.369554
     37          6           0       -1.088329    6.630984    0.370676
     38          6           0       -4.571953   -2.515421   -1.546671
     39          6           0       -3.971608   -3.627101   -1.137038
     40          6           0       -2.673626   -3.266684   -0.420221
     41          6           0       -5.775904   -2.380994   -2.272177
     42          6           0       -4.348073   -5.082264   -1.316935
     43          6           0       -6.733682   -3.338494   -2.715140
     44          1           0        4.392509   -2.277638    0.175478
     45          1           0        4.880980    0.511022    1.162506
     46          1           0        4.773747   -1.141899    2.120632
     47          1           0        2.837224    1.361497   -0.048442
     48          1           0        3.407087   -0.551142   -1.611821
     49          1           0       -0.391660    0.050820    3.531528
     50          1           0       -1.311165    0.497432    2.264093
     51          1           0        0.649260    2.855764   -0.144202
     52          1           0        3.171977   -2.191503    3.168327
     53          1           0        1.629070   -1.649555    4.025181
     54          1           0        1.472417   -2.968303    2.663903
     55          1           0        6.469002   -2.537802    1.654346
     56          1           0        7.604352   -1.093893    1.714418
     57          1           0        7.914596   -2.597762    0.548012
     58          1           0       -1.441556   -2.188762    1.532001
     59          1           0       -0.904815   -2.359956    3.289535
     60          1           0       -1.539599   -0.208759   -0.081526
     61          1           0       -1.813248    4.762025   -1.838980
     62          1           0       -0.212002    4.324783   -1.176913
     63          1           0        8.173830   -0.005081   -3.043770
     64          1           0       -1.379920    4.709404    1.377940
     65          1           0       -2.989247    5.392359    0.530430
     66          1           0       -3.913436    4.113031   -2.302435
     67          1           0       -5.015465    3.237531   -1.231319
     68          1           0       -4.470396    2.851652   -2.909712
     69          1           0       -4.900709    0.109539   -1.844207
     70          1           0        9.392600   -1.660929   -0.275827
     71          1           0       10.102672   -0.632138   -2.018323
     72          1           0       -4.283106   -2.878885    3.427639
     73          1           0       -6.091724   -1.405124   -2.510681
     74          1           0       -5.342852   -5.300832   -0.765579
     75          1           0       -4.340604   -5.498760   -2.323359
     76          1           0       -3.601817   -5.833248   -0.847011
     77          1           0       -0.650913    8.139274    1.396819
     78          1           0       -7.478753   -2.951327   -3.429104
     79          1           0       -6.634008   -4.388989   -2.320901
 ---------------------------------------------------------------------

 SCF Done:  E(RB3LYP) =  -1947.85578199     A.U. after   16 cycles

 Excitation energies and oscillator strengths:

 Excited State   1:      Singlet-A      2.0940 eV  592.08 nm  f=0.4456  <S**2>=0.000
     155 ->156         0.69168
     155 <-156        -0.10825
 This state for optimization and/or second-order correction.
 Total Energy, E(TD-HF/TD-DFT) =  -1947.77882751
 Copying the excited state density for this state as the 1-particle RhoCI density.

 The electronic state is 1-A.
 Alpha  occ. eigenvalues --  -19.20618 -19.15752 -19.13781 -19.10810 -19.10737
 Alpha  occ. eigenvalues --  -19.09876 -14.37514 -14.36437 -14.36430 -14.28295
 Alpha  occ. eigenvalues --  -10.33198 -10.29568 -10.28097 -10.26413 -10.24830
 Alpha  occ. eigenvalues --  -10.24229 -10.24015 -10.23344 -10.23151 -10.23028
 Alpha  occ. eigenvalues --  -10.22954 -10.22710 -10.22447 -10.22364 -10.22079
 Alpha  occ. eigenvalues --  -10.22050 -10.21791 -10.21430 -10.20994 -10.20914
 Alpha  occ. eigenvalues --  -10.20827 -10.20645 -10.20353 -10.20159 -10.19738
 Alpha  occ. eigenvalues --  -10.19702 -10.19685 -10.19604 -10.19555 -10.18887
 Alpha  occ. eigenvalues --  -10.18807 -10.18490 -10.18367  -1.10550  -1.08723
 Alpha  occ. eigenvalues --   -1.04042  -1.03636  -1.01346  -1.00992  -0.99721
 Alpha  occ. eigenvalues --   -0.97375  -0.95973  -0.90851  -0.82578  -0.82316
 Alpha  occ. eigenvalues --   -0.81929  -0.80922  -0.80238  -0.78533  -0.76457
 Alpha  occ. eigenvalues --   -0.76200  -0.75867  -0.74445  -0.73342  -0.72390
 Alpha  occ. eigenvalues --   -0.71080  -0.70541  -0.69194  -0.68567  -0.67556
 Alpha  occ. eigenvalues --   -0.66968  -0.65824  -0.63088  -0.60825  -0.60325
 Alpha  occ. eigenvalues --   -0.59931  -0.58796  -0.58103  -0.57413  -0.57127
 Alpha  occ. eigenvalues --   -0.56397  -0.55756  -0.54989  -0.54611  -0.53125
 Alpha  occ. eigenvalues --   -0.52145  -0.51180  -0.50176  -0.49704  -0.49430
 Alpha  occ. eigenvalues --   -0.48445  -0.48342  -0.47961  -0.47721  -0.47040
 Alpha  occ. eigenvalues --   -0.46842  -0.46418  -0.46323  -0.46015  -0.45482
 Alpha  occ. eigenvalues --   -0.45270  -0.44182  -0.43726  -0.43549  -0.43431
 Alpha  occ. eigenvalues --   -0.43156  -0.42955  -0.42694  -0.42393  -0.42094
 Alpha  occ. eigenvalues --   -0.41907  -0.41666  -0.41600  -0.41365  -0.41180
 Alpha  occ. eigenvalues --   -0.40689  -0.40544  -0.40302  -0.40131  -0.40007
 Alpha  occ. eigenvalues --   -0.39427  -0.39134  -0.38894  -0.38557  -0.38220
 Alpha  occ. eigenvalues --   -0.38043  -0.37363  -0.37005  -0.36906  -0.36694
 Alpha  occ. eigenvalues --   -0.36513  -0.35747  -0.35234  -0.34841  -0.34348
 Alpha  occ. eigenvalues --   -0.34034  -0.33351  -0.33270  -0.33005  -0.31267
 Alpha  occ. eigenvalues --   -0.31206  -0.31072  -0.28892  -0.28686  -0.27703
 Alpha  occ. eigenvalues --   -0.27402  -0.26120  -0.25648  -0.24963  -0.24517
 Alpha  occ. eigenvalues --   -0.24008  -0.23815  -0.23187  -0.22109  -0.18790
 Alpha virt. eigenvalues --   -0.10476  -0.06690  -0.05804  -0.00698  -0.00535
 Alpha virt. eigenvalues --    0.00622   0.01186   0.01932   0.03025   0.03489
 Alpha virt. eigenvalues --    0.03769   0.04428   0.04535   0.05045   0.05466

 Mulliken charges:
               1
     1  O   -0.188918
     2  O   -0.235760
     3  O   -0.162684
     4  O   -0.193681
     5  O   -0.242983
     6  O   -0.154023
     7  N   -0.128286
     8  N   -0.155002
     9  N    0.016302
    10  N   -0.330219
    11  C    0.145960
    12  C    0.046789
    13  C   -0.007019
    14  C   -0.148627
    15  C   -0.114947
    16  C    0.098363
    17  C   -0.154159
    18  C    0.179360
    19  C   -0.064503
    20  C   -0.064802
    21  C    0.019857
    22  C    0.091763
    23  C   -0.102851
    24  C    0.059839
    25  C    0.054398
    26  C   -0.104002
    27  C   -0.050925
    28  C    0.085938
    29  C    0.026439
    30  C   -0.078678
    31  C   -0.028839
    32  C    0.134103
    33  C   -0.126460
    34  C    0.079485
    35  C    0.050691
    36  C   -0.082373
    37  C    0.136334
    38  C    0.127058
    39  C   -0.200635
    40  C    0.154655
    41  C   -0.086402
    42  C    0.029776
    43  C   -0.024065
    44  H    0.007138
    45  H    0.009530
    46  H    0.023308
    47  H    0.109606
    48  H    0.133230
    49  H   -0.011503
    50  H   -0.012337
    51  H   -0.016019
    52  H    0.009713
    53  H    0.032557
    54  H    0.069557
    55  H    0.006405
    56  H    0.057552
    57  H    0.049235
    58  H    0.099028
    59  H    0.025856
    60  H    0.183150
    61  H    0.030501
    62  H    0.056190
    63  H    0.069865
    64  H    0.051403
    65  H    0.078995
    66  H   -0.015413
    67  H    0.042172
    68  H   -0.006795
    69  H   -0.013779
    70  H    0.049802
    71  H    0.030361
    72  H    0.192938
    73  H   -0.033767
    74  H    0.043104
    75  H    0.033560
    76  H    0.025686
    77  H    0.217159
    78  H    0.035263
    79  H    0.030484
 Sum of Mulliken charges =  -0.00000

 Dipole moment (field-independent basis, Debye):
    X=             -0.7391    Y=              2.6357    Z=              2.6240  Tot=              3.7919
 Quadrupole moment (field-independent basis, Debye-Ang):
   XX=           -233.8262   YY=           -238.4043   ZZ=           -260.3761
   XY=             -7.8423   XZ=             30.1733   YZ=              2.7782

 Normal termination of Gaussian 16 at Sun Sep 15 21:28:55 2019.
