 Gaussian 16, Revision A.03,
 Gaussian 16:  ES64L-G16RevA.03 25-Dec-2016

 --------------------------
 # td=(NStates=1) B3LYP/SVP
 --------------------------

 --
 TD
 --
 Symbolic Z-matrix:
 Charge =  0 Multiplicity = 1

                         Standard orientation:
 ---------------------------------------------------------------------
 Center     Atomic      Atomic             Coordinates (Angstroms)
 Number     Number       Type             X           Y           Z
 ---------------------------------------------------------------------
      1          8           0        5.457411    0.063868   -3.238146
      2          8           0       -2.974973   -2.958427    3.369840
      3          8           0       -3.314470   -0.755070    3.211509
      4          8           0       -1.795537    7.321436    1.341379
      5          8           0       -0.758120    7.034472   -0.560830
      6          8           0       -1.702906   -4.036609   -0.146414
      7          7           0        2.348332    0.855415    0.545235
      8          7           0        4.418326   -0.581318   -1.259950
      9          7           0       -1.900077    0.627410   -0.285129
     10          7           0       -2.620196   -1.958365   -0.567638
     11          6           0        4.851946   -1.180778   -0.001554
     12          6           0        4.309003   -0.310036    1.220417
     13          6           0        2.919902   -0.137770    1.275518
     14          6           0        1.933883   -0.696370    2.054415
     15          6           0        0.755904   -0.041003    1.818467
     16          6           0        0.987608    0.948536    0.836640
     17          6           0        6.315832   -1.288245   -0.177657
     18          6           0       -0.644658   -0.235235    2.541437
     19          6           0        6.708811   -0.829719   -1.424858
     20          6           0        0.199431    1.901775    0.209614
     21          6           0       -1.106510    1.848927   -0.288914
     22          6           0        5.514669   -0.366326   -2.105926
     23          6           0       -1.913782    2.891651   -0.821967
     24          6           0        2.103853   -1.776308    3.191681
     25          6           0        7.141141   -1.949326    0.884119
     26          6           0       -3.121173    2.348345   -1.190785
     27          6           0       -1.150887   -1.675002    2.554409
     28          6           0       -3.028486    0.854859   -0.912024
     29          6           0       -1.567061    4.361682   -0.879989
     30          6           0        8.078956   -0.615987   -2.003463
     31          6           0       -1.739247    5.137445    0.448896
     32          6           0       -4.277953    3.021323   -1.769689
     33          6           0       -3.862984   -0.110824   -1.395384
     34          6           0       -2.576963   -1.652952    3.011853
     35          6           0       -3.724892   -1.473409   -1.086338
     36          6           0        9.153359   -0.736758   -1.331846
     37          6           0       -1.382801    6.607176    0.302214
     38          6           0       -4.616594   -2.620772   -1.474963
     39          6           0       -3.853669   -3.819313   -1.086438
     40          6           0       -2.723530   -3.384955   -0.470332
     41          6           0       -5.808938   -2.487900   -2.299920
     42          6           0       -4.299420   -5.285898   -1.148266
     43          6           0       -6.734664   -3.424448   -2.689759
     44          1           0        4.495076   -2.209474    0.178203
     45          1           0        5.087265    0.566446    1.242551
     46          1           0        4.725504   -0.708502    2.149645
     47          1           0        2.851441    1.363924   -0.204212
     48          1           0        3.341889   -0.590555   -1.381018
     49          1           0       -0.428691    0.078313    3.496557
     50          1           0       -1.189852    0.644199    2.016254
     51          1           0        0.772637    2.768089   -0.090576
     52          1           0        3.130074   -2.262664    3.056963
     53          1           0        1.761914   -1.319467    4.434725
     54          1           0        1.360081   -2.588088    3.113933
     55          1           0        6.665840   -2.502238    1.623805
     56          1           0        7.666856   -1.111703    1.398293
     57          1           0        7.772717   -2.771276    0.461958
     58          1           0       -0.847827   -2.196633    1.505463
     59          1           0       -0.523340   -2.267280    3.395890
     60          1           0       -1.406319   -0.295028   -0.039078
     61          1           0       -2.157615    4.829350   -1.842686
     62          1           0       -0.599576    4.452187   -1.369416
     63          1           0        7.909081   -0.451668   -3.169167
     64          1           0       -1.275419    4.745459    1.297213
     65          1           0       -2.845196    5.119090    0.700930
     66          1           0       -4.019822    4.055271   -1.744845
     67          1           0       -5.229446    3.057564   -1.107741
     68          1           0       -4.440417    2.558802   -2.703672
     69          1           0       -4.686092    0.308802   -2.121841
     70          1           0        9.322506   -1.061246   -0.298428
     71          1           0       10.079415   -0.774585   -1.995978
     72          1           0       -3.928607   -2.703643    3.344259
     73          1           0       -6.062622   -1.278837   -2.753293
     74          1           0       -5.269630   -5.486988   -0.643306
     75          1           0       -4.716837   -5.410365   -2.234492
     76          1           0       -3.498991   -5.907212   -0.999352
     77          1           0       -1.532116    8.241260    1.348288
     78          1           0       -7.693958   -3.210324   -3.239956
     79          1           0       -6.646362   -4.574634   -2.409843
 ---------------------------------------------------------------------

 SCF Done:  E(RB3LYP) =  -1947.84959200     A.U. after   19 cycles

 Excitation energies and oscillator strengths:

 Excited State   1:      Singlet-A      1.7633 eV  703.13 nm  f=0.3041  <S**2>=0.000
     154 ->156         0.18262
     155 ->156         0.68052
     155 <-156        -0.10745
 This state for optimization and/or second-order correction.
 Total Energy, E(TD-HF/TD-DFT) =  -1947.78479134
 Copying the excited state density for this state as the 1-particle RhoCI density.

 The electronic state is 1-A.
 Alpha  occ. eigenvalues --  -19.18386 -19.15440 -19.13104 -19.12939 -19.10090
 Alpha  occ. eigenvalues --  -19.09564 -14.38814 -14.37232 -14.35503 -14.28035
 Alpha  occ. eigenvalues --  -10.32127 -10.30993 -10.28289 -10.25328 -10.24581
 Alpha  occ. eigenvalues --  -10.24539 -10.24428 -10.22958 -10.22920 -10.22906
 Alpha  occ. eigenvalues --  -10.22727 -10.22637 -10.22276 -10.22206 -10.21984
 Alpha  occ. eigenvalues --  -10.21838 -10.21666 -10.21615 -10.21552 -10.21225
 Alpha  occ. eigenvalues --  -10.21148 -10.21088 -10.20847 -10.20437 -10.20170
 Alpha  occ. eigenvalues --  -10.20048 -10.20025 -10.19472 -10.19377 -10.19252
 Alpha  occ. eigenvalues --  -10.19216 -10.19210 -10.19164  -1.12335  -1.08925
 Alpha  occ. eigenvalues --   -1.03514  -1.02301  -0.99755  -0.99647  -0.99298
 Alpha  occ. eigenvalues --   -0.98212  -0.93656  -0.91345  -0.83374  -0.82438
 Alpha  occ. eigenvalues --   -0.81953  -0.81406  -0.79922  -0.79040  -0.78319
 Alpha  occ. eigenvalues --   -0.77620  -0.76685  -0.76295  -0.74675  -0.73036
 Alpha  occ. eigenvalues --   -0.72435  -0.70562  -0.69070  -0.68928  -0.68532
 Alpha  occ. eigenvalues --   -0.67040  -0.66693  -0.64785  -0.62446  -0.60921
 Alpha  occ. eigenvalues --   -0.60761  -0.58639  -0.57615  -0.57442  -0.56726
 Alpha  occ. eigenvalues --   -0.56076  -0.55297  -0.54472  -0.53793  -0.53211
 Alpha  occ. eigenvalues --   -0.52278  -0.51669  -0.51060  -0.50303  -0.50158
 Alpha  occ. eigenvalues --   -0.49149  -0.48784  -0.48661  -0.48063  -0.47827
 Alpha  occ. eigenvalues --   -0.47651  -0.47532  -0.46919  -0.46469  -0.45837
 Alpha  occ. eigenvalues --   -0.45493  -0.45171  -0.44962  -0.44302  -0.43878
 Alpha  occ. eigenvalues --   -0.43508  -0.43349  -0.43138  -0.42915  -0.42651
 Alpha  occ. eigenvalues --   -0.42467  -0.42272  -0.41785  -0.41530  -0.41147
 Alpha  occ. eigenvalues --   -0.40978  -0.40621  -0.40545  -0.40084  -0.39802
 Alpha  occ. eigenvalues --   -0.39577  -0.39363  -0.39153  -0.38648  -0.38134
 Alpha  occ. eigenvalues --   -0.37736  -0.37653  -0.37458  -0.36769  -0.36306
 Alpha  occ. eigenvalues --   -0.35910  -0.35666  -0.34559  -0.34481  -0.33882
 Alpha  occ. eigenvalues --   -0.33840  -0.33312  -0.33113  -0.32919  -0.32022
 Alpha  occ. eigenvalues --   -0.31276  -0.30998  -0.29181  -0.28927  -0.28201
 Alpha  occ. eigenvalues --   -0.26750  -0.26321  -0.26000  -0.25823  -0.25335
 Alpha  occ. eigenvalues --   -0.24649  -0.23827  -0.23650  -0.21701  -0.18787
 Alpha virt. eigenvalues --   -0.11457  -0.07484  -0.05767  -0.00982   0.00273
 Alpha virt. eigenvalues --    0.00428   0.01574   0.01704   0.02194   0.02805
 Alpha virt. eigenvalues --    0.03242   0.03852   0.04029   0.04805   0.05025

 Mulliken charges:
               1
     1  O   -0.218303
     2  O   -0.233686
     3  O   -0.190468
     4  O   -0.171511
     5  O   -0.155400
     6  O   -0.238572
     7  N   -0.079385
     8  N   -0.258241
     9  N   -0.094052
    10  N   -0.285996
    11  C    0.091513
    12  C    0.069660
    13  C   -0.008823
    14  C   -0.088141
    15  C   -0.147719
    16  C    0.073760
    17  C   -0.196681
    18  C    0.139334
    19  C   -0.083677
    20  C   -0.117202
    21  C    0.067421
    22  C    0.170160
    23  C   -0.047972
    24  C    0.001963
    25  C    0.097853
    26  C   -0.166591
    27  C   -0.106163
    28  C    0.112636
    29  C    0.042928
    30  C    0.018974
    31  C    0.045870
    32  C    0.126885
    33  C   -0.152556
    34  C    0.174049
    35  C    0.099579
    36  C   -0.041063
    37  C    0.087148
    38  C    0.033873
    39  C   -0.165149
    40  C    0.151996
    41  C   -0.070873
    42  C    0.120672
    43  C   -0.092196
    44  H    0.018402
    45  H    0.010416
    46  H   -0.008784
    47  H    0.127455
    48  H    0.157163
    49  H   -0.020153
    50  H    0.039737
    51  H   -0.019370
    52  H    0.021238
    53  H    0.042621
    54  H    0.041578
    55  H   -0.012106
    56  H    0.047088
    57  H    0.047088
    58  H    0.126971
    59  H    0.062029
    60  H    0.190011
    61  H    0.032755
    62  H    0.011399
    63  H    0.048710
    64  H    0.027236
    65  H    0.034903
    66  H   -0.008039
    67  H    0.039259
    68  H    0.034623
    69  H   -0.000234
    70  H    0.022714
    71  H    0.031896
    72  H    0.162949
    73  H    0.045438
    74  H    0.035354
    75  H    0.019826
    76  H    0.011800
    77  H    0.176737
    78  H    0.044080
    79  H    0.041355
 Sum of Mulliken charges =  -0.00000

 Dipole moment (field-independent basis, Debye):
    X=              0.0911    Y=              3.2034    Z=              2.8894  Tot=              4.3149
 Quadrupole moment (field-independent basis, Debye-Ang):
   XX=           -221.4554   YY=           -240.6780   ZZ=           -267.2411
   XY=            -16.1005   XZ=             37.7035   YZ=              8.6452

 Normal termination of Gaussian 16 at Sun Sep 15 12:30:44 2019.
