 Gaussian 16, Revision A.03,
 Gaussian 16:  ES64L-G16RevA.03 25-Dec-2016

 --------------------------
 # td=(NStates=1) B3LYP/SVP
 --------------------------

 --
 TD
 --
 Symbolic Z-matrix:
 Charge =  0 Multiplicity = 1

                         Standard orientation:
 ---------------------------------------------------------------------
 Center     Atomic      Atomic             Coordinates (Angstroms)
 Number     Number       Type             X           Y           Z
 ---------------------------------------------------------------------
      1          8           0       -3.087912   -1.201582   -2.943036
      2          8           0        3.282293    2.830091    3.088154
      3          8           0        3.800384    0.959302    4.211942
      4          8           0        7.748564   -1.510137   -0.763709
      5          8           0        6.693112   -2.873640   -2.301710
      6          8           0       -2.543276    1.450835    1.714128
      7          7           0       -0.323782   -2.421317    0.754557
      8          7           0       -2.675314   -1.205681   -0.718522
      9          7           0        1.056869    0.135817   -0.738469
     10          7           0       -0.867818    1.474816   -0.038393
     11          6           0       -3.416971   -1.392413    0.542086
     12          6           0       -2.689684   -2.419189    1.534092
     13          6           0       -1.223722   -2.186667    1.721945
     14          6           0       -0.578605   -1.416458    2.790768
     15          6           0        0.769928   -1.330931    2.410863
     16          6           0        0.863423   -1.851574    1.091322
     17          6           0       -4.778476   -1.872118    0.115641
     18          6           0        1.864579   -0.554853    3.094020
     19          6           0       -4.759916   -1.849325   -1.292193
     20          6           0        1.987843   -1.847091    0.178437
     21          6           0        2.056950   -0.725851   -0.726512
     22          6           0       -3.460768   -1.333111   -1.790814
     23          6           0        2.976880   -0.447274   -1.799945
     24          6           0       -1.245394   -0.888896    3.982746
     25          6           0       -5.694976   -2.459209    1.072834
     26          6           0        2.533435    0.677400   -2.426742
     27          6           0        1.863972    0.904773    2.931287
     28          6           0        1.350945    1.106948   -1.789665
     29          6           0        4.265724   -1.254383   -2.112648
     30          6           0       -5.807841   -2.270612   -2.209258
     31          6           0        5.455467   -1.031086   -1.156058
     32          6           0        3.210493    1.424230   -3.649007
     33          6           0        0.430667    2.193919   -1.910082
     34          6           0        3.068932    1.620219    3.489318
     35          6           0       -0.614409    2.420397   -0.981628
     36          6           0       -6.770495   -3.235036   -1.968550
     37          6           0        6.619089   -1.965720   -1.509870
     38          6           0       -1.573383    3.640890   -0.928475
     39          6           0       -2.417818    3.291062    0.059263
     40          6           0       -1.968854    2.030068    0.652339
     41          6           0       -1.488982    4.749778   -1.898977
     42          6           0       -3.470668    4.220371    0.718784
     43          6           0       -2.250282    5.855263   -1.978971
     44          1           0       -3.613606   -0.363231    1.015053
     45          1           0       -2.731846   -3.445329    1.064436
     46          1           0       -3.149376   -2.455312    2.417220
     47          1           0       -0.520908   -2.764084   -0.168290
     48          1           0       -1.748344   -0.464747   -0.744169
     49          1           0        1.889116   -0.549213    4.214736
     50          1           0        2.898831   -0.997959    2.873612
     51          1           0        2.656630   -2.534380    0.187698
     52          1           0       -2.265986   -1.345162    4.352514
     53          1           0       -0.634386   -0.658507    4.865060
     54          1           0       -1.614693    0.196269    3.509352
     55          1           0       -5.810058   -2.025277    2.039772
     56          1           0       -5.445505   -3.431297    1.495877
     57          1           0       -6.897677   -2.644918    0.716324
     58          1           0        1.706819    1.307221    1.738258
     59          1           0        1.036252    1.483131    3.347721
     60          1           0        0.255563    0.277631   -0.262716
     61          1           0        4.452530   -1.167232   -3.229822
     62          1           0        3.858863   -2.308888   -2.117598
     63          1           0       -5.599892   -1.737802   -3.299583
     64          1           0        5.226563   -1.214527   -0.041094
     65          1           0        5.853417   -0.034073   -1.185868
     66          1           0        3.782677    0.807055   -4.432942
     67          1           0        3.721231    2.285520   -3.136775
     68          1           0        2.429628    2.022546   -4.186764
     69          1           0        0.817989    2.945179   -2.502188
     70          1           0       -6.922658   -3.786339   -1.081773
     71          1           0       -7.563487   -3.375798   -2.919999
     72          1           0        3.879649    3.214388    3.706680
     73          1           0       -0.628460    4.777607   -2.542072
     74          1           0       -4.300689    4.428553    0.083081
     75          1           0       -3.800358    3.764492    1.658934
     76          1           0       -2.839988    5.185978    1.190502
     77          1           0        8.593563   -2.098550   -1.069640
     78          1           0       -2.036194    6.751225   -2.755269
     79          1           0       -3.052696    6.010308   -1.198728
 ---------------------------------------------------------------------

 SCF Done:  E(RB3LYP) =  -1947.84329040     A.U. after   23 cycles

 Excitation energies and oscillator strengths:

 Excited State   1:      Singlet-A      0.5879 eV 2108.82 nm  f=0.0006  <S**2>=0.000
     155 ->156         0.70353
 This state for optimization and/or second-order correction.
 Total Energy, E(TD-HF/TD-DFT) =  -1947.82168429
 Copying the excited state density for this state as the 1-particle RhoCI density.

 The electronic state is 1-A.
 Alpha  occ. eigenvalues --  -19.19452 -19.18538 -19.15079 -19.11984 -19.11250
 Alpha  occ. eigenvalues --  -19.07251 -14.37030 -14.36341 -14.33768 -14.32248
 Alpha  occ. eigenvalues --  -10.33784 -10.31188 -10.28976 -10.26947 -10.26058
 Alpha  occ. eigenvalues --  -10.25713 -10.25509 -10.23551 -10.23307 -10.23176
 Alpha  occ. eigenvalues --  -10.23169 -10.23081 -10.22711 -10.22480 -10.22330
 Alpha  occ. eigenvalues --  -10.21902 -10.21828 -10.21555 -10.21139 -10.20923
 Alpha  occ. eigenvalues --  -10.20693 -10.20267 -10.20204 -10.19943 -10.19821
 Alpha  occ. eigenvalues --  -10.19709 -10.19304 -10.19006 -10.18565 -10.18491
 Alpha  occ. eigenvalues --  -10.18478 -10.17122 -10.16961  -1.12332  -1.08269
 Alpha  occ. eigenvalues --   -1.00414  -1.00402  -1.00301  -0.99929  -0.98353
 Alpha  occ. eigenvalues --   -0.97554  -0.92598  -0.91367  -0.84143  -0.82468
 Alpha  occ. eigenvalues --   -0.81652  -0.80206  -0.79726  -0.79091  -0.78218
 Alpha  occ. eigenvalues --   -0.76677  -0.76096  -0.75710  -0.73840  -0.72708
 Alpha  occ. eigenvalues --   -0.70413  -0.70140  -0.69498  -0.69114  -0.67568
 Alpha  occ. eigenvalues --   -0.67152  -0.65993  -0.64103  -0.61808  -0.60694
 Alpha  occ. eigenvalues --   -0.60471  -0.59038  -0.58257  -0.57623  -0.57152
 Alpha  occ. eigenvalues --   -0.56055  -0.55583  -0.55157  -0.53306  -0.53100
 Alpha  occ. eigenvalues --   -0.52085  -0.51216  -0.50944  -0.49673  -0.49361
 Alpha  occ. eigenvalues --   -0.48929  -0.48866  -0.48543  -0.48451  -0.48118
 Alpha  occ. eigenvalues --   -0.47678  -0.47208  -0.46390  -0.46004  -0.45759
 Alpha  occ. eigenvalues --   -0.45034  -0.44384  -0.44122  -0.44027  -0.43918
 Alpha  occ. eigenvalues --   -0.42987  -0.42809  -0.42593  -0.42116  -0.41812
 Alpha  occ. eigenvalues --   -0.41723  -0.41476  -0.41400  -0.40942  -0.40577
 Alpha  occ. eigenvalues --   -0.40324  -0.40135  -0.39717  -0.39537  -0.39347
 Alpha  occ. eigenvalues --   -0.39175  -0.38854  -0.38797  -0.38446  -0.38368
 Alpha  occ. eigenvalues --   -0.37503  -0.37049  -0.36806  -0.36531  -0.36361
 Alpha  occ. eigenvalues --   -0.36236  -0.35643  -0.35455  -0.34970  -0.33969
 Alpha  occ. eigenvalues --   -0.33060  -0.32886  -0.32584  -0.32093  -0.30970
 Alpha  occ. eigenvalues --   -0.30576  -0.30435  -0.29953  -0.29218  -0.29007
 Alpha  occ. eigenvalues --   -0.27352  -0.26867  -0.25803  -0.24951  -0.24299
 Alpha  occ. eigenvalues --   -0.23398  -0.22657  -0.22131  -0.21650  -0.18193
 Alpha virt. eigenvalues --   -0.13383  -0.08433  -0.04415  -0.02038  -0.01676
 Alpha virt. eigenvalues --    0.01159   0.02113   0.02158   0.02833   0.02871
 Alpha virt. eigenvalues --    0.03212   0.03982   0.04394   0.04937   0.05140

 Mulliken charges:
               1
     1  O   -0.243319
     2  O   -0.097928
     3  O   -0.254988
     4  O   -0.300440
     5  O   -0.198532
     6  O   -0.308697
     7  N    0.004487
     8  N   -0.266907
     9  N   -0.019636
    10  N   -0.320273
    11  C    0.071632
    12  C    0.273928
    13  C   -0.157461
    14  C   -0.074566
    15  C   -0.023617
    16  C   -0.040683
    17  C   -0.094652
    18  C    0.113955
    19  C   -0.112577
    20  C   -0.010622
    21  C    0.070839
    22  C    0.134135
    23  C   -0.110997
    24  C   -0.017105
    25  C    0.037106
    26  C   -0.098668
    27  C   -0.078474
    28  C    0.059973
    29  C    0.093091
    30  C   -0.037044
    31  C    0.021053
    32  C    0.070806
    33  C   -0.019233
    34  C    0.095567
    35  C    0.079183
    36  C   -0.066543
    37  C    0.166496
    38  C    0.107900
    39  C   -0.194233
    40  C    0.228083
    41  C    0.000642
    42  C    0.054978
    43  C   -0.070460
    44  H    0.069280
    45  H   -0.013387
    46  H   -0.060366
    47  H    0.111307
    48  H    0.197678
    49  H    0.003908
    50  H    0.007311
    51  H   -0.076824
    52  H    0.020906
    53  H    0.009609
    54  H    0.068304
    55  H   -0.003590
    56  H    0.023116
    57  H    0.046225
    58  H    0.031647
    59  H    0.029724
    60  H    0.120455
    61  H    0.023342
    62  H    0.030921
    63  H    0.050760
    64  H    0.072249
    65  H    0.039958
    66  H    0.066015
    67  H    0.035735
    68  H    0.023587
    69  H   -0.049620
    70  H    0.014595
    71  H    0.044257
    72  H    0.165239
    73  H   -0.011440
    74  H    0.042209
    75  H    0.025860
    76  H    0.051387
    77  H    0.225063
    78  H    0.061242
    79  H    0.037141
 Sum of Mulliken charges =  -0.00000

 Dipole moment (field-independent basis, Debye):
    X=              3.8503    Y=              4.6869    Z=             -0.6202  Tot=              6.0972
 Quadrupole moment (field-independent basis, Debye-Ang):
   XX=           -238.6292   YY=           -229.5020   ZZ=           -267.8616
   XY=              6.8068   XZ=            -25.2695   YZ=            -11.1462

 Normal termination of Gaussian 16 at Sun Jul 28 13:56:50 2019.
