 Gaussian 16, Revision A.03,
 Gaussian 16:  ES64L-G16RevA.03 25-Dec-2016

 --------------------------
 # td=(NStates=1) B3LYP/SVP
 --------------------------

 --
 TD
 --
 Symbolic Z-matrix:
 Charge =  0 Multiplicity = 1

                         Standard orientation:
 ---------------------------------------------------------------------
 Center     Atomic      Atomic             Coordinates (Angstroms)
 Number     Number       Type             X           Y           Z
 ---------------------------------------------------------------------
      1          8           0        5.335023   -0.111110   -3.287482
      2          8           0       -2.856232   -3.127559    3.220993
      3          8           0       -3.331699   -0.961747    2.790988
      4          8           0       -2.166918    7.216782    1.343849
      5          8           0       -0.769089    6.994984   -0.392005
      6          8           0       -1.540037   -3.935816    0.030143
      7          7           0        2.232559    1.076252    0.672847
      8          7           0        4.375805   -0.549349   -1.149521
      9          7           0       -1.850338    0.697062   -0.432876
     10          7           0       -2.454048   -2.014704   -0.404278
     11          6           0        4.790741   -1.093354    0.081851
     12          6           0        4.378715   -0.085682    1.240470
     13          6           0        2.961955    0.114923    1.340646
     14          6           0        1.947958   -0.489443    2.123178
     15          6           0        0.657574    0.067430    1.769722
     16          6           0        0.885173    1.066012    0.837061
     17          6           0        6.292219   -1.137889   -0.170170
     18          6           0       -0.723932   -0.235730    2.580779
     19          6           0        6.649049   -0.644056   -1.367516
     20          6           0        0.072524    2.138244    0.213685
     21          6           0       -1.142017    1.873859   -0.331580
     22          6           0        5.375022   -0.369526   -2.103441
     23          6           0       -2.082691    2.896670   -0.929651
     24          6           0        2.209406   -1.548893    3.187417
     25          6           0        7.210567   -1.784784    0.828700
     26          6           0       -3.230285    2.287470   -1.420253
     27          6           0       -1.023219   -1.649305    2.685026
     28          6           0       -3.030754    0.833891   -1.103453
     29          6           0       -1.751335    4.398963   -0.964575
     30          6           0        7.921994   -0.585556   -2.032231
     31          6           0       -1.951362    5.015050    0.448282
     32          6           0       -4.474187    2.770716   -1.947165
     33          6           0       -3.798502   -0.323254   -1.431515
     34          6           0       -2.534080   -1.835459    2.892806
     35          6           0       -3.537030   -1.576707   -1.098082
     36          6           0        9.149490   -0.569136   -1.490027
     37          6           0       -1.557536    6.411594    0.380266
     38          6           0       -4.362886   -2.735168   -1.407077
     39          6           0       -3.698863   -3.753363   -0.969041
     40          6           0       -2.438889   -3.360256   -0.435465
     41          6           0       -5.658757   -2.694008   -2.137434
     42          6           0       -3.933338   -5.217999   -0.928934
     43          6           0       -6.428751   -3.679834   -2.647069
     44          1           0        4.357691   -2.176434    0.360434
     45          1           0        5.100781    0.764867    1.226189
     46          1           0        4.665732   -0.422148    2.359606
     47          1           0        2.775080    1.867616    0.121310
     48          1           0        3.391742   -0.521238   -1.351229
     49          1           0       -0.354686    0.469458    3.459344
     50          1           0       -1.466638    0.429544    2.129641
     51          1           0        0.224238    3.254097    0.188038
     52          1           0        3.332735   -1.717640    3.466463
     53          1           0        1.561885   -1.416467    4.151971
     54          1           0        1.923471   -2.629811    2.841524
     55          1           0        6.654679   -2.405436    1.408536
     56          1           0        7.882416   -1.071536    1.385713
     57          1           0        7.878861   -2.563405    0.147473
     58          1           0       -1.026178   -2.208936    1.655764
     59          1           0       -0.499532   -2.321211    3.426691
     60          1           0       -1.518121   -0.211511   -0.309124
     61          1           0       -2.420990    4.743442   -1.755570
     62          1           0       -0.780484    4.516657   -1.164111
     63          1           0        7.644682   -0.774445   -3.161716
     64          1           0       -1.371286    4.498400    1.186799
     65          1           0       -3.128127    4.980009    0.639051
     66          1           0       -4.413360    3.595669   -2.435833
     67          1           0       -5.448561    2.756060   -1.175913
     68          1           0       -4.716964    2.123307   -2.887065
     69          1           0       -4.810659   -0.079229   -1.713671
     70          1           0        9.243533   -0.649466   -0.429799
     71          1           0       10.042040   -0.799424   -1.977137
     72          1           0       -3.765077   -3.188505    3.247137
     73          1           0       -5.968505   -1.680174   -2.249445
     74          1           0       -5.017075   -5.715849   -0.697657
     75          1           0       -3.870250   -5.738485   -1.943388
     76          1           0       -3.220955   -5.750385   -0.323353
     77          1           0       -1.701290    8.104826    1.266596
     78          1           0       -7.292349   -3.400958   -3.207840
     79          1           0       -6.248538   -4.762875   -2.511798
 ---------------------------------------------------------------------

 SCF Done:  E(RB3LYP) =  -1947.87107593     A.U. after   18 cycles

 Excitation energies and oscillator strengths:

 Excited State   1:      Singlet-A      2.1061 eV  588.70 nm  f=0.2686  <S**2>=0.000
     154 ->156         0.16435
     155 ->156         0.66926
 This state for optimization and/or second-order correction.
 Total Energy, E(TD-HF/TD-DFT) =  -1947.79367980
 Copying the excited state density for this state as the 1-particle RhoCI density.

 The electronic state is 1-A.
 Alpha  occ. eigenvalues --  -19.18486 -19.15856 -19.14015 -19.11060 -19.10457
 Alpha  occ. eigenvalues --  -19.09596 -14.38474 -14.37366 -14.35390 -14.26963
 Alpha  occ. eigenvalues --  -10.33557 -10.30054 -10.28638 -10.26310 -10.25768
 Alpha  occ. eigenvalues --  -10.25256 -10.24276 -10.23601 -10.23335 -10.23138
 Alpha  occ. eigenvalues --  -10.22989 -10.22684 -10.22646 -10.22483 -10.22120
 Alpha  occ. eigenvalues --  -10.21570 -10.21559 -10.21331 -10.20801 -10.20772
 Alpha  occ. eigenvalues --  -10.20300 -10.20178 -10.19995 -10.19541 -10.19354
 Alpha  occ. eigenvalues --  -10.19177 -10.19139 -10.19119 -10.19116 -10.18956
 Alpha  occ. eigenvalues --  -10.18878 -10.18685 -10.18098  -1.08687  -1.08432
 Alpha  occ. eigenvalues --   -1.04332  -1.02794  -1.00176  -0.99520  -0.99185
 Alpha  occ. eigenvalues --   -0.98347  -0.95288  -0.93187  -0.84472  -0.82656
 Alpha  occ. eigenvalues --   -0.82186  -0.80670  -0.80211  -0.79643  -0.79502
 Alpha  occ. eigenvalues --   -0.77606  -0.76218  -0.75646  -0.74798  -0.73971
 Alpha  occ. eigenvalues --   -0.72004  -0.70918  -0.70143  -0.69829  -0.68175
 Alpha  occ. eigenvalues --   -0.66627  -0.66111  -0.64545  -0.62297  -0.61196
 Alpha  occ. eigenvalues --   -0.60107  -0.59035  -0.58544  -0.58150  -0.57544
 Alpha  occ. eigenvalues --   -0.57036  -0.55739  -0.54591  -0.54188  -0.53366
 Alpha  occ. eigenvalues --   -0.52609  -0.52397  -0.51392  -0.51176  -0.50573
 Alpha  occ. eigenvalues --   -0.49453  -0.48540  -0.48393  -0.48250  -0.47840
 Alpha  occ. eigenvalues --   -0.47019  -0.46723  -0.46634  -0.46277  -0.45905
 Alpha  occ. eigenvalues --   -0.45652  -0.45198  -0.44668  -0.44156  -0.43954
 Alpha  occ. eigenvalues --   -0.43871  -0.43771  -0.43533  -0.43453  -0.42795
 Alpha  occ. eigenvalues --   -0.42619  -0.42193  -0.42097  -0.41727  -0.41276
 Alpha  occ. eigenvalues --   -0.40985  -0.40683  -0.40307  -0.39684  -0.39480
 Alpha  occ. eigenvalues --   -0.39283  -0.39027  -0.38815  -0.38617  -0.38367
 Alpha  occ. eigenvalues --   -0.38089  -0.37861  -0.37589  -0.37333  -0.37146
 Alpha  occ. eigenvalues --   -0.36990  -0.36304  -0.35600  -0.35295  -0.34938
 Alpha  occ. eigenvalues --   -0.33833  -0.33394  -0.32531  -0.31578  -0.31259
 Alpha  occ. eigenvalues --   -0.31120  -0.30805  -0.29219  -0.28749  -0.27084
 Alpha  occ. eigenvalues --   -0.26831  -0.26380  -0.26110  -0.25798  -0.24401
 Alpha  occ. eigenvalues --   -0.24100  -0.23873  -0.23355  -0.22128  -0.20149
 Alpha virt. eigenvalues --   -0.11378  -0.06190  -0.05453  -0.02671  -0.00745
 Alpha virt. eigenvalues --    0.00713   0.00879   0.01994   0.03104   0.03360
 Alpha virt. eigenvalues --    0.03629   0.03917   0.04301   0.04755   0.05330

 Mulliken charges:
               1
     1  O   -0.209278
     2  O   -0.168492
     3  O   -0.207568
     4  O   -0.232119
     5  O   -0.260001
     6  O   -0.138082
     7  N   -0.107199
     8  N   -0.182293
     9  N   -0.015620
    10  N   -0.269906
    11  C    0.068565
    12  C    0.088253
    13  C   -0.035133
    14  C   -0.108107
    15  C   -0.135095
    16  C    0.052499
    17  C   -0.213591
    18  C    0.100460
    19  C   -0.047698
    20  C   -0.075667
    21  C    0.075003
    22  C    0.164627
    23  C   -0.156815
    24  C   -0.001206
    25  C    0.085518
    26  C   -0.097444
    27  C   -0.000888
    28  C    0.040419
    29  C    0.179346
    30  C   -0.034720
    31  C   -0.004493
    32  C    0.135113
    33  C   -0.123586
    34  C    0.100526
    35  C    0.139478
    36  C    0.009462
    37  C    0.155172
    38  C    0.070775
    39  C   -0.186722
    40  C    0.081038
    41  C    0.007187
    42  C    0.027889
    43  C   -0.002882
    44  H    0.049147
    45  H    0.000884
    46  H    0.025678
    47  H    0.144406
    48  H    0.120143
    49  H    0.033422
    50  H    0.005861
    51  H    0.006549
    52  H    0.013107
    53  H    0.037303
    54  H    0.041753
    55  H   -0.018740
    56  H    0.060305
    57  H    0.050458
    58  H    0.096977
    59  H    0.037687
    60  H    0.109766
    61  H    0.020087
    62  H   -0.017165
    63  H    0.042985
    64  H    0.056267
    65  H    0.071841
    66  H   -0.057454
    67  H    0.076651
    68  H    0.026780
    69  H   -0.019547
    70  H   -0.002169
    71  H    0.012508
    72  H    0.140088
    73  H   -0.037077
    74  H    0.023488
    75  H    0.024124
    76  H    0.022293
    77  H    0.199927
    78  H    0.014949
    79  H    0.019989
 Sum of Mulliken charges =  -0.00000

 Dipole moment (field-independent basis, Debye):
    X=             -1.2303    Y=              2.9764    Z=              2.5145  Tot=              4.0860
 Quadrupole moment (field-independent basis, Debye-Ang):
   XX=           -226.0764   YY=           -247.3030   ZZ=           -264.5547
   XY=            -11.3419   XZ=             35.8756   YZ=              4.6154

 Normal termination of Gaussian 16 at Sat Sep 14 03:11:24 2019.
