 Gaussian 16, Revision A.03,
 Gaussian 16:  ES64L-G16RevA.03 25-Dec-2016

 --------------------------
 # td=(NStates=1) B3LYP/SVP
 --------------------------

 --
 TD
 --
 Symbolic Z-matrix:
 Charge =  0 Multiplicity = 1

                         Standard orientation:
 ---------------------------------------------------------------------
 Center     Atomic      Atomic             Coordinates (Angstroms)
 Number     Number       Type             X           Y           Z
 ---------------------------------------------------------------------
      1          8           0        5.245755   -0.235886   -3.254538
      2          8           0       -3.016004   -2.810623    2.975794
      3          8           0       -3.400374   -0.613114    2.789940
      4          8           0       -1.651291    7.172455    1.342789
      5          8           0       -0.401724    6.875351   -0.613353
      6          8           0       -1.651385   -3.896595    0.220852
      7          7           0        2.402617    1.052899    0.660608
      8          7           0        4.326412   -0.588577   -1.196493
      9          7           0       -1.829443    0.607377   -0.484506
     10          7           0       -2.592055   -1.931553   -0.434648
     11          6           0        4.716937   -1.201598    0.074584
     12          6           0        4.449946   -0.284887    1.270531
     13          6           0        2.876291   -0.014305    1.417578
     14          6           0        1.918553   -0.527830    2.164154
     15          6           0        0.748461    0.053965    1.760391
     16          6           0        1.082012    1.082097    0.765670
     17          6           0        6.221040   -1.340129   -0.058055
     18          6           0       -0.554200   -0.107315    2.487421
     19          6           0        6.598709   -1.026922   -1.340806
     20          6           0        0.147140    1.963438    0.155206
     21          6           0       -1.118033    1.875868   -0.455310
     22          6           0        5.406192   -0.510591   -2.088337
     23          6           0       -1.946412    2.919686   -0.927276
     24          6           0        2.168956   -1.664683    3.134813
     25          6           0        7.144195   -1.824819    1.052780
     26          6           0       -3.165033    2.314729   -1.235641
     27          6           0       -1.157502   -1.462850    2.646114
     28          6           0       -2.999324    0.825394   -0.964431
     29          6           0       -1.536491    4.340015   -1.036517
     30          6           0        7.815690   -0.808143   -2.088770
     31          6           0       -1.677912    5.101366    0.311991
     32          6           0       -4.461376    2.946600   -1.763369
     33          6           0       -4.010708   -0.108893   -1.215090
     34          6           0       -2.590330   -1.485404    2.798009
     35          6           0       -3.774569   -1.505800   -0.963059
     36          6           0        9.013762   -0.979914   -1.615715
     37          6           0       -1.133112    6.397304    0.225038
     38          6           0       -4.583560   -2.613473   -1.247925
     39          6           0       -3.815132   -3.762451   -0.996402
     40          6           0       -2.549876   -3.321772   -0.391997
     41          6           0       -5.892346   -2.569465   -1.979263
     42          6           0       -4.194719   -5.249153   -1.161969
     43          6           0       -6.606157   -3.554571   -2.498170
     44          1           0        4.337712   -2.343546    0.226543
     45          1           0        4.986304    0.642833    1.051861
     46          1           0        4.771310   -0.738050    2.164304
     47          1           0        2.967134    1.577615   -0.111264
     48          1           0        3.353356   -0.585146   -1.477046
     49          1           0       -0.562323    0.451687    3.296522
     50          1           0       -1.349575    0.426780    1.979198
     51          1           0        0.642119    3.036630   -0.137417
     52          1           0        3.278524   -1.709990    3.472746
     53          1           0        1.519369   -1.510420    4.085781
     54          1           0        1.936986   -2.728111    2.778159
     55          1           0        6.634077   -2.635673    1.663088
     56          1           0        7.405573   -1.023553    1.703704
     57          1           0        8.051634   -2.345046    0.734315
     58          1           0       -0.877027   -2.306891    1.684085
     59          1           0       -0.864060   -2.065640    3.389853
     60          1           0       -1.357312   -0.362414   -0.427123
     61          1           0       -2.329206    4.772566   -1.710728
     62          1           0       -0.449369    4.318194   -1.231613
     63          1           0        7.786403   -0.293118   -3.103045
     64          1           0       -0.945646    4.595578    1.066491
     65          1           0       -2.806160    5.226654    0.593399
     66          1           0       -4.243584    3.976786   -1.940415
     67          1           0       -5.389288    2.808692   -1.173731
     68          1           0       -4.606484    2.483133   -2.751018
     69          1           0       -5.027251    0.232551   -1.525534
     70          1           0        9.357988   -1.176552   -0.629863
     71          1           0        9.770190   -1.002053   -2.393247
     72          1           0       -3.858018   -2.646024    3.075851
     73          1           0       -6.274488   -1.570882   -1.808959
     74          1           0       -5.085871   -5.401915   -0.571171
     75          1           0       -4.544099   -5.530546   -2.091386
     76          1           0       -3.471486   -6.117108   -0.811403
     77          1           0       -1.305241    7.983758    1.305760
     78          1           0       -7.710163   -3.265753   -2.963563
     79          1           0       -6.141105   -4.461713   -2.336792
 ---------------------------------------------------------------------

 SCF Done:  E(RB3LYP) =  -1947.85963297     A.U. after   19 cycles

 Excitation energies and oscillator strengths:

 Excited State   1:      Singlet-A      1.8986 eV  653.03 nm  f=0.2374  <S**2>=0.000
     154 ->156         0.27688
     155 ->156         0.64325
     155 <-156        -0.10217
 This state for optimization and/or second-order correction.
 Total Energy, E(TD-HF/TD-DFT) =  -1947.78986072
 Copying the excited state density for this state as the 1-particle RhoCI density.

 The electronic state is 1-A.
 Alpha  occ. eigenvalues --  -19.16433 -19.14632 -19.13797 -19.11349 -19.10498
 Alpha  occ. eigenvalues --  -19.09923 -14.39691 -14.37159 -14.35379 -14.26974
 Alpha  occ. eigenvalues --  -10.32949 -10.29537 -10.28604 -10.26138 -10.25434
 Alpha  occ. eigenvalues --  -10.24796 -10.24572 -10.23734 -10.23577 -10.23152
 Alpha  occ. eigenvalues --  -10.23060 -10.22807 -10.22337 -10.22288 -10.22240
 Alpha  occ. eigenvalues --  -10.21828 -10.21600 -10.21441 -10.21427 -10.20770
 Alpha  occ. eigenvalues --  -10.20596 -10.20173 -10.19824 -10.19587 -10.19486
 Alpha  occ. eigenvalues --  -10.19471 -10.19394 -10.19280 -10.18905 -10.18718
 Alpha  occ. eigenvalues --  -10.18645 -10.18142 -10.17292  -1.08638  -1.08588
 Alpha  occ. eigenvalues --   -1.03227  -1.01574  -1.00309  -1.00277  -0.99632
 Alpha  occ. eigenvalues --   -0.98942  -0.93869  -0.91086  -0.84413  -0.82679
 Alpha  occ. eigenvalues --   -0.82483  -0.81192  -0.79773  -0.79368  -0.79183
 Alpha  occ. eigenvalues --   -0.78402  -0.76905  -0.75622  -0.74279  -0.72975
 Alpha  occ. eigenvalues --   -0.72296  -0.71442  -0.70158  -0.69453  -0.69102
 Alpha  occ. eigenvalues --   -0.68254  -0.66053  -0.64230  -0.61082  -0.60452
 Alpha  occ. eigenvalues --   -0.59471  -0.58467  -0.58282  -0.57789  -0.57408
 Alpha  occ. eigenvalues --   -0.56542  -0.55267  -0.55049  -0.54426  -0.53492
 Alpha  occ. eigenvalues --   -0.51930  -0.51910  -0.51457  -0.51119  -0.50309
 Alpha  occ. eigenvalues --   -0.49345  -0.48789  -0.48566  -0.48098  -0.47799
 Alpha  occ. eigenvalues --   -0.47225  -0.47016  -0.46559  -0.46358  -0.45723
 Alpha  occ. eigenvalues --   -0.44995  -0.44845  -0.44361  -0.43972  -0.43224
 Alpha  occ. eigenvalues --   -0.43118  -0.43023  -0.42817  -0.42640  -0.42525
 Alpha  occ. eigenvalues --   -0.41954  -0.41832  -0.41571  -0.41409  -0.41205
 Alpha  occ. eigenvalues --   -0.41026  -0.40848  -0.40257  -0.40046  -0.39875
 Alpha  occ. eigenvalues --   -0.39697  -0.39526  -0.39312  -0.38991  -0.38759
 Alpha  occ. eigenvalues --   -0.38641  -0.38231  -0.38162  -0.38101  -0.37518
 Alpha  occ. eigenvalues --   -0.37166  -0.36518  -0.36061  -0.35502  -0.34353
 Alpha  occ. eigenvalues --   -0.33987  -0.33507  -0.33006  -0.32038  -0.31760
 Alpha  occ. eigenvalues --   -0.31088  -0.30365  -0.29555  -0.28403  -0.27277
 Alpha  occ. eigenvalues --   -0.26995  -0.26524  -0.26258  -0.25694  -0.25662
 Alpha  occ. eigenvalues --   -0.24363  -0.23547  -0.23103  -0.21350  -0.18871
 Alpha virt. eigenvalues --   -0.10980  -0.06901  -0.06427  -0.01782   0.00018
 Alpha virt. eigenvalues --    0.01135   0.01322   0.01847   0.02060   0.02655
 Alpha virt. eigenvalues --    0.03162   0.04839   0.05080   0.05477   0.05520

 Mulliken charges:
               1
     1  O   -0.210638
     2  O   -0.153607
     3  O   -0.215481
     4  O   -0.216638
     5  O   -0.204374
     6  O   -0.208495
     7  N   -0.061901
     8  N   -0.214053
     9  N   -0.045071
    10  N   -0.328674
    11  C    0.044977
    12  C    0.238634
    13  C   -0.093746
    14  C   -0.079126
    15  C   -0.134072
    16  C    0.036586
    17  C   -0.192692
    18  C    0.224193
    19  C   -0.023603
    20  C   -0.133619
    21  C    0.062752
    22  C    0.142122
    23  C   -0.053953
    24  C    0.024904
    25  C    0.094053
    26  C   -0.197610
    27  C   -0.026304
    28  C    0.109428
    29  C    0.129541
    30  C   -0.019017
    31  C   -0.014618
    32  C    0.135576
    33  C   -0.138988
    34  C    0.112727
    35  C    0.105415
    36  C   -0.022038
    37  C    0.132829
    38  C    0.005976
    39  C   -0.208010
    40  C    0.158502
    41  C   -0.010960
    42  C    0.095997
    43  C    0.018200
    44  H    0.057522
    45  H   -0.007090
    46  H   -0.020836
    47  H    0.157384
    48  H    0.126583
    49  H   -0.038558
    50  H   -0.014522
    51  H    0.002494
    52  H    0.015500
    53  H    0.035572
    54  H    0.054288
    55  H    0.021145
    56  H    0.031691
    57  H    0.033099
    58  H    0.119120
    59  H   -0.028435
    60  H    0.184672
    61  H    0.025834
    62  H    0.024853
    63  H    0.039982
    64  H    0.072056
    65  H    0.073846
    66  H   -0.010630
    67  H    0.047118
    68  H    0.030159
    69  H   -0.012969
    70  H    0.001424
    71  H    0.018685
    72  H    0.094073
    73  H   -0.018939
    74  H    0.015292
    75  H    0.015365
    76  H    0.044934
    77  H    0.128691
    78  H    0.058618
    79  H   -0.043148
 Sum of Mulliken charges =  -0.00000

 Dipole moment (field-independent basis, Debye):
    X=              2.0426    Y=              2.5558    Z=              2.6004  Tot=              4.1793
 Quadrupole moment (field-independent basis, Debye-Ang):
   XX=           -216.2877   YY=           -251.6623   ZZ=           -265.7077
   XY=            -12.7300   XZ=             34.6603   YZ=              2.0543

 Normal termination of Gaussian 16 at Wed Sep 25 01:39:02 2019.
