 Gaussian 16, Revision A.03,
 Gaussian 16:  ES64L-G16RevA.03 25-Dec-2016

 --------------------------
 # td=(NStates=1) B3LYP/SVP
 --------------------------

 --
 TD
 --
 Symbolic Z-matrix:
 Charge =  0 Multiplicity = 1

                         Standard orientation:
 ---------------------------------------------------------------------
 Center     Atomic      Atomic             Coordinates (Angstroms)
 Number     Number       Type             X           Y           Z
 ---------------------------------------------------------------------
      1          8           0        5.419878   -0.097340   -3.307909
      2          8           0       -3.004198   -2.931679    3.291758
      3          8           0       -3.260954   -0.698206    3.225940
      4          8           0       -1.463053    7.267262    1.502320
      5          8           0       -0.355226    6.903556   -0.486876
      6          8           0       -1.836477   -3.931168   -0.028967
      7          7           0        2.348257    0.895801    0.591304
      8          7           0        4.442977   -0.612854   -1.179841
      9          7           0       -1.863501    0.682665   -0.464834
     10          7           0       -2.646125   -1.897286   -0.677917
     11          6           0        4.754580   -1.209606    0.110495
     12          6           0        4.421783   -0.360601    1.368545
     13          6           0        2.979148   -0.078665    1.331276
     14          6           0        2.043338   -0.570119    2.190113
     15          6           0        0.720858    0.036773    1.815778
     16          6           0        0.968664    0.878997    0.808730
     17          6           0        6.289601   -1.407160   -0.136922
     18          6           0       -0.583744   -0.173849    2.566914
     19          6           0        6.726274   -0.991515   -1.460808
     20          6           0        0.113123    1.900667    0.214739
     21          6           0       -1.064850    1.874897   -0.428588
     22          6           0        5.526319   -0.393783   -2.148193
     23          6           0       -1.909357    2.842123   -0.846738
     24          6           0        2.148513   -1.687326    3.278996
     25          6           0        7.140234   -2.047434    0.944024
     26          6           0       -3.123244    2.403375   -1.296723
     27          6           0       -1.159222   -1.676730    2.549972
     28          6           0       -3.043620    1.031438   -1.050801
     29          6           0       -1.410622    4.425206   -0.955608
     30          6           0        7.984483   -0.981469   -2.084395
     31          6           0       -1.895743    5.129791    0.358868
     32          6           0       -4.187921    2.979880   -2.093560
     33          6           0       -3.922691   -0.047567   -1.398992
     34          6           0       -2.564252   -1.646408    3.031542
     35          6           0       -3.782970   -1.484186   -1.201959
     36          6           0        9.202649   -0.937567   -1.542927
     37          6           0       -1.115053    6.505460    0.421102
     38          6           0       -4.707418   -2.605572   -1.483592
     39          6           0       -4.070274   -3.762306   -1.100598
     40          6           0       -2.724284   -3.256913   -0.560321
     41          6           0       -5.994256   -2.313343   -1.975175
     42          6           0       -4.505599   -5.178565   -1.237707
     43          6           0       -7.005679   -3.254045   -2.314932
     44          1           0        4.173086   -2.065485    0.319216
     45          1           0        4.934625    0.414896    0.847754
     46          1           0        4.682903   -0.806680    2.096821
     47          1           0        2.951854    1.510467   -0.026270
     48          1           0        3.509790   -0.391071   -1.645988
     49          1           0       -0.389787    0.095633    3.529459
     50          1           0       -1.458257    0.284346    1.809804
     51          1           0        0.761828    2.765527    0.057508
     52          1           0        3.163936   -1.780084    3.671633
     53          1           0        1.365059   -1.537330    4.103953
     54          1           0        1.844527   -2.627079    2.786858
     55          1           0        6.612503   -2.737049    1.593187
     56          1           0        7.421932   -1.300277    1.688362
     57          1           0        7.963550   -2.543671    0.652941
     58          1           0       -1.286315   -1.984051    1.603156
     59          1           0       -0.637479   -2.412309    3.049966
     60          1           0       -1.569430   -0.278587   -0.193978
     61          1           0       -2.002394    4.917261   -1.812992
     62          1           0       -0.434956    4.638453   -1.028422
     63          1           0        7.970771   -1.267349   -3.326874
     64          1           0       -1.456711    4.773032    1.350528
     65          1           0       -2.869969    5.269075    0.715516
     66          1           0       -3.940520    4.119320   -2.377640
     67          1           0       -5.266305    3.202721   -1.465928
     68          1           0       -4.564268    2.471227   -2.789619
     69          1           0       -4.846517    0.163679   -1.915885
     70          1           0        9.349045   -0.762276   -0.548412
     71          1           0       10.043276   -1.124040   -2.262924
     72          1           0       -3.898596   -2.799513    3.516739
     73          1           0       -6.179805   -1.321966   -2.088380
     74          1           0       -5.461350   -5.249245   -0.847418
     75          1           0       -4.557331   -5.733791   -2.369300
     76          1           0       -3.785566   -5.840205   -0.571937
     77          1           0       -0.987577    8.137825    1.366332
     78          1           0       -7.888522   -3.170538   -2.815277
     79          1           0       -6.730634   -4.271798   -2.158945
 ---------------------------------------------------------------------

 SCF Done:  E(RB3LYP) =  -1947.76012086     A.U. after   17 cycles

 Excitation energies and oscillator strengths:

 Excited State   1:      Singlet-A      2.0779 eV  596.67 nm  f=0.4157  <S**2>=0.000
     154 ->156         0.13189
     155 ->156         0.68766
     155 <-156        -0.11202
 This state for optimization and/or second-order correction.
 Total Energy, E(TD-HF/TD-DFT) =  -1947.68375863
 Copying the excited state density for this state as the 1-particle RhoCI density.

 The electronic state is 1-A.
 Alpha  occ. eigenvalues --  -19.19852 -19.15769 -19.13746 -19.11694 -19.11657
 Alpha  occ. eigenvalues --  -19.09738 -14.38104 -14.36050 -14.35230 -14.28550
 Alpha  occ. eigenvalues --  -10.33442 -10.30267 -10.29368 -10.26012 -10.25418
 Alpha  occ. eigenvalues --  -10.24875 -10.23991 -10.23816 -10.23231 -10.22887
 Alpha  occ. eigenvalues --  -10.22556 -10.22271 -10.22244 -10.22145 -10.22092
 Alpha  occ. eigenvalues --  -10.21527 -10.21380 -10.21299 -10.21131 -10.20345
 Alpha  occ. eigenvalues --  -10.20311 -10.20131 -10.20128 -10.20123 -10.20110
 Alpha  occ. eigenvalues --  -10.19969 -10.19900 -10.19423 -10.19293 -10.19225
 Alpha  occ. eigenvalues --  -10.18888 -10.18851 -10.17462  -1.09279  -1.08466
 Alpha  occ. eigenvalues --   -1.03605  -1.00361  -1.00087  -0.99826  -0.98816
 Alpha  occ. eigenvalues --   -0.98107  -0.92670  -0.92467  -0.83023  -0.82720
 Alpha  occ. eigenvalues --   -0.81405  -0.81225  -0.80680  -0.80279  -0.78295
 Alpha  occ. eigenvalues --   -0.77133  -0.76524  -0.75986  -0.74840  -0.72650
 Alpha  occ. eigenvalues --   -0.72093  -0.71572  -0.69665  -0.69078  -0.68367
 Alpha  occ. eigenvalues --   -0.67484  -0.66794  -0.64629  -0.61872  -0.61083
 Alpha  occ. eigenvalues --   -0.60071  -0.59697  -0.58380  -0.57597  -0.56883
 Alpha  occ. eigenvalues --   -0.56760  -0.56175  -0.55411  -0.54257  -0.53545
 Alpha  occ. eigenvalues --   -0.52924  -0.52258  -0.51770  -0.50596  -0.50217
 Alpha  occ. eigenvalues --   -0.49368  -0.49217  -0.48892  -0.47909  -0.47630
 Alpha  occ. eigenvalues --   -0.47327  -0.47222  -0.46879  -0.46571  -0.46146
 Alpha  occ. eigenvalues --   -0.45941  -0.45589  -0.45147  -0.44434  -0.44048
 Alpha  occ. eigenvalues --   -0.43779  -0.43490  -0.43239  -0.43121  -0.42657
 Alpha  occ. eigenvalues --   -0.42482  -0.41913  -0.41876  -0.41462  -0.41244
 Alpha  occ. eigenvalues --   -0.40946  -0.40792  -0.40372  -0.40306  -0.40140
 Alpha  occ. eigenvalues --   -0.39838  -0.39696  -0.39169  -0.38601  -0.38177
 Alpha  occ. eigenvalues --   -0.38062  -0.38040  -0.37801  -0.37364  -0.36906
 Alpha  occ. eigenvalues --   -0.36827  -0.36504  -0.35486  -0.35048  -0.34907
 Alpha  occ. eigenvalues --   -0.34244  -0.33920  -0.33025  -0.32032  -0.31518
 Alpha  occ. eigenvalues --   -0.31171  -0.31129  -0.28842  -0.28706  -0.27296
 Alpha  occ. eigenvalues --   -0.27155  -0.26738  -0.26284  -0.26105  -0.24388
 Alpha  occ. eigenvalues --   -0.23858  -0.23777  -0.23101  -0.22099  -0.19418
 Alpha virt. eigenvalues --   -0.11234  -0.07428  -0.07002  -0.01402  -0.01101
 Alpha virt. eigenvalues --    0.00183   0.01374   0.02432   0.03059   0.03508
 Alpha virt. eigenvalues --    0.03895   0.04168   0.04526   0.04895   0.05347

 Mulliken charges:
               1
     1  O   -0.189075
     2  O   -0.182299
     3  O   -0.212497
     4  O   -0.204245
     5  O   -0.268182
     6  O   -0.218458
     7  N   -0.116098
     8  N   -0.313967
     9  N   -0.139699
    10  N   -0.235319
    11  C    0.115019
    12  C    0.471226
    13  C   -0.158669
    14  C   -0.145990
    15  C   -0.072039
    16  C    0.039839
    17  C   -0.168568
    18  C    0.048931
    19  C   -0.020181
    20  C   -0.097171
    21  C    0.158926
    22  C    0.182378
    23  C   -0.090586
    24  C    0.077670
    25  C    0.150344
    26  C   -0.056823
    27  C    0.117500
    28  C    0.135976
    29  C    0.181340
    30  C   -0.094834
    31  C   -0.020979
    32  C    0.114843
    33  C   -0.086890
    34  C    0.094350
    35  C    0.020503
    36  C    0.001945
    37  C    0.145158
    38  C    0.116174
    39  C   -0.188357
    40  C    0.137410
    41  C   -0.033569
    42  C    0.022894
    43  C    0.033140
    44  H    0.006788
    45  H   -0.032677
    46  H   -0.163113
    47  H    0.134325
    48  H    0.141435
    49  H   -0.005544
    50  H    0.058596
    51  H   -0.009093
    52  H    0.008671
    53  H    0.028418
    54  H    0.044109
    55  H    0.001522
    56  H    0.023034
    57  H   -0.000944
    58  H    0.002270
    59  H   -0.002445
    60  H    0.161832
    61  H    0.036216
    62  H   -0.011319
    63  H    0.056584
    64  H    0.040875
    65  H    0.021803
    66  H    0.035906
    67  H    0.029253
    68  H   -0.033008
    69  H   -0.055381
    70  H   -0.011762
    71  H    0.037509
    72  H    0.144721
    73  H   -0.060455
    74  H    0.018533
    75  H    0.060941
    76  H    0.045849
    77  H    0.198285
    78  H    0.002407
    79  H   -0.005216
 Sum of Mulliken charges =  -0.00000

 Dipole moment (field-independent basis, Debye):
    X=              0.5325    Y=              2.7908    Z=              2.8312  Tot=              4.0110
 Quadrupole moment (field-independent basis, Debye-Ang):
   XX=           -216.6943   YY=           -243.6434   ZZ=           -262.0838
   XY=            -12.2106   XZ=             34.8243   YZ=              3.7153

 Normal termination of Gaussian 16 at Mon Oct  7 21:58:29 2019.
