 Gaussian 16, Revision A.03,
 Gaussian 16:  ES64L-G16RevA.03 25-Dec-2016

 --------------------------
 # td=(NStates=1) B3LYP/SVP
 --------------------------

 --
 TD
 --
 Symbolic Z-matrix:
 Charge =  0 Multiplicity = 1

                         Standard orientation:
 ---------------------------------------------------------------------
 Center     Atomic      Atomic             Coordinates (Angstroms)
 Number     Number       Type             X           Y           Z
 ---------------------------------------------------------------------
      1          8           0        5.462237    0.087694   -3.196512
      2          8           0       -3.139036   -2.848059    3.070749
      3          8           0       -3.143659   -0.648300    3.278393
      4          8           0       -1.675277    7.263116    1.453977
      5          8           0       -0.132504    6.787951   -0.410689
      6          8           0       -1.962441   -3.964793   -0.060342
      7          7           0        2.401156    0.792832    0.574614
      8          7           0        4.368854   -0.550136   -1.253372
      9          7           0       -1.800210    0.723697   -0.370654
     10          7           0       -2.715918   -1.809110   -0.528915
     11          6           0        4.770219   -1.226623   -0.050548
     12          6           0        4.422919   -0.350828    1.209988
     13          6           0        2.972227   -0.193026    1.388070
     14          6           0        1.925856   -0.756247    2.175653
     15          6           0        0.708671   -0.184111    1.697700
     16          6           0        0.995707    0.803951    0.833206
     17          6           0        6.286189   -1.401586   -0.170430
     18          6           0       -0.567853   -0.341504    2.518591
     19          6           0        6.743752   -0.950023   -1.360679
     20          6           0        0.168453    1.852826    0.276576
     21          6           0       -1.010110    1.846717   -0.249024
     22          6           0        5.467502   -0.386051   -2.125280
     23          6           0       -1.842120    2.959357   -0.856653
     24          6           0        2.180928   -1.912319    3.086862
     25          6           0        6.968071   -2.121569    0.797619
     26          6           0       -3.007087    2.395397   -1.279394
     27          6           0       -1.083057   -1.758412    2.442319
     28          6           0       -3.025089    1.011566   -1.041840
     29          6           0       -1.379678    4.352943   -0.887929
     30          6           0        7.906846   -0.887150   -2.003773
     31          6           0       -1.807864    5.101446    0.489145
     32          6           0       -4.221583    3.112061   -1.780637
     33          6           0       -3.969018    0.069411   -1.297324
     34          6           0       -2.568937   -1.696967    2.908170
     35          6           0       -3.791028   -1.403027   -1.136440
     36          6           0        9.093559   -0.830205   -1.406353
     37          6           0       -1.050583    6.492857    0.426703
     38          6           0       -4.741051   -2.474160   -1.557517
     39          6           0       -4.168209   -3.571794   -1.041621
     40          6           0       -2.801772   -3.265154   -0.552698
     41          6           0       -6.067183   -2.289982   -2.148178
     42          6           0       -4.516356   -5.072509   -1.138585
     43          6           0       -6.911039   -3.225129   -2.496167
     44          1           0        4.428680   -2.273692   -0.025518
     45          1           0        4.992907    0.597274    1.007498
     46          1           0        5.053892   -0.947901    2.059758
     47          1           0        3.168298    1.567893    0.119731
     48          1           0        3.382830   -0.515775   -1.456527
     49          1           0       -0.359162   -0.146200    3.634620
     50          1           0       -1.470310    0.246844    2.277520
     51          1           0        0.842179    2.736397   -0.031762
     52          1           0        3.272300   -2.244512    3.179578
     53          1           0        1.811722   -1.968756    3.935312
     54          1           0        1.971684   -2.961396    2.552058
     55          1           0        6.369825   -3.083881    1.352020
     56          1           0        7.585236   -1.502733    1.564828
     57          1           0        7.811340   -2.746893    0.331293
     58          1           0       -1.168285   -1.880398    1.422843
     59          1           0       -0.530191   -2.510851    2.869069
     60          1           0       -1.593367   -0.221955   -0.192446
     61          1           0       -1.885437    4.939666   -1.831147
     62          1           0       -0.248331    4.624281   -1.080509
     63          1           0        8.021180   -0.844870   -2.945671
     64          1           0       -1.338527    4.400467    1.268853
     65          1           0       -2.939641    5.159180    0.563916
     66          1           0       -3.707060    4.149196   -2.048477
     67          1           0       -5.055685    3.297933   -0.991155
     68          1           0       -4.740814    2.652657   -2.663592
     69          1           0       -4.742941    0.412063   -1.821192
     70          1           0        9.252354   -0.721659   -0.374132
     71          1           0        9.999422   -0.721454   -2.083617
     72          1           0       -4.038328   -2.390536    3.107901
     73          1           0       -6.392169   -1.291456   -2.320403
     74          1           0       -5.407892   -5.329544   -0.502033
     75          1           0       -4.447429   -5.361309   -2.182330
     76          1           0       -3.666513   -5.653249   -0.664399
     77          1           0       -1.338246    8.365194    1.404919
     78          1           0       -7.796782   -3.153050   -3.062634
     79          1           0       -6.636166   -4.399760   -2.427685
 ---------------------------------------------------------------------

 SCF Done:  E(RB3LYP) =  -1947.79078024     A.U. after   16 cycles

 Excitation energies and oscillator strengths:

 Excited State   1:      Singlet-A      1.9724 eV  628.59 nm  f=0.3663  <S**2>=0.000
     155 ->156         0.70517
 This state for optimization and/or second-order correction.
 Total Energy, E(TD-HF/TD-DFT) =  -1947.71829492
 Copying the excited state density for this state as the 1-particle RhoCI density.

 The electronic state is 1-A.
 Alpha  occ. eigenvalues --  -19.20710 -19.18334 -19.15474 -19.12180 -19.11141
 Alpha  occ. eigenvalues --  -19.10428 -14.38169 -14.34789 -14.34426 -14.29402
 Alpha  occ. eigenvalues --  -10.34926 -10.30767 -10.28409 -10.27335 -10.24112
 Alpha  occ. eigenvalues --  -10.23859 -10.23607 -10.23253 -10.23134 -10.22385
 Alpha  occ. eigenvalues --  -10.22361 -10.22351 -10.22302 -10.21960 -10.21462
 Alpha  occ. eigenvalues --  -10.21410 -10.21081 -10.20850 -10.20665 -10.20337
 Alpha  occ. eigenvalues --  -10.20294 -10.20236 -10.20210 -10.19468 -10.19285
 Alpha  occ. eigenvalues --  -10.19150 -10.18900 -10.18538 -10.18194 -10.18121
 Alpha  occ. eigenvalues --  -10.18073 -10.17605 -10.16883  -1.11295  -1.05498
 Alpha  occ. eigenvalues --   -1.04497  -1.03673  -0.99283  -0.97855  -0.96929
 Alpha  occ. eigenvalues --   -0.95959  -0.93507  -0.93090  -0.83883  -0.82508
 Alpha  occ. eigenvalues --   -0.81975  -0.81233  -0.80462  -0.79362  -0.77891
 Alpha  occ. eigenvalues --   -0.76742  -0.76264  -0.75788  -0.74635  -0.71972
 Alpha  occ. eigenvalues --   -0.70719  -0.70659  -0.69983  -0.68131  -0.67294
 Alpha  occ. eigenvalues --   -0.65055  -0.64877  -0.63691  -0.61748  -0.60403
 Alpha  occ. eigenvalues --   -0.58877  -0.58312  -0.58242  -0.57063  -0.56215
 Alpha  occ. eigenvalues --   -0.55455  -0.55298  -0.54472  -0.54043  -0.53807
 Alpha  occ. eigenvalues --   -0.52315  -0.52059  -0.51160  -0.49766  -0.49684
 Alpha  occ. eigenvalues --   -0.49292  -0.49077  -0.48848  -0.48360  -0.47476
 Alpha  occ. eigenvalues --   -0.47203  -0.46569  -0.46549  -0.45919  -0.45603
 Alpha  occ. eigenvalues --   -0.45163  -0.44991  -0.44935  -0.44124  -0.44051
 Alpha  occ. eigenvalues --   -0.43384  -0.43221  -0.43047  -0.42667  -0.42367
 Alpha  occ. eigenvalues --   -0.42112  -0.41850  -0.41624  -0.41424  -0.41330
 Alpha  occ. eigenvalues --   -0.40441  -0.40381  -0.40302  -0.39618  -0.39537
 Alpha  occ. eigenvalues --   -0.38765  -0.38531  -0.38239  -0.38110  -0.37975
 Alpha  occ. eigenvalues --   -0.37385  -0.37362  -0.36934  -0.36908  -0.36170
 Alpha  occ. eigenvalues --   -0.35961  -0.35481  -0.35169  -0.34271  -0.34075
 Alpha  occ. eigenvalues --   -0.33852  -0.33627  -0.32988  -0.32632  -0.32504
 Alpha  occ. eigenvalues --   -0.32102  -0.30502  -0.29840  -0.29709  -0.29057
 Alpha  occ. eigenvalues --   -0.26914  -0.26411  -0.25567  -0.25488  -0.24876
 Alpha  occ. eigenvalues --   -0.24677  -0.23829  -0.23503  -0.22681  -0.18705
 Alpha virt. eigenvalues --   -0.10768  -0.06295  -0.05431  -0.03516  -0.01039
 Alpha virt. eigenvalues --   -0.00780   0.00113   0.01356   0.01811   0.02335
 Alpha virt. eigenvalues --    0.03230   0.03521   0.03946   0.05719   0.06001

 Mulliken charges:
               1
     1  O   -0.157117
     2  O   -0.130961
     3  O   -0.303273
     4  O   -0.305340
     5  O   -0.261328
     6  O   -0.157486
     7  N   -0.216535
     8  N   -0.217498
     9  N   -0.098157
    10  N   -0.281302
    11  C    0.087068
    12  C    0.071359
    13  C    0.013505
    14  C   -0.108806
    15  C   -0.080762
    16  C    0.071271
    17  C   -0.139820
    18  C    0.027655
    19  C    0.064110
    20  C   -0.107024
    21  C    0.143612
    22  C    0.140289
    23  C    0.002352
    24  C    0.139652
    25  C   -0.048331
    26  C   -0.098875
    27  C    0.094970
    28  C    0.130468
    29  C   -0.090413
    30  C    0.014818
    31  C   -0.044258
    32  C    0.022127
    33  C   -0.022429
    34  C    0.120217
    35  C    0.049732
    36  C   -0.034587
    37  C    0.255848
    38  C    0.080874
    39  C   -0.247070
    40  C    0.168040
    41  C    0.024755
    42  C    0.079426
    43  C   -0.050646
    44  H    0.018958
    45  H    0.000431
    46  H    0.031856
    47  H    0.191408
    48  H    0.127312
    49  H    0.016227
    50  H    0.030071
    51  H   -0.004712
    52  H   -0.008676
    53  H   -0.050662
    54  H    0.023992
    55  H    0.043599
    56  H    0.056964
    57  H    0.033780
    58  H    0.018011
    59  H    0.004726
    60  H    0.112257
    61  H    0.042114
    62  H    0.070253
    63  H   -0.085038
    64  H    0.075664
    65  H    0.066147
    66  H    0.024052
    67  H    0.052196
    68  H    0.037765
    69  H   -0.111253
    70  H   -0.005913
    71  H    0.029540
    72  H    0.173788
    73  H   -0.020919
    74  H    0.040993
    75  H    0.039151
    76  H    0.024074
    77  H    0.250639
    78  H    0.014172
    79  H    0.036902
 Sum of Mulliken charges =  -0.00000

 Dipole moment (field-independent basis, Debye):
    X=             -0.8561    Y=              1.9136    Z=              1.1827  Tot=              2.4069
 Quadrupole moment (field-independent basis, Debye-Ang):
   XX=           -216.5361   YY=           -230.4948   ZZ=           -266.7475
   XY=            -11.7747   XZ=             33.5514   YZ=              7.4620

 Normal termination of Gaussian 16 at Sat Sep 14 08:37:50 2019.
