 Gaussian 16, Revision A.03,
 Gaussian 16:  ES64L-G16RevA.03 25-Dec-2016

 --------------------------
 # td=(NStates=1) B3LYP/SVP
 --------------------------

 --
 TD
 --
 Symbolic Z-matrix:
 Charge =  0 Multiplicity = 1

                         Standard orientation:
 ---------------------------------------------------------------------
 Center     Atomic      Atomic             Coordinates (Angstroms)
 Number     Number       Type             X           Y           Z
 ---------------------------------------------------------------------
      1          8           0        5.535072   -0.185721   -3.315523
      2          8           0       -3.086742   -2.675885    3.268106
      3          8           0       -3.457266   -0.530469    2.919219
      4          8           0       -1.782968    7.028288    1.443545
      5          8           0       -1.044006    7.177524   -0.704960
      6          8           0       -1.741342   -3.886147    0.400882
      7          7           0        2.361653    1.002676    0.603453
      8          7           0        4.484172   -0.521019   -1.251818
      9          7           0       -1.740450    0.566269   -0.482789
     10          7           0       -2.577864   -1.945615   -0.438815
     11          6           0        4.813620   -1.070623    0.050445
     12          6           0        4.396906   -0.307054    1.284915
     13          6           0        2.873372   -0.003006    1.443460
     14          6           0        1.912315   -0.513718    2.191959
     15          6           0        0.748204    0.120998    1.853884
     16          6           0        1.020531    1.034254    0.889940
     17          6           0        6.347391   -1.226151   -0.120753
     18          6           0       -0.688159   -0.046740    2.547037
     19          6           0        6.700958   -0.924704   -1.376170
     20          6           0        0.169957    1.959945    0.219799
     21          6           0       -1.067516    1.824485   -0.454460
     22          6           0        5.520790   -0.397292   -2.173685
     23          6           0       -1.973353    2.825734   -1.025082
     24          6           0        2.244129   -1.517915    3.268672
     25          6           0        7.048617   -1.875639    0.977700
     26          6           0       -3.110313    2.161857   -1.495515
     27          6           0       -1.238907   -1.515361    2.612189
     28          6           0       -2.973941    0.811183   -1.105234
     29          6           0       -1.550349    4.263235   -1.013197
     30          6           0        7.967243   -0.794713   -2.022588
     31          6           0       -1.826593    5.056234    0.245462
     32          6           0       -4.227612    2.824766   -2.096524
     33          6           0       -3.922332   -0.225801   -1.311822
     34          6           0       -2.691480   -1.441698    2.952970
     35          6           0       -3.678460   -1.532808   -1.115812
     36          6           0        9.248692   -0.794269   -1.419607
     37          6           0       -1.493533    6.524984    0.301698
     38          6           0       -4.532692   -2.854478   -1.409129
     39          6           0       -3.831696   -3.870011   -0.892150
     40          6           0       -2.600559   -3.355435   -0.291185
     41          6           0       -5.762202   -2.707851   -2.179216
     42          6           0       -4.130299   -5.320964   -1.031566
     43          6           0       -6.488349   -3.774337   -2.663767
     44          1           0        4.410934   -2.100562    0.280976
     45          1           0        4.904780    0.677293    1.269549
     46          1           0        4.715196   -0.734169    2.170797
     47          1           0        2.783664    1.539741   -0.016276
     48          1           0        3.551964   -0.680757   -1.729862
     49          1           0       -0.625296    0.180523    3.656965
     50          1           0       -1.490939    0.565925    1.901425
     51          1           0        0.348280    3.273856    0.163493
     52          1           0        3.338299   -1.467755    3.571757
     53          1           0        1.493963   -1.269911    4.238860
     54          1           0        2.097996   -2.555740    2.924325
     55          1           0        6.279592   -2.630819    1.126418
     56          1           0        7.036180   -1.179470    1.879759
     57          1           0        8.327920   -2.298039    0.601186
     58          1           0       -1.142449   -2.226276    1.682858
     59          1           0       -0.616099   -2.046054    3.520700
     60          1           0       -1.580952   -0.599366   -0.263853
     61          1           0       -2.133835    4.863212   -1.900799
     62          1           0       -0.543942    4.418561   -1.369174
     63          1           0        7.700761   -0.759953   -3.062570
     64          1           0       -1.358520    4.661159    1.238148
     65          1           0       -2.979466    4.790747    0.496575
     66          1           0       -4.083944    3.992825   -2.134657
     67          1           0       -5.172450    2.855684   -1.321159
     68          1           0       -4.445531    2.290930   -3.058935
     69          1           0       -4.718839    0.201977   -1.874558
     70          1           0        9.547085   -0.678871   -0.355794
     71          1           0       10.192751   -0.794220   -1.746020
     72          1           0       -4.015035   -2.667075    3.441918
     73          1           0       -6.214302   -1.709603   -2.525181
     74          1           0       -5.259578   -5.422942   -0.993931
     75          1           0       -4.060003   -5.579920   -2.118398
     76          1           0       -3.472581   -5.763399   -0.496209
     77          1           0       -1.720111    8.126244    1.526130
     78          1           0       -7.426902   -3.593406   -3.167202
     79          1           0       -6.089445   -4.839907   -2.513645
 ---------------------------------------------------------------------

 SCF Done:  E(RB3LYP) =  -1947.78398147     A.U. after   17 cycles

 Excitation energies and oscillator strengths:

 Excited State   1:      Singlet-A      2.1370 eV  580.19 nm  f=0.3919  <S**2>=0.000
     152 ->156         0.11586
     155 ->156         0.69461
     155 <-156        -0.10048
 This state for optimization and/or second-order correction.
 Total Energy, E(TD-HF/TD-DFT) =  -1947.70544962
 Copying the excited state density for this state as the 1-particle RhoCI density.

 The electronic state is 1-A.
 Alpha  occ. eigenvalues --  -19.21232 -19.15427 -19.12106 -19.11816 -19.10682
 Alpha  occ. eigenvalues --  -19.10345 -14.36962 -14.35666 -14.35417 -14.29286
 Alpha  occ. eigenvalues --  -10.33173 -10.29477 -10.28678 -10.26687 -10.25320
 Alpha  occ. eigenvalues --  -10.24490 -10.24339 -10.23761 -10.23093 -10.23029
 Alpha  occ. eigenvalues --  -10.22679 -10.22317 -10.22232 -10.22104 -10.21969
 Alpha  occ. eigenvalues --  -10.21947 -10.21592 -10.21331 -10.21213 -10.21192
 Alpha  occ. eigenvalues --  -10.20999 -10.20936 -10.20651 -10.20444 -10.19984
 Alpha  occ. eigenvalues --  -10.19631 -10.19543 -10.19091 -10.18672 -10.18580
 Alpha  occ. eigenvalues --  -10.18477 -10.18405 -10.17981  -1.11016  -1.08800
 Alpha  occ. eigenvalues --   -1.06420  -1.01365  -0.99315  -0.99129  -0.97793
 Alpha  occ. eigenvalues --   -0.95718  -0.94501  -0.90967  -0.82571  -0.82375
 Alpha  occ. eigenvalues --   -0.82027  -0.81544  -0.80746  -0.79869  -0.77822
 Alpha  occ. eigenvalues --   -0.77225  -0.75969  -0.75360  -0.74514  -0.72655
 Alpha  occ. eigenvalues --   -0.71094  -0.70518  -0.69839  -0.68614  -0.68228
 Alpha  occ. eigenvalues --   -0.66326  -0.66029  -0.64176  -0.62663  -0.61380
 Alpha  occ. eigenvalues --   -0.60336  -0.59397  -0.58035  -0.57455  -0.56385
 Alpha  occ. eigenvalues --   -0.56037  -0.55171  -0.53960  -0.53761  -0.52936
 Alpha  occ. eigenvalues --   -0.52014  -0.51645  -0.50804  -0.50505  -0.49378
 Alpha  occ. eigenvalues --   -0.48574  -0.48354  -0.48144  -0.47903  -0.47330
 Alpha  occ. eigenvalues --   -0.46863  -0.46648  -0.46436  -0.46076  -0.45730
 Alpha  occ. eigenvalues --   -0.44958  -0.44739  -0.44510  -0.44413  -0.43997
 Alpha  occ. eigenvalues --   -0.43527  -0.43242  -0.42903  -0.42625  -0.42502
 Alpha  occ. eigenvalues --   -0.42482  -0.41796  -0.41691  -0.41316  -0.41057
 Alpha  occ. eigenvalues --   -0.40632  -0.40251  -0.40165  -0.39716  -0.39608
 Alpha  occ. eigenvalues --   -0.39037  -0.38717  -0.38387  -0.38221  -0.38085
 Alpha  occ. eigenvalues --   -0.37570  -0.37323  -0.36663  -0.36536  -0.36348
 Alpha  occ. eigenvalues --   -0.35836  -0.35386  -0.34939  -0.34381  -0.33296
 Alpha  occ. eigenvalues --   -0.33248  -0.32622  -0.31867  -0.31579  -0.31163
 Alpha  occ. eigenvalues --   -0.31019  -0.30614  -0.28163  -0.27747  -0.27554
 Alpha  occ. eigenvalues --   -0.27126  -0.26622  -0.26380  -0.25513  -0.25476
 Alpha  occ. eigenvalues --   -0.24604  -0.23762  -0.23066  -0.22575  -0.19632
 Alpha virt. eigenvalues --   -0.11002  -0.06750  -0.05926  -0.01730  -0.00768
 Alpha virt. eigenvalues --   -0.00457   0.00290   0.00624   0.02314   0.02354
 Alpha virt. eigenvalues --    0.02947   0.03809   0.04163   0.05282   0.05391

 Mulliken charges:
               1
     1  O   -0.153400
     2  O   -0.154631
     3  O   -0.216070
     4  O   -0.187395
     5  O   -0.299963
     6  O   -0.213584
     7  N   -0.018373
     8  N   -0.230001
     9  N   -0.219410
    10  N   -0.344801
    11  C    0.072691
    12  C    0.255530
    13  C   -0.106617
    14  C   -0.099960
    15  C   -0.047316
    16  C    0.063219
    17  C   -0.144093
    18  C    0.032830
    19  C   -0.115432
    20  C   -0.131599
    21  C    0.057987
    22  C    0.149135
    23  C   -0.029728
    24  C    0.033179
    25  C    0.019422
    26  C   -0.084308
    27  C   -0.127277
    28  C    0.053711
    29  C    0.040187
    30  C    0.071682
    31  C   -0.078192
    32  C    0.008348
    33  C   -0.066017
    34  C    0.126155
    35  C    0.138662
    36  C   -0.032851
    37  C    0.168536
    38  C    0.106198
    39  C   -0.243737
    40  C    0.179670
    41  C   -0.065019
    42  C    0.189824
    43  C   -0.048679
    44  H    0.027171
    45  H   -0.016167
    46  H   -0.054183
    47  H    0.056402
    48  H    0.140040
    49  H    0.016404
    50  H    0.065348
    51  H    0.038947
    52  H    0.018961
    53  H    0.044613
    54  H    0.039059
    55  H    0.025395
    56  H    0.051410
    57  H    0.075360
    58  H    0.110515
    59  H    0.039135
    60  H    0.243031
    61  H    0.035978
    62  H    0.024163
    63  H    0.003393
    64  H    0.054547
    65  H    0.060594
    66  H    0.035826
    67  H    0.052326
    68  H    0.053145
    69  H   -0.059455
    70  H    0.012781
    71  H   -0.016511
    72  H    0.151408
    73  H    0.022459
    74  H    0.027843
    75  H    0.025937
    76  H   -0.027662
    77  H    0.260443
    78  H    0.024371
    79  H    0.028465
 Sum of Mulliken charges =  -0.00000

 Dipole moment (field-independent basis, Debye):
    X=             -1.2061    Y=              2.3069    Z=              2.6455  Tot=              3.7115
 Quadrupole moment (field-independent basis, Debye-Ang):
   XX=           -226.2556   YY=           -240.8896   ZZ=           -260.6563
   XY=             -9.0873   XZ=             34.3412   YZ=             16.9216

 Normal termination of Gaussian 16 at Sat Oct  5 00:38:44 2019.
