 Gaussian 16, Revision A.03,
 Gaussian 16:  ES64L-G16RevA.03 25-Dec-2016

 --------------------------
 # td=(NStates=1) B3LYP/SVP
 --------------------------

 --
 TD
 --
 Symbolic Z-matrix:
 Charge =  0 Multiplicity = 1

                         Standard orientation:
 ---------------------------------------------------------------------
 Center     Atomic      Atomic             Coordinates (Angstroms)
 Number     Number       Type             X           Y           Z
 ---------------------------------------------------------------------
      1          8           0       -3.238371   -1.345193   -2.909801
      2          8           0        3.361132    2.956415    2.892425
      3          8           0        3.539988    1.426650    4.591069
      4          8           0        7.731048   -1.553765   -0.920902
      5          8           0        6.626613   -3.173692   -1.930277
      6          8           0       -2.831385    1.674604    1.370985
      7          7           0       -0.318905   -2.468272    0.987791
      8          7           0       -2.696485   -1.133760   -0.646297
      9          7           0        1.144033    0.042067   -0.642894
     10          7           0       -1.023179    1.471733   -0.135864
     11          6           0       -3.447281   -1.271150    0.599984
     12          6           0       -2.737830   -2.233540    1.643041
     13          6           0       -1.226658   -1.982886    1.827483
     14          6           0       -0.609935   -1.186489    2.794538
     15          6           0        0.736254   -1.125877    2.495650
     16          6           0        0.916260   -1.867139    1.354817
     17          6           0       -4.772454   -1.919342    0.226376
     18          6           0        1.845273   -0.419416    3.277640
     19          6           0       -4.755272   -1.986778   -1.145863
     20          6           0        2.072447   -1.928622    0.304488
     21          6           0        2.119239   -0.967667   -0.657938
     22          6           0       -3.465604   -1.476455   -1.697349
     23          6           0        2.976530   -0.692628   -1.771631
     24          6           0       -1.332790   -0.567049    3.974757
     25          6           0       -5.876600   -2.112410    1.316886
     26          6           0        2.564747    0.497268   -2.379743
     27          6           0        1.873662    1.055259    2.903582
     28          6           0        1.389332    0.891081   -1.684586
     29          6           0        4.154667   -1.509941   -2.077967
     30          6           0       -5.764159   -2.507097   -2.138129
     31          6           0        5.491600   -1.077445   -1.289007
     32          6           0        3.227860    1.221443   -3.494501
     33          6           0        0.548761    2.014820   -1.945280
     34          6           0        3.039245    1.809334    3.520833
     35          6           0       -0.537497    2.316585   -1.172463
     36          6           0       -6.795988   -3.324567   -1.895890
     37          6           0        6.592914   -2.033865   -1.466483
     38          6           0       -1.386894    3.513403   -1.304620
     39          6           0       -2.326149    3.516358   -0.221354
     40          6           0       -2.156027    2.066707    0.492015
     41          6           0       -1.203713    4.578305   -2.272151
     42          6           0       -3.453160    4.375663    0.258666
     43          6           0       -1.608185    5.760687   -2.376247
     44          1           0       -3.513921   -0.347857    1.111593
     45          1           0       -2.775317   -3.219193    1.098555
     46          1           0       -3.098469   -2.177932    2.547692
     47          1           0       -0.427425   -3.048112    0.119954
     48          1           0       -1.787080   -0.492379   -0.693443
     49          1           0        1.634989   -0.680459    4.478508
     50          1           0        2.671691   -0.989735    2.873075
     51          1           0        2.848557   -2.667487    0.124249
     52          1           0       -1.959607   -1.089888    4.616201
     53          1           0       -0.800355    0.378354    4.582376
     54          1           0       -2.084637    0.145764    3.305489
     55          1           0       -5.752895   -1.465492    2.235725
     56          1           0       -5.947194   -3.106080    1.792454
     57          1           0       -6.978929   -1.961790    0.702765
     58          1           0        2.040412    1.139461    1.811259
     59          1           0        0.941461    1.851812    3.275484
     60          1           0        0.333700    0.180006    0.132937
     61          1           0        4.429455   -1.334307   -3.150227
     62          1           0        3.923246   -2.618844   -1.923779
     63          1           0       -5.689429   -2.233348   -3.269957
     64          1           0        5.245683   -1.200826   -0.095266
     65          1           0        5.954671   -0.208888   -1.309275
     66          1           0        3.791562    0.587917   -4.235408
     67          1           0        3.789430    2.142439   -3.056948
     68          1           0        2.591433    1.453124   -4.391599
     69          1           0        0.770017    2.541777   -2.805159
     70          1           0       -7.175913   -3.656992   -0.835228
     71          1           0       -7.476176   -3.725741   -2.587962
     72          1           0        4.164938    3.438871    3.359796
     73          1           0       -0.435139    4.429406   -3.108618
     74          1           0       -4.104193    4.542559   -0.375440
     75          1           0       -3.933268    3.931750    1.132471
     76          1           0       -3.224977    5.357625    0.592822
     77          1           0        8.419922   -2.252689   -0.853399
     78          1           0       -1.612659    6.381676   -3.318715
     79          1           0       -2.579608    6.153645   -1.567451
 ---------------------------------------------------------------------

 SCF Done:  E(RB3LYP) =  -1947.79934386     A.U. after   20 cycles

 Excitation energies and oscillator strengths:

 Excited State   1:      Singlet-A      1.2007 eV 1032.61 nm  f=0.0065  <S**2>=0.000
     155 ->156         0.70388
 This state for optimization and/or second-order correction.
 Total Energy, E(TD-HF/TD-DFT) =  -1947.75521939
 Copying the excited state density for this state as the 1-particle RhoCI density.

 The electronic state is 1-A.
 Alpha  occ. eigenvalues --  -19.19140 -19.18686 -19.13200 -19.12882 -19.11537
 Alpha  occ. eigenvalues --  -19.07070 -14.37886 -14.37703 -14.33574 -14.30617
 Alpha  occ. eigenvalues --  -10.33160 -10.31612 -10.28402 -10.26761 -10.25972
 Alpha  occ. eigenvalues --  -10.25307 -10.25080 -10.23786 -10.23722 -10.23543
 Alpha  occ. eigenvalues --  -10.23450 -10.23325 -10.23086 -10.22071 -10.22004
 Alpha  occ. eigenvalues --  -10.21981 -10.21757 -10.21756 -10.21602 -10.21056
 Alpha  occ. eigenvalues --  -10.20771 -10.20751 -10.20393 -10.20078 -10.20061
 Alpha  occ. eigenvalues --  -10.19536 -10.19351 -10.19105 -10.19011 -10.18130
 Alpha  occ. eigenvalues --  -10.17707 -10.17444 -10.17083  -1.10265  -1.08055
 Alpha  occ. eigenvalues --   -1.05422  -0.99919  -0.99630  -0.98993  -0.98566
 Alpha  occ. eigenvalues --   -0.97625  -0.91431  -0.90563  -0.84418  -0.82821
 Alpha  occ. eigenvalues --   -0.81006  -0.80941  -0.79846  -0.79108  -0.78090
 Alpha  occ. eigenvalues --   -0.77009  -0.76223  -0.75988  -0.74625  -0.73437
 Alpha  occ. eigenvalues --   -0.71386  -0.70674  -0.70509  -0.68830  -0.67328
 Alpha  occ. eigenvalues --   -0.67011  -0.65870  -0.63165  -0.61336  -0.60574
 Alpha  occ. eigenvalues --   -0.59210  -0.58713  -0.58380  -0.58085  -0.56698
 Alpha  occ. eigenvalues --   -0.56367  -0.55286  -0.54281  -0.53378  -0.52359
 Alpha  occ. eigenvalues --   -0.51913  -0.51571  -0.51048  -0.50140  -0.49379
 Alpha  occ. eigenvalues --   -0.49160  -0.48487  -0.48361  -0.48213  -0.47609
 Alpha  occ. eigenvalues --   -0.47266  -0.47019  -0.46830  -0.46084  -0.45531
 Alpha  occ. eigenvalues --   -0.45372  -0.45310  -0.44802  -0.44605  -0.44296
 Alpha  occ. eigenvalues --   -0.43656  -0.43582  -0.42972  -0.42627  -0.42306
 Alpha  occ. eigenvalues --   -0.42141  -0.41864  -0.41626  -0.41227  -0.41031
 Alpha  occ. eigenvalues --   -0.40585  -0.40417  -0.39969  -0.39870  -0.39731
 Alpha  occ. eigenvalues --   -0.39689  -0.39454  -0.38880  -0.38489  -0.38463
 Alpha  occ. eigenvalues --   -0.37489  -0.37216  -0.36886  -0.36722  -0.36429
 Alpha  occ. eigenvalues --   -0.36238  -0.35385  -0.34877  -0.34607  -0.34161
 Alpha  occ. eigenvalues --   -0.32754  -0.32631  -0.32418  -0.31845  -0.31548
 Alpha  occ. eigenvalues --   -0.31381  -0.29709  -0.29450  -0.29237  -0.28846
 Alpha  occ. eigenvalues --   -0.27699  -0.26780  -0.24744  -0.24477  -0.24065
 Alpha  occ. eigenvalues --   -0.23282  -0.22910  -0.22626  -0.22194  -0.19679
 Alpha virt. eigenvalues --   -0.12752  -0.07429  -0.03825  -0.02084  -0.00897
 Alpha virt. eigenvalues --   -0.00051   0.01611   0.02429   0.02656   0.03076
 Alpha virt. eigenvalues --    0.03349   0.04332   0.04550   0.04640   0.04996

 Mulliken charges:
               1
     1  O   -0.266827
     2  O   -0.222099
     3  O   -0.263392
     4  O   -0.203351
     5  O   -0.243573
     6  O   -0.163067
     7  N   -0.059632
     8  N   -0.227954
     9  N   -0.164741
    10  N   -0.405567
    11  C    0.066311
    12  C    0.297517
    13  C   -0.158053
    14  C   -0.068688
    15  C   -0.109295
    16  C   -0.043871
    17  C   -0.094424
    18  C    0.125062
    19  C   -0.067187
    20  C   -0.093427
    21  C    0.102762
    22  C    0.142596
    23  C   -0.035090
    24  C   -0.024331
    25  C    0.007813
    26  C   -0.099496
    27  C   -0.027526
    28  C    0.119898
    29  C    0.074442
    30  C   -0.006973
    31  C    0.037141
    32  C    0.040415
    33  C   -0.087598
    34  C    0.129679
    35  C    0.197573
    36  C   -0.068175
    37  C    0.114892
    38  C    0.081392
    39  C   -0.234484
    40  C    0.195361
    41  C    0.010445
    42  C    0.225220
    43  C   -0.138546
    44  H    0.032121
    45  H   -0.025826
    46  H   -0.064091
    47  H    0.141548
    48  H    0.175507
    49  H    0.058432
    50  H   -0.002101
    51  H   -0.014240
    52  H    0.015705
    53  H    0.029663
    54  H    0.047746
    55  H    0.035977
    56  H    0.033287
    57  H    0.063641
    58  H    0.025157
    59  H    0.089139
    60  H    0.253735
    61  H    0.024839
    62  H    0.054441
    63  H    0.039475
    64  H    0.069362
    65  H   -0.012636
    66  H    0.022289
    67  H    0.070935
    68  H    0.034842
    69  H   -0.063834
    70  H    0.013580
    71  H    0.005882
    72  H    0.222155
    73  H    0.002784
    74  H   -0.043751
    75  H    0.010881
    76  H    0.009035
    77  H    0.195208
    78  H    0.042597
    79  H    0.015367
 Sum of Mulliken charges =  -0.00000

 Dipole moment (field-independent basis, Debye):
    X=              4.4274    Y=              2.4474    Z=             -0.7632  Tot=              5.1160
 Quadrupole moment (field-independent basis, Debye-Ang):
   XX=           -232.9645   YY=           -243.3284   ZZ=           -268.7371
   XY=              8.6430   XZ=            -24.5651   YZ=            -13.5993

 Normal termination of Gaussian 16 at Sun Jul 28 19:41:30 2019.
