 Gaussian 16, Revision A.03,
 Gaussian 16:  ES64L-G16RevA.03 25-Dec-2016

 --------------------------
 # td=(NStates=1) B3LYP/SVP
 --------------------------

 --
 TD
 --
 Symbolic Z-matrix:
 Charge =  0 Multiplicity = 1

                         Standard orientation:
 ---------------------------------------------------------------------
 Center     Atomic      Atomic             Coordinates (Angstroms)
 Number     Number       Type             X           Y           Z
 ---------------------------------------------------------------------
      1          8           0        5.409997    0.091952   -3.370801
      2          8           0       -2.975776   -3.163460    3.214362
      3          8           0       -3.255159   -0.898097    3.194550
      4          8           0       -1.605207    7.186297    1.606081
      5          8           0       -0.725198    7.099953   -0.491992
      6          8           0       -1.837411   -3.982156    0.006380
      7          7           0        2.301906    0.808032    0.564310
      8          7           0        4.387897   -0.619554   -1.290467
      9          7           0       -1.802648    0.686354   -0.331947
     10          7           0       -2.597877   -1.827193   -0.604211
     11          6           0        4.870510   -1.171128   -0.080601
     12          6           0        4.438355   -0.440934    1.176453
     13          6           0        2.936801   -0.090790    1.287662
     14          6           0        1.988486   -0.779263    2.098348
     15          6           0        0.682473   -0.017434    1.859685
     16          6           0        0.920882    0.870100    0.853584
     17          6           0        6.318691   -1.230815   -0.173964
     18          6           0       -0.626238   -0.400780    2.515689
     19          6           0        6.709537   -0.823931   -1.360718
     20          6           0        0.156577    1.941323    0.228682
     21          6           0       -1.069421    1.874619   -0.258844
     22          6           0        5.387799   -0.437596   -2.262701
     23          6           0       -2.014967    2.907516   -0.783175
     24          6           0        2.134621   -1.910854    3.033685
     25          6           0        7.235776   -1.963770    0.905136
     26          6           0       -3.233810    2.307228   -1.070794
     27          6           0       -1.159686   -1.785062    2.453754
     28          6           0       -3.061926    0.927430   -0.879450
     29          6           0       -1.493037    4.329427   -0.955965
     30          6           0        7.980107   -0.641469   -2.002276
     31          6           0       -1.585784    4.987394    0.477808
     32          6           0       -4.319888    3.109022   -1.753507
     33          6           0       -4.030939   -0.062086   -1.228614
     34          6           0       -2.564827   -1.822671    2.998024
     35          6           0       -3.750673   -1.343852   -1.029167
     36          6           0        9.172828   -0.604577   -1.288728
     37          6           0       -1.247510    6.532772    0.450562
     38          6           0       -4.589333   -2.513050   -1.541611
     39          6           0       -3.909127   -3.643823   -1.104024
     40          6           0       -2.678574   -3.211983   -0.504774
     41          6           0       -5.889156   -2.301632   -2.141990
     42          6           0       -4.226073   -5.104859   -1.478234
     43          6           0       -6.777476   -3.233654   -2.593507
     44          1           0        4.435388   -2.182125   -0.152214
     45          1           0        5.048241    0.349603    1.372155
     46          1           0        4.697840   -1.013271    1.958445
     47          1           0        2.804632    1.209572   -0.077101
     48          1           0        3.393876   -0.711845   -1.824631
     49          1           0       -0.539336    0.047417    3.578466
     50          1           0       -1.393997    0.254450    1.987959
     51          1           0        0.791149    2.933341    0.000449
     52          1           0        3.039128   -2.107869    3.228938
     53          1           0        1.941839   -1.578833    4.187805
     54          1           0        1.500270   -2.900377    2.838481
     55          1           0        6.524357   -2.626422    1.684251
     56          1           0        7.955336   -1.210778    1.522643
     57          1           0        7.859125   -2.774901    0.475142
     58          1           0       -1.469517   -2.264235    1.378133
     59          1           0       -0.708125   -2.749879    3.012739
     60          1           0       -1.567481   -0.215238   -0.249262
     61          1           0       -1.883445    4.915229   -1.797539
     62          1           0       -0.445161    4.150780   -1.371653
     63          1           0        7.854100   -0.553512   -3.136396
     64          1           0       -1.107844    4.620251    1.279253
     65          1           0       -2.587314    4.979570    0.849927
     66          1           0       -3.959043    4.315268   -1.967407
     67          1           0       -5.261267    3.143987   -0.968013
     68          1           0       -4.521802    2.682200   -2.751685
     69          1           0       -4.859269    0.179167   -1.980641
     70          1           0        9.063600   -0.611946   -0.108871
     71          1           0        9.960944   -0.241183   -1.788929
     72          1           0       -3.947155   -3.128624    3.359420
     73          1           0       -6.382281   -1.350333   -2.406783
     74          1           0       -5.153723   -5.373635   -0.857840
     75          1           0       -4.376363   -5.230718   -2.518246
     76          1           0       -3.270724   -5.522732   -1.143305
     77          1           0       -1.381105    8.138613    1.574339
     78          1           0       -7.631180   -2.757462   -3.192137
     79          1           0       -6.768615   -4.327833   -2.706899
 ---------------------------------------------------------------------

 SCF Done:  E(RB3LYP) =  -1947.80679362     A.U. after   17 cycles

 Excitation energies and oscillator strengths:

 Excited State   1:      Singlet-A      2.0331 eV  609.82 nm  f=0.2506  <S**2>=0.000
     153 ->156         0.14484
     154 ->156         0.27803
     155 ->156         0.62440
 This state for optimization and/or second-order correction.
 Total Energy, E(TD-HF/TD-DFT) =  -1947.73207791
 Copying the excited state density for this state as the 1-particle RhoCI density.

 The electronic state is 1-A.
 Alpha  occ. eigenvalues --  -19.19112 -19.14880 -19.13747 -19.12101 -19.11263
 Alpha  occ. eigenvalues --  -19.10110 -14.37379 -14.37316 -14.36722 -14.28258
 Alpha  occ. eigenvalues --  -10.33428 -10.29995 -10.29481 -10.25920 -10.25894
 Alpha  occ. eigenvalues --  -10.24893 -10.24812 -10.23972 -10.23593 -10.23338
 Alpha  occ. eigenvalues --  -10.23301 -10.23251 -10.22899 -10.22784 -10.22155
 Alpha  occ. eigenvalues --  -10.22016 -10.21583 -10.21569 -10.20668 -10.20655
 Alpha  occ. eigenvalues --  -10.20423 -10.20073 -10.19976 -10.19904 -10.19879
 Alpha  occ. eigenvalues --  -10.19749 -10.19641 -10.19350 -10.19305 -10.19067
 Alpha  occ. eigenvalues --  -10.19067 -10.19043 -10.18326  -1.09332  -1.07022
 Alpha  occ. eigenvalues --   -1.02656  -1.00984  -1.00051  -0.99915  -0.98910
 Alpha  occ. eigenvalues --   -0.98630  -0.95578  -0.92213  -0.83435  -0.83081
 Alpha  occ. eigenvalues --   -0.82199  -0.80730  -0.80399  -0.79661  -0.78424
 Alpha  occ. eigenvalues --   -0.77742  -0.76353  -0.75341  -0.74491  -0.73264
 Alpha  occ. eigenvalues --   -0.71537  -0.69731  -0.69692  -0.69382  -0.68713
 Alpha  occ. eigenvalues --   -0.67041  -0.66964  -0.64965  -0.61687  -0.61388
 Alpha  occ. eigenvalues --   -0.60988  -0.58894  -0.57917  -0.57317  -0.57110
 Alpha  occ. eigenvalues --   -0.56706  -0.56237  -0.55154  -0.53971  -0.53174
 Alpha  occ. eigenvalues --   -0.52532  -0.52092  -0.50716  -0.50479  -0.49472
 Alpha  occ. eigenvalues --   -0.48628  -0.48403  -0.48168  -0.47944  -0.47321
 Alpha  occ. eigenvalues --   -0.46884  -0.46645  -0.46289  -0.46074  -0.45789
 Alpha  occ. eigenvalues --   -0.45189  -0.44255  -0.44067  -0.43713  -0.43477
 Alpha  occ. eigenvalues --   -0.43332  -0.43210  -0.42628  -0.42537  -0.42168
 Alpha  occ. eigenvalues --   -0.41930  -0.41735  -0.41488  -0.41257  -0.41081
 Alpha  occ. eigenvalues --   -0.40893  -0.40766  -0.40389  -0.40002  -0.39943
 Alpha  occ. eigenvalues --   -0.39585  -0.39458  -0.39280  -0.38800  -0.38762
 Alpha  occ. eigenvalues --   -0.38705  -0.37831  -0.37603  -0.37163  -0.36497
 Alpha  occ. eigenvalues --   -0.36093  -0.36026  -0.35233  -0.35135  -0.34289
 Alpha  occ. eigenvalues --   -0.33651  -0.33308  -0.32541  -0.32217  -0.31705
 Alpha  occ. eigenvalues --   -0.31148  -0.30500  -0.29429  -0.29031  -0.27320
 Alpha  occ. eigenvalues --   -0.26683  -0.26635  -0.26274  -0.26224  -0.24849
 Alpha  occ. eigenvalues --   -0.23985  -0.23723  -0.23006  -0.21862  -0.20132
 Alpha virt. eigenvalues --   -0.11523  -0.06833  -0.05887  -0.00538  -0.00426
 Alpha virt. eigenvalues --    0.00007   0.01318   0.02144   0.02486   0.02745
 Alpha virt. eigenvalues --    0.03202   0.03626   0.04063   0.04466   0.05250

 Mulliken charges:
               1
     1  O   -0.222186
     2  O   -0.251061
     3  O   -0.186844
     4  O   -0.211848
     5  O   -0.226006
     6  O   -0.249900
     7  N    0.046013
     8  N   -0.281685
     9  N   -0.027553
    10  N   -0.291698
    11  C    0.136713
    12  C    0.354330
    13  C   -0.160434
    14  C   -0.150095
    15  C   -0.082424
    16  C    0.040606
    17  C   -0.161578
    18  C    0.101862
    19  C   -0.087865
    20  C   -0.124285
    21  C    0.139228
    22  C    0.173676
    23  C   -0.091441
    24  C    0.137885
    25  C   -0.033770
    26  C   -0.106901
    27  C   -0.090069
    28  C    0.120140
    29  C    0.094132
    30  C   -0.040084
    31  C    0.079812
    32  C   -0.016019
    33  C   -0.155193
    34  C    0.111070
    35  C    0.108923
    36  C    0.008708
    37  C    0.132322
    38  C    0.090222
    39  C   -0.216788
    40  C    0.167658
    41  C   -0.033178
    42  C    0.101991
    43  C   -0.092826
    44  H    0.012630
    45  H   -0.047774
    46  H   -0.069481
    47  H    0.042943
    48  H    0.181073
    49  H    0.025511
    50  H    0.017450
    51  H    0.034761
    52  H   -0.090957
    53  H    0.009760
    54  H    0.067713
    55  H    0.040757
    56  H    0.071373
    57  H    0.055602
    58  H    0.118302
    59  H    0.053785
    60  H    0.081208
    61  H    0.024426
    62  H    0.031136
    63  H    0.033212
    64  H    0.005852
    65  H    0.022590
    66  H    0.050300
    67  H    0.063846
    68  H    0.050430
    69  H    0.015442
    70  H    0.036405
    71  H   -0.001144
    72  H    0.174397
    73  H    0.001248
    74  H    0.039294
    75  H    0.023655
    76  H    0.031384
    77  H    0.192569
    78  H    0.023250
    79  H    0.023495
 Sum of Mulliken charges =  -0.00000

 Dipole moment (field-independent basis, Debye):
    X=              0.4087    Y=              3.5870    Z=              1.2413  Tot=              3.8177
 Quadrupole moment (field-independent basis, Debye-Ang):
   XX=           -227.9160   YY=           -249.3156   ZZ=           -262.6434
   XY=            -15.1390   XZ=             34.3200   YZ=              9.5871

 Normal termination of Gaussian 16 at Fri Sep 20 13:36:00 2019.
