 Gaussian 16, Revision A.03,
 Gaussian 16:  ES64L-G16RevA.03 25-Dec-2016

 --------------------------
 # td=(NStates=1) B3LYP/SVP
 --------------------------

 --
 TD
 --
 Symbolic Z-matrix:
 Charge =  0 Multiplicity = 1

                         Standard orientation:
 ---------------------------------------------------------------------
 Center     Atomic      Atomic             Coordinates (Angstroms)
 Number     Number       Type             X           Y           Z
 ---------------------------------------------------------------------
      1          8           0       -3.292286   -1.693770   -2.794729
      2          8           0        3.091257    3.407570    2.970334
      3          8           0        3.694829    1.758980    4.459125
      4          8           0        7.518830   -1.804015   -0.251219
      5          8           0        6.823447   -2.929290   -2.364511
      6          8           0       -2.713851    1.710890    1.346535
      7          7           0       -0.250805   -2.158697    1.070928
      8          7           0       -2.649518   -1.287203   -0.496778
      9          7           0        1.091272    0.086024   -0.769981
     10          7           0       -1.137939    1.446643   -0.309390
     11          6           0       -3.377044   -1.302449    0.715363
     12          6           0       -2.594896   -2.266136    1.847295
     13          6           0       -1.200132   -1.870156    2.008467
     14          6           0       -0.495490   -0.941291    2.978951
     15          6           0        0.788383   -0.897947    2.519195
     16          6           0        0.990287   -1.664212    1.421394
     17          6           0       -4.759881   -1.750151    0.383563
     18          6           0        1.864311   -0.033125    3.124621
     19          6           0       -4.791458   -2.119486   -0.894116
     20          6           0        2.127796   -1.806297    0.488912
     21          6           0        2.098570   -0.931181   -0.563845
     22          6           0       -3.420851   -1.653306   -1.560337
     23          6           0        3.008557   -0.745288   -1.673879
     24          6           0       -1.204170   -0.094824    3.965128
     25          6           0       -5.711598   -2.054330    1.383531
     26          6           0        2.550819    0.268342   -2.444684
     27          6           0        1.995669    1.372591    2.606397
     28          6           0        1.328787    0.772815   -1.858588
     29          6           0        4.226099   -1.702654   -1.869336
     30          6           0       -5.908811   -2.669865   -1.711035
     31          6           0        5.518217   -1.225092   -1.148667
     32          6           0        3.135464    0.684650   -3.739145
     33          6           0        0.485577    1.865080   -2.108160
     34          6           0        3.023936    2.073676    3.479646
     35          6           0       -0.682821    2.123361   -1.357892
     36          6           0       -6.888896   -3.419065   -1.298172
     37          6           0        6.664966   -2.086204   -1.423055
     38          6           0       -1.443454    3.382900   -1.647500
     39          6           0       -2.335110    3.268512   -0.570303
     40          6           0       -2.169163    2.143988    0.285405
     41          6           0       -1.126505    4.415556   -2.517922
     42          6           0       -3.460982    4.298873   -0.179685
     43          6           0       -2.051774    5.423635   -2.863809
     44          1           0       -3.388498   -0.268347    1.177313
     45          1           0       -2.630167   -3.304129    1.368665
     46          1           0       -3.235663   -2.320215    2.810962
     47          1           0       -0.623792   -2.742096    0.327223
     48          1           0       -1.988397   -0.566923   -0.635774
     49          1           0        1.506629    0.012323    4.277736
     50          1           0        2.898527   -0.822281    2.987112
     51          1           0        2.891338   -2.529683    0.578162
     52          1           0       -2.338266   -0.591781    4.229362
     53          1           0       -0.615273    0.240983    5.066780
     54          1           0       -1.713985    0.604369    3.469063
     55          1           0       -5.478442   -1.452173    2.069286
     56          1           0       -5.563051   -2.993911    1.686429
     57          1           0       -6.720933   -1.837219    1.080307
     58          1           0        2.381278    1.475738    1.534300
     59          1           0        1.200189    1.802649    2.939836
     60          1           0        0.099286    0.031374   -0.252226
     61          1           0        4.441760   -1.761621   -3.104105
     62          1           0        3.995006   -2.715613   -1.539803
     63          1           0       -5.833514   -2.570408   -2.684460
     64          1           0        5.492820   -1.005934   -0.028716
     65          1           0        5.897254   -0.327084   -1.615549
     66          1           0        3.681021   -0.255375   -4.103837
     67          1           0        3.880537    1.439260   -3.614642
     68          1           0        2.200774    1.095702   -4.466526
     69          1           0        0.759155    2.601435   -2.889917
     70          1           0       -7.015368   -3.821917   -0.282465
     71          1           0       -7.674506   -3.742688   -1.794969
     72          1           0        3.843777    3.821792    3.263634
     73          1           0       -0.205755    4.216714   -3.187813
     74          1           0       -4.338073    4.243374   -0.837160
     75          1           0       -3.738762    4.238438    0.912557
     76          1           0       -2.876069    5.259025   -0.161279
     77          1           0        8.304095   -2.400367   -0.654747
     78          1           0       -1.812880    6.144356   -3.534288
     79          1           0       -3.137333    5.426411   -2.444608
 ---------------------------------------------------------------------

 SCF Done:  E(RB3LYP) =  -1947.74200033     A.U. after   19 cycles

 Excitation energies and oscillator strengths:

 Excited State   1:      Singlet-A      0.9391 eV 1320.20 nm  f=0.0051  <S**2>=0.000
     155 ->156         0.70373
 This state for optimization and/or second-order correction.
 Total Energy, E(TD-HF/TD-DFT) =  -1947.70748787
 Copying the excited state density for this state as the 1-particle RhoCI density.

 The electronic state is 1-A.
 Alpha  occ. eigenvalues --  -19.20377 -19.16719 -19.15788 -19.13541 -19.11967
 Alpha  occ. eigenvalues --  -19.08887 -14.38116 -14.37652 -14.34072 -14.30434
 Alpha  occ. eigenvalues --  -10.35102 -10.32287 -10.27851 -10.27419 -10.26813
 Alpha  occ. eigenvalues --  -10.25876 -10.24993 -10.24697 -10.23326 -10.23319
 Alpha  occ. eigenvalues --  -10.23244 -10.23045 -10.22889 -10.22764 -10.22326
 Alpha  occ. eigenvalues --  -10.21784 -10.21499 -10.21341 -10.21253 -10.21194
 Alpha  occ. eigenvalues --  -10.21109 -10.21102 -10.21087 -10.20226 -10.19594
 Alpha  occ. eigenvalues --  -10.19560 -10.18318 -10.17641 -10.17398 -10.17194
 Alpha  occ. eigenvalues --  -10.16866 -10.16461 -10.15613  -1.07248  -1.06921
 Alpha  occ. eigenvalues --   -1.01257  -1.00537  -1.00449  -0.99867  -0.99579
 Alpha  occ. eigenvalues --   -0.97645  -0.93955  -0.93673  -0.84657  -0.82999
 Alpha  occ. eigenvalues --   -0.82105  -0.81763  -0.81654  -0.80616  -0.78450
 Alpha  occ. eigenvalues --   -0.77719  -0.77054  -0.75946  -0.74703  -0.73268
 Alpha  occ. eigenvalues --   -0.71162  -0.70796  -0.70285  -0.69697  -0.67362
 Alpha  occ. eigenvalues --   -0.66632  -0.66384  -0.63850  -0.62297  -0.60687
 Alpha  occ. eigenvalues --   -0.60408  -0.59378  -0.58410  -0.57559  -0.56602
 Alpha  occ. eigenvalues --   -0.56338  -0.56013  -0.55130  -0.53639  -0.53065
 Alpha  occ. eigenvalues --   -0.52513  -0.51972  -0.51055  -0.50354  -0.50197
 Alpha  occ. eigenvalues --   -0.49867  -0.49430  -0.48912  -0.48486  -0.48216
 Alpha  occ. eigenvalues --   -0.47962  -0.47090  -0.46740  -0.46362  -0.45854
 Alpha  occ. eigenvalues --   -0.45582  -0.45262  -0.44880  -0.44667  -0.44310
 Alpha  occ. eigenvalues --   -0.44040  -0.43794  -0.43530  -0.43071  -0.42745
 Alpha  occ. eigenvalues --   -0.42399  -0.42000  -0.41851  -0.41697  -0.41377
 Alpha  occ. eigenvalues --   -0.41134  -0.40878  -0.40343  -0.40219  -0.39914
 Alpha  occ. eigenvalues --   -0.39604  -0.39387  -0.39088  -0.38853  -0.38527
 Alpha  occ. eigenvalues --   -0.38301  -0.37671  -0.37110  -0.36502  -0.36389
 Alpha  occ. eigenvalues --   -0.36215  -0.35483  -0.35106  -0.34786  -0.34296
 Alpha  occ. eigenvalues --   -0.34077  -0.33816  -0.32989  -0.32526  -0.31908
 Alpha  occ. eigenvalues --   -0.31091  -0.30922  -0.30077  -0.29856  -0.28443
 Alpha  occ. eigenvalues --   -0.28203  -0.27903  -0.25926  -0.25572  -0.23939
 Alpha  occ. eigenvalues --   -0.23615  -0.23239  -0.22669  -0.22457  -0.18949
 Alpha virt. eigenvalues --   -0.13161  -0.08546  -0.04349  -0.03177  -0.02765
 Alpha virt. eigenvalues --   -0.00575   0.00947   0.01165   0.02216   0.02803
 Alpha virt. eigenvalues --    0.03113   0.03759   0.04196   0.04611   0.05254

 Mulliken charges:
               1
     1  O   -0.253916
     2  O   -0.222523
     3  O   -0.213788
     4  O   -0.288463
     5  O   -0.253679
     6  O   -0.244546
     7  N   -0.068062
     8  N   -0.158621
     9  N   -0.140260
    10  N   -0.292436
    11  C    0.033636
    12  C    0.096245
    13  C   -0.100823
    14  C   -0.079449
    15  C   -0.059046
    16  C    0.008744
    17  C   -0.229105
    18  C   -0.071249
    19  C   -0.078807
    20  C   -0.070069
    21  C    0.106488
    22  C    0.144470
    23  C   -0.031059
    24  C    0.067631
    25  C    0.310652
    26  C   -0.132201
    27  C    0.195911
    28  C    0.130029
    29  C    0.022053
    30  C    0.080180
    31  C    0.037072
    32  C    0.059128
    33  C   -0.141761
    34  C    0.117866
    35  C    0.108654
    36  C    0.007067
    37  C    0.186395
    38  C    0.064050
    39  C   -0.225903
    40  C    0.198960
    41  C   -0.069079
    42  C    0.053507
    43  C    0.000320
    44  H    0.067967
    45  H   -0.007322
    46  H    0.026268
    47  H    0.114631
    48  H    0.124897
    49  H    0.036489
    50  H    0.025080
    51  H   -0.009372
    52  H   -0.010960
    53  H    0.050862
    54  H   -0.008395
    55  H   -0.073677
    56  H   -0.001530
    57  H    0.015138
    58  H    0.065094
    59  H   -0.023296
    60  H    0.240408
    61  H    0.061740
    62  H    0.031417
    63  H   -0.059765
    64  H    0.074161
    65  H    0.036473
    66  H    0.033529
    67  H    0.029063
    68  H    0.063523
    69  H   -0.023710
    70  H   -0.003485
    71  H   -0.031305
    72  H    0.140933
    73  H    0.027638
    74  H    0.053628
    75  H    0.027540
    76  H    0.027602
    77  H    0.210121
    78  H    0.002453
    79  H    0.061948
 Sum of Mulliken charges =  -0.00000

 Dipole moment (field-independent basis, Debye):
    X=              3.8777    Y=              2.3357    Z=             -2.3748  Tot=              5.1119
 Quadrupole moment (field-independent basis, Debye-Ang):
   XX=           -237.3619   YY=           -239.7435   ZZ=           -275.0202
   XY=              1.8207   XZ=            -22.2955   YZ=            -21.3583

 Normal termination of Gaussian 16 at Sat Jul 27 21:05:11 2019.
