 Gaussian 16, Revision A.03,
 Gaussian 16:  ES64L-G16RevA.03 25-Dec-2016

 --------------------------
 # td=(NStates=1) B3LYP/SVP
 --------------------------

 --
 TD
 --
 Symbolic Z-matrix:
 Charge =  0 Multiplicity = 1

                         Standard orientation:
 ---------------------------------------------------------------------
 Center     Atomic      Atomic             Coordinates (Angstroms)
 Number     Number       Type             X           Y           Z
 ---------------------------------------------------------------------
      1          8           0       -3.212618   -1.661610   -2.639279
      2          8           0        2.900048    3.524925    2.748026
      3          8           0        3.610341    1.981744    4.259869
      4          8           0        7.684747   -1.650516   -0.371247
      5          8           0        6.927162   -2.932403   -2.102704
      6          8           0       -2.538410    1.712458    1.281239
      7          7           0       -0.313626   -2.247918    1.281395
      8          7           0       -2.636704   -1.309754   -0.430890
      9          7           0        1.116350   -0.045739   -0.685330
     10          7           0       -0.927376    1.361587   -0.323132
     11          6           0       -3.378083   -1.231040    0.772934
     12          6           0       -2.750869   -2.218103    1.936746
     13          6           0       -1.312620   -1.796934    2.158670
     14          6           0       -0.690879   -0.814203    2.952959
     15          6           0        0.657189   -0.842707    2.589387
     16          6           0        0.873641   -1.718015    1.564791
     17          6           0       -4.777196   -1.717897    0.426495
     18          6           0        1.791928    0.063475    3.214866
     19          6           0       -4.741956   -2.066940   -0.931320
     20          6           0        2.009511   -1.864292    0.609506
     21          6           0        2.141297   -1.055028   -0.507271
     22          6           0       -3.435077   -1.635801   -1.514103
     23          6           0        3.032154   -1.074993   -1.618297
     24          6           0       -1.431956    0.072137    3.873520
     25          6           0       -5.824461   -1.782772    1.433225
     26          6           0        2.591804    0.097837   -2.398491
     27          6           0        1.792065    1.503433    2.671846
     28          6           0        1.426644    0.646420   -1.860409
     29          6           0        4.285999   -1.820002   -1.765054
     30          6           0       -5.900404   -2.586851   -1.808253
     31          6           0        5.412910   -1.276942   -0.920897
     32          6           0        3.246243    0.561127   -3.696305
     33          6           0        0.586314    1.663396   -2.245255
     34          6           0        2.920547    2.344067    3.352029
     35          6           0       -0.518959    2.024516   -1.423444
     36          6           0       -7.025661   -3.277749   -1.536211
     37          6           0        6.750316   -2.033198   -1.138701
     38          6           0       -1.387920    3.225845   -1.634869
     39          6           0       -2.228733    3.277326   -0.666285
     40          6           0       -1.877979    2.052038    0.192353
     41          6           0       -1.252860    4.059540   -2.896055
     42          6           0       -3.299106    4.358133   -0.247467
     43          6           0       -1.846562    5.227167   -3.208254
     44          1           0       -3.440037   -0.168363    1.123411
     45          1           0       -3.058976   -3.107925    1.728868
     46          1           0       -3.379352   -2.070621    2.974890
     47          1           0       -0.315427   -2.861247    0.348569
     48          1           0       -1.955744   -0.662134   -0.581774
     49          1           0        1.771315   -0.010163    4.443436
     50          1           0        2.844145   -0.253444    2.974724
     51          1           0        2.596227   -2.690655    0.841234
     52          1           0       -2.036392   -0.720665    4.480328
     53          1           0       -0.760675    0.605834    4.601829
     54          1           0       -2.231689    0.766646    3.423993
     55          1           0       -5.555371   -1.120794    2.251525
     56          1           0       -5.768799   -2.863789    1.935393
     57          1           0       -6.749184   -1.581303    0.882102
     58          1           0        2.026676    1.401416    1.637268
     59          1           0        0.770987    1.926468    2.915810
     60          1           0        0.467367    0.239562   -0.183844
     61          1           0        4.533944   -1.679246   -2.801260
     62          1           0        4.043477   -2.877620   -1.502997
     63          1           0       -5.568158   -2.317269   -2.972298
     64          1           0        5.176794   -1.285323    0.080213
     65          1           0        5.736943   -0.208002   -1.203834
     66          1           0        3.931489   -0.552242   -3.995223
     67          1           0        3.811265    1.511055   -3.344426
     68          1           0        2.548467    0.762212   -4.458935
     69          1           0        0.748644    2.112941   -3.177210
     70          1           0       -7.518225   -3.436896   -0.639820
     71          1           0       -7.545968   -3.745051   -2.305573
     72          1           0        3.566341    4.149449    3.211752
     73          1           0       -0.499784    3.669019   -3.545241
     74          1           0       -4.123476    4.426711   -1.194080
     75          1           0       -4.055418    3.844079    0.507191
     76          1           0       -3.033030    5.453348    0.083199
     77          1           0        8.344145   -2.305715   -0.600077
     78          1           0       -1.604403    5.705526   -4.257535
     79          1           0       -2.382473    5.662250   -2.377446
 ---------------------------------------------------------------------

 SCF Done:  E(RB3LYP) =  -1947.79018539     A.U. after   20 cycles

 Excitation energies and oscillator strengths:

 Excited State   1:      Singlet-A      0.8260 eV 1500.98 nm  f=0.0002  <S**2>=0.000
     155 ->156         0.70293
 This state for optimization and/or second-order correction.
 Total Energy, E(TD-HF/TD-DFT) =  -1947.75982956
 Copying the excited state density for this state as the 1-particle RhoCI density.

 The electronic state is 1-A.
 Alpha  occ. eigenvalues --  -19.22920 -19.18986 -19.13480 -19.12660 -19.10716
 Alpha  occ. eigenvalues --  -19.08562 -14.36759 -14.36325 -14.31671 -14.31024
 Alpha  occ. eigenvalues --  -10.34757 -10.31499 -10.27560 -10.26789 -10.26467
 Alpha  occ. eigenvalues --  -10.25963 -10.25899 -10.24402 -10.24241 -10.23893
 Alpha  occ. eigenvalues --  -10.23582 -10.23383 -10.22750 -10.22586 -10.21222
 Alpha  occ. eigenvalues --  -10.21100 -10.20887 -10.20785 -10.20773 -10.20598
 Alpha  occ. eigenvalues --  -10.20338 -10.19932 -10.19877 -10.19602 -10.19591
 Alpha  occ. eigenvalues --  -10.19574 -10.19367 -10.19081 -10.17804 -10.17641
 Alpha  occ. eigenvalues --  -10.16846 -10.16467 -10.16428  -1.16000  -1.09806
 Alpha  occ. eigenvalues --   -1.04470  -1.01317  -1.00751  -0.99185  -0.97286
 Alpha  occ. eigenvalues --   -0.96686  -0.93395  -0.92989  -0.85778  -0.83062
 Alpha  occ. eigenvalues --   -0.81751  -0.80532  -0.79586  -0.78725  -0.78300
 Alpha  occ. eigenvalues --   -0.76200  -0.75458  -0.74993  -0.74269  -0.73244
 Alpha  occ. eigenvalues --   -0.72015  -0.70088  -0.69792  -0.69098  -0.67341
 Alpha  occ. eigenvalues --   -0.65939  -0.64928  -0.63889  -0.63141  -0.60899
 Alpha  occ. eigenvalues --   -0.60485  -0.59183  -0.58949  -0.57916  -0.57298
 Alpha  occ. eigenvalues --   -0.55906  -0.54673  -0.54083  -0.53569  -0.53113
 Alpha  occ. eigenvalues --   -0.52442  -0.52190  -0.51688  -0.51444  -0.50728
 Alpha  occ. eigenvalues --   -0.50075  -0.49282  -0.48941  -0.48676  -0.48173
 Alpha  occ. eigenvalues --   -0.48017  -0.47699  -0.47245  -0.46185  -0.45843
 Alpha  occ. eigenvalues --   -0.45503  -0.44961  -0.44633  -0.44222  -0.43921
 Alpha  occ. eigenvalues --   -0.43624  -0.43362  -0.42926  -0.42807  -0.42507
 Alpha  occ. eigenvalues --   -0.42205  -0.41835  -0.41656  -0.41064  -0.40482
 Alpha  occ. eigenvalues --   -0.40388  -0.40205  -0.40113  -0.39902  -0.39390
 Alpha  occ. eigenvalues --   -0.39233  -0.38909  -0.38263  -0.38033  -0.37661
 Alpha  occ. eigenvalues --   -0.37292  -0.37211  -0.36726  -0.36567  -0.36035
 Alpha  occ. eigenvalues --   -0.35687  -0.35256  -0.35189  -0.34829  -0.33775
 Alpha  occ. eigenvalues --   -0.33050  -0.32991  -0.32259  -0.32172  -0.31679
 Alpha  occ. eigenvalues --   -0.31325  -0.29068  -0.29013  -0.28756  -0.27988
 Alpha  occ. eigenvalues --   -0.27810  -0.27248  -0.25411  -0.24975  -0.24714
 Alpha  occ. eigenvalues --   -0.24006  -0.22948  -0.22230  -0.21795  -0.19115
 Alpha virt. eigenvalues --   -0.13473  -0.07837  -0.03318  -0.03018  -0.01869
 Alpha virt. eigenvalues --    0.00665   0.01455   0.02281   0.02733   0.03467
 Alpha virt. eigenvalues --    0.03720   0.03805   0.04368   0.04787   0.04915

 Mulliken charges:
               1
     1  O   -0.150603
     2  O   -0.187321
     3  O   -0.206361
     4  O   -0.060844
     5  O   -0.345413
     6  O   -0.303139
     7  N   -0.100542
     8  N   -0.152768
     9  N   -0.013438
    10  N   -0.184707
    11  C    0.043089
    12  C    0.205238
    13  C   -0.039409
    14  C   -0.076545
    15  C   -0.083769
    16  C   -0.053619
    17  C   -0.204524
    18  C   -0.000333
    19  C   -0.110940
    20  C   -0.093861
    21  C    0.179107
    22  C    0.096675
    23  C   -0.084014
    24  C    0.035287
    25  C    0.094020
    26  C   -0.174718
    27  C   -0.003941
    28  C    0.166647
    29  C    0.183789
    30  C   -0.030458
    31  C    0.021752
    32  C    0.023669
    33  C   -0.088928
    34  C    0.123583
    35  C    0.089033
    36  C   -0.011865
    37  C    0.128893
    38  C    0.066502
    39  C   -0.177910
    40  C    0.133361
    41  C   -0.010233
    42  C   -0.040320
    43  C   -0.007900
    44  H    0.059837
    45  H   -0.084027
    46  H    0.001928
    47  H    0.154801
    48  H    0.095761
    49  H    0.035417
    50  H   -0.016084
    51  H   -0.010477
    52  H    0.009745
    53  H    0.007074
    54  H    0.069127
    55  H    0.019568
    56  H    0.046208
    57  H    0.046753
    58  H    0.013515
    59  H    0.063841
    60  H    0.048082
    61  H   -0.007037
    62  H    0.035037
    63  H    0.043042
    64  H    0.016272
    65  H    0.054906
    66  H    0.069643
    67  H    0.063420
    68  H    0.041729
    69  H   -0.047593
    70  H   -0.011890
    71  H    0.004438
    72  H    0.195472
    73  H   -0.029040
    74  H    0.041986
    75  H    0.051815
    76  H    0.077286
    77  H    0.178233
    78  H    0.052780
    79  H    0.016207
 Sum of Mulliken charges =  -0.00000

 Dipole moment (field-independent basis, Debye):
    X=              5.3366    Y=              2.9357    Z=             -1.3493  Tot=              6.2384
 Quadrupole moment (field-independent basis, Debye-Ang):
   XX=           -235.5415   YY=           -237.5322   ZZ=           -271.0327
   XY=              3.0995   XZ=            -14.5859   YZ=            -17.2628

 Normal termination of Gaussian 16 at Wed Jul 31 05:44:38 2019.
