 Gaussian 16, Revision A.03,
 Gaussian 16:  ES64L-G16RevA.03 25-Dec-2016

 --------------------------
 # td=(NStates=1) B3LYP/SVP
 --------------------------

 --
 TD
 --
 Symbolic Z-matrix:
 Charge =  0 Multiplicity = 1

                         Standard orientation:
 ---------------------------------------------------------------------
 Center     Atomic      Atomic             Coordinates (Angstroms)
 Number     Number       Type             X           Y           Z
 ---------------------------------------------------------------------
      1          8           0       -3.392870   -1.665174   -2.818308
      2          8           0        3.159449    3.306428    2.690057
      3          8           0        3.216701    1.912451    4.509786
      4          8           0        7.650277   -1.813286   -0.129807
      5          8           0        6.868689   -3.077268   -1.948916
      6          8           0       -2.647951    1.723086    1.286053
      7          7           0       -0.240928   -2.305936    1.073910
      8          7           0       -2.744058   -1.287986   -0.554476
      9          7           0        1.163966   -0.136671   -0.814562
     10          7           0       -1.015529    1.341601   -0.376973
     11          6           0       -3.421220   -1.334627    0.752658
     12          6           0       -2.530352   -2.266569    1.738531
     13          6           0       -1.138786   -1.761438    1.914786
     14          6           0       -0.557133   -0.929787    2.865554
     15          6           0        0.804342   -0.933491    2.457773
     16          6           0        1.042452   -1.731811    1.222956
     17          6           0       -4.752041   -1.907438    0.469627
     18          6           0        1.832262   -0.070140    3.099831
     19          6           0       -4.912546   -2.083418   -0.895667
     20          6           0        2.128773   -1.849082    0.435721
     21          6           0        2.167683   -0.998814   -0.620861
     22          6           0       -3.625962   -1.699747   -1.570017
     23          6           0        3.087536   -0.797527   -1.808498
     24          6           0       -1.323307   -0.129254    3.717685
     25          6           0       -5.778499   -2.213248    1.475374
     26          6           0        2.592618    0.257959   -2.562406
     27          6           0        1.792050    1.454274    2.578621
     28          6           0        1.403837    0.655676   -1.984272
     29          6           0        4.359329   -1.625955   -1.896549
     30          6           0       -5.957595   -2.441831   -1.765699
     31          6           0        5.469381   -1.237715   -0.942129
     32          6           0        3.283591    0.984993   -3.710149
     33          6           0        0.545489    1.791996   -2.195566
     34          6           0        2.772009    2.260845    3.393468
     35          6           0       -0.618926    2.117108   -1.425114
     36          6           0       -7.012849   -3.155586   -1.510514
     37          6           0        6.621604   -2.194787   -1.108730
     38          6           0       -1.455681    3.414567   -1.496983
     39          6           0       -2.320531    3.337555   -0.456824
     40          6           0       -2.000034    2.036426    0.292144
     41          6           0       -1.251458    4.315557   -2.582852
     42          6           0       -3.367396    4.251460    0.076591
     43          6           0       -1.738475    5.642943   -2.519685
     44          1           0       -3.704190   -0.387701    1.351862
     45          1           0       -2.701042   -3.314846    1.747264
     46          1           0       -2.983104   -2.295662    2.758338
     47          1           0       -0.184637   -2.807786    0.210938
     48          1           0       -1.957083   -0.568701   -0.735908
     49          1           0        1.746913   -0.040107    4.179560
     50          1           0        2.794920   -0.624316    2.857712
     51          1           0        2.957387   -2.707894    0.566846
     52          1           0       -1.951272   -0.878604    4.470484
     53          1           0       -0.599908    0.388938    4.395931
     54          1           0       -2.083464    0.614241    3.183316
     55          1           0       -5.705385   -1.412592    2.347903
     56          1           0       -5.571945   -3.150316    1.975094
     57          1           0       -6.777924   -2.107686    1.129513
     58          1           0        2.166721    1.479009    1.446267
     59          1           0        0.863715    2.018150    2.857543
     60          1           0        0.359375    0.234569   -0.086644
     61          1           0        4.730425   -1.589042   -2.864933
     62          1           0        4.300240   -2.711505   -1.756452
     63          1           0       -5.661208   -2.218192   -2.766403
     64          1           0        5.174603   -1.337753    0.109227
     65          1           0        5.680799   -0.153053   -1.001029
     66          1           0        4.235516    0.416184   -4.180503
     67          1           0        3.722494    1.889944   -3.379400
     68          1           0        2.612396    1.209729   -4.473860
     69          1           0        0.840497    2.405317   -2.998998
     70          1           0       -7.382551   -3.702659   -0.619510
     71          1           0       -7.783205   -3.368791   -2.373776
     72          1           0        3.675776    3.855314    3.352800
     73          1           0       -0.749035    3.836997   -3.669405
     74          1           0       -3.803753    4.775315   -0.922118
     75          1           0       -3.986773    3.577953    0.716663
     76          1           0       -3.062748    5.153274    0.638169
     77          1           0        8.500568   -2.321953   -0.327376
     78          1           0       -1.325078    6.345931   -3.319392
     79          1           0       -2.207535    6.176803   -1.458767
 ---------------------------------------------------------------------

 SCF Done:  E(RB3LYP) =  -1947.84491786     A.U. after   22 cycles

 Excitation energies and oscillator strengths:

 Excited State   1:      Singlet-A      0.8433 eV 1470.29 nm  f=0.0007  <S**2>=0.000
     155 ->156         0.70241
 This state for optimization and/or second-order correction.
 Total Energy, E(TD-HF/TD-DFT) =  -1947.81392857
 Copying the excited state density for this state as the 1-particle RhoCI density.

 The electronic state is 1-A.
 Alpha  occ. eigenvalues --  -19.19731 -19.17976 -19.15967 -19.12658 -19.12084
 Alpha  occ. eigenvalues --  -19.08064 -14.37084 -14.36718 -14.33386 -14.32170
 Alpha  occ. eigenvalues --  -10.34876 -10.31696 -10.28724 -10.27175 -10.26555
 Alpha  occ. eigenvalues --  -10.26505 -10.25336 -10.24421 -10.23880 -10.23540
 Alpha  occ. eigenvalues --  -10.23378 -10.23311 -10.23190 -10.22632 -10.22281
 Alpha  occ. eigenvalues --  -10.21757 -10.21685 -10.21673 -10.21183 -10.21090
 Alpha  occ. eigenvalues --  -10.20707 -10.20458 -10.20165 -10.20151 -10.19496
 Alpha  occ. eigenvalues --  -10.19139 -10.18718 -10.18660 -10.18224 -10.17827
 Alpha  occ. eigenvalues --  -10.17764 -10.17165 -10.16327  -1.10468  -1.07080
 Alpha  occ. eigenvalues --   -1.03317  -0.99465  -0.99440  -0.99041  -0.97738
 Alpha  occ. eigenvalues --   -0.96692  -0.93812  -0.90434  -0.84677  -0.83629
 Alpha  occ. eigenvalues --   -0.81735  -0.80566  -0.80376  -0.79891  -0.78657
 Alpha  occ. eigenvalues --   -0.76799  -0.76254  -0.75376  -0.74170  -0.73465
 Alpha  occ. eigenvalues --   -0.70839  -0.70052  -0.69889  -0.69518  -0.68017
 Alpha  occ. eigenvalues --   -0.66938  -0.65825  -0.63826  -0.61089  -0.59926
 Alpha  occ. eigenvalues --   -0.59159  -0.58991  -0.58753  -0.58048  -0.57292
 Alpha  occ. eigenvalues --   -0.55737  -0.55089  -0.54791  -0.53352  -0.52166
 Alpha  occ. eigenvalues --   -0.51969  -0.51598  -0.50820  -0.50019  -0.49474
 Alpha  occ. eigenvalues --   -0.49161  -0.48744  -0.48249  -0.48162  -0.47341
 Alpha  occ. eigenvalues --   -0.47140  -0.46929  -0.46530  -0.46100  -0.45835
 Alpha  occ. eigenvalues --   -0.45633  -0.45183  -0.44834  -0.44417  -0.43975
 Alpha  occ. eigenvalues --   -0.43664  -0.43094  -0.42917  -0.42447  -0.42351
 Alpha  occ. eigenvalues --   -0.41658  -0.41522  -0.41277  -0.40945  -0.40563
 Alpha  occ. eigenvalues --   -0.40515  -0.40299  -0.40051  -0.39782  -0.39538
 Alpha  occ. eigenvalues --   -0.39406  -0.39169  -0.39060  -0.39006  -0.37608
 Alpha  occ. eigenvalues --   -0.37320  -0.37174  -0.36998  -0.36499  -0.36204
 Alpha  occ. eigenvalues --   -0.36138  -0.36030  -0.35734  -0.35260  -0.34841
 Alpha  occ. eigenvalues --   -0.33430  -0.32845  -0.32385  -0.31925  -0.31779
 Alpha  occ. eigenvalues --   -0.31116  -0.30426  -0.30236  -0.30231  -0.29669
 Alpha  occ. eigenvalues --   -0.27452  -0.27243  -0.26307  -0.24367  -0.23822
 Alpha  occ. eigenvalues --   -0.23164  -0.22803  -0.22186  -0.22039  -0.19168
 Alpha virt. eigenvalues --   -0.13286  -0.08025  -0.04177  -0.04012  -0.03054
 Alpha virt. eigenvalues --    0.00172   0.00705   0.02045   0.02703   0.02806
 Alpha virt. eigenvalues --    0.03419   0.03498   0.03764   0.04298   0.04699

 Mulliken charges:
               1
     1  O   -0.292908
     2  O   -0.159784
     3  O   -0.271781
     4  O   -0.293034
     5  O   -0.226433
     6  O   -0.221171
     7  N   -0.017715
     8  N   -0.255032
     9  N   -0.183059
    10  N   -0.326139
    11  C    0.123212
    12  C    0.142842
    13  C   -0.055848
    14  C   -0.031477
    15  C   -0.135905
    16  C    0.004975
    17  C   -0.185885
    18  C    0.081014
    19  C   -0.062965
    20  C   -0.222606
    21  C    0.109434
    22  C    0.181412
    23  C   -0.056949
    24  C   -0.009290
    25  C    0.100610
    26  C   -0.109054
    27  C   -0.029870
    28  C    0.125523
    29  C    0.131733
    30  C    0.054778
    31  C   -0.006796
    32  C    0.107760
    33  C   -0.060879
    34  C    0.119890
    35  C    0.106331
    36  C   -0.088860
    37  C    0.200650
    38  C    0.077711
    39  C   -0.184740
    40  C    0.193721
    41  C   -0.095663
    42  C    0.023556
    43  C   -0.105568
    44  H    0.067989
    45  H   -0.021529
    46  H   -0.036487
    47  H    0.112338
    48  H    0.168688
    49  H    0.016480
    50  H    0.002549
    51  H    0.037579
    52  H    0.015691
    53  H    0.001078
    54  H    0.088155
    55  H    0.012267
    56  H    0.029241
    57  H    0.023570
    58  H    0.056801
    59  H    0.057639
    60  H    0.263784
    61  H   -0.012816
    62  H    0.020156
    63  H    0.000289
    64  H    0.044003
    65  H    0.052776
    66  H    0.041670
    67  H    0.024678
    68  H    0.021170
    69  H   -0.052945
    70  H    0.018817
    71  H    0.022602
    72  H    0.188926
    73  H    0.072205
    74  H    0.043239
    75  H    0.052460
    76  H    0.043486
    77  H    0.202379
    78  H    0.049186
    79  H    0.076142
 Sum of Mulliken charges =  -0.00000

 Dipole moment (field-independent basis, Debye):
    X=              4.2324    Y=              3.7522    Z=             -0.7890  Tot=              5.7109
 Quadrupole moment (field-independent basis, Debye-Ang):
   XX=           -242.2785   YY=           -233.8638   ZZ=           -272.4043
   XY=              5.9734   XZ=            -26.6287   YZ=            -17.2791

 Normal termination of Gaussian 16 at Mon Jul 29 23:42:19 2019.
