 Gaussian 16, Revision A.03,
 Gaussian 16:  ES64L-G16RevA.03 25-Dec-2016

 --------------------------
 # td=(NStates=1) B3LYP/SVP
 --------------------------

 --
 TD
 --
 Symbolic Z-matrix:
 Charge =  0 Multiplicity = 1

                         Standard orientation:
 ---------------------------------------------------------------------
 Center     Atomic      Atomic             Coordinates (Angstroms)
 Number     Number       Type             X           Y           Z
 ---------------------------------------------------------------------
      1          8           0        5.287406   -0.058007   -3.237362
      2          8           0       -3.137857   -2.846776    3.052054
      3          8           0       -3.282649   -0.581112    3.282748
      4          8           0       -1.734039    7.273434    1.397916
      5          8           0       -0.933487    7.073772   -0.621858
      6          8           0       -1.698278   -3.995082    0.089504
      7          7           0        2.439484    0.963102    0.553878
      8          7           0        4.401602   -0.574202   -1.209763
      9          7           0       -1.826162    0.700932   -0.398807
     10          7           0       -2.559933   -2.001887   -0.476996
     11          6           0        4.774266   -1.132734    0.034209
     12          6           0        4.370825   -0.299590    1.335934
     13          6           0        2.967176    0.074787    1.293583
     14          6           0        1.978511   -0.594578    2.110670
     15          6           0        0.780403    0.039368    1.767895
     16          6           0        0.999787    1.024075    0.780940
     17          6           0        6.352749   -1.290849   -0.177200
     18          6           0       -0.557213   -0.197436    2.575367
     19          6           0        6.652388   -0.896217   -1.395177
     20          6           0        0.139938    1.916588    0.244808
     21          6           0       -1.146266    1.886991   -0.178801
     22          6           0        5.431971   -0.406595   -2.075176
     23          6           0       -1.952781    2.873022   -0.929381
     24          6           0        2.198466   -1.672324    3.078075
     25          6           0        7.192397   -1.979812    0.934239
     26          6           0       -3.138582    2.199701   -1.468583
     27          6           0       -1.219045   -1.467461    2.654051
     28          6           0       -3.052150    0.803740   -1.054398
     29          6           0       -1.545706    4.317928   -1.038281
     30          6           0        7.983512   -0.680511   -1.986490
     31          6           0       -1.790576    5.054649    0.422822
     32          6           0       -4.346173    2.837563   -1.961015
     33          6           0       -3.994233   -0.197121   -1.247384
     34          6           0       -2.601600   -1.603903    2.974670
     35          6           0       -3.613480   -1.593736   -1.032056
     36          6           0        9.150722   -0.649479   -1.479535
     37          6           0       -1.369700    6.513264    0.313067
     38          6           0       -4.490674   -2.772467   -1.378737
     39          6           0       -3.879725   -3.876216   -1.045774
     40          6           0       -2.624081   -3.414482   -0.419405
     41          6           0       -5.706913   -2.566649   -2.135896
     42          6           0       -4.112549   -5.294661   -1.247650
     43          6           0       -6.680815   -3.406239   -2.483701
     44          1           0        4.279765   -2.081748   -0.075648
     45          1           0        5.068023    0.582807    1.229811
     46          1           0        4.688272   -1.142587    2.240968
     47          1           0        2.775865    1.492112    0.030023
     48          1           0        3.370880   -0.555396   -1.362260
     49          1           0       -0.664759    0.254817    3.575994
     50          1           0       -1.206755    0.538461    2.047195
     51          1           0        0.851731    2.719268   -0.296841
     52          1           0        3.388847   -1.964680    3.161303
     53          1           0        1.613665   -1.792375    4.189358
     54          1           0        1.756064   -2.632418    2.449621
     55          1           0        6.722331   -3.021568    1.259176
     56          1           0        7.253695   -1.297935    1.975660
     57          1           0        8.303979   -2.130272    0.568399
     58          1           0       -1.011461   -2.037132    1.691656
     59          1           0       -0.673850   -1.920153    3.313827
     60          1           0       -1.481187   -0.163935   -0.105084
     61          1           0       -2.480124    4.891992   -1.707323
     62          1           0       -0.458972    4.365247   -1.348053
     63          1           0        8.063363   -0.411192   -3.076733
     64          1           0       -1.328301    4.479959    1.069552
     65          1           0       -2.827771    4.825651    0.737688
     66          1           0       -4.269053    3.906652   -2.518185
     67          1           0       -5.122644    2.850498   -1.112798
     68          1           0       -4.820728    2.194895   -2.971868
     69          1           0       -4.886252    0.060807   -1.595214
     70          1           0        9.280479   -0.904378   -0.447634
     71          1           0       10.216604   -0.267719   -1.871594
     72          1           0       -4.086743   -2.799429    3.127743
     73          1           0       -6.001633   -1.500688   -2.202771
     74          1           0       -4.994255   -5.598646   -0.608729
     75          1           0       -4.468719   -5.680772   -2.250561
     76          1           0       -3.256974   -5.975477   -0.793575
     77          1           0       -1.549457    8.356370    1.260632
     78          1           0       -7.531020   -3.143268   -3.076206
     79          1           0       -6.611692   -4.334907   -2.203870
 ---------------------------------------------------------------------

 SCF Done:  E(RB3LYP) =  -1947.70654074     A.U. after   17 cycles

 Excitation energies and oscillator strengths:

 Excited State   1:      Singlet-A      1.9634 eV  631.49 nm  f=0.5250  <S**2>=0.000
     155 ->156         0.70742
     155 <-156        -0.13702
 This state for optimization and/or second-order correction.
 Total Energy, E(TD-HF/TD-DFT) =  -1947.63438864
 Copying the excited state density for this state as the 1-particle RhoCI density.

 The electronic state is 1-A.
 Alpha  occ. eigenvalues --  -19.17446 -19.17222 -19.12733 -19.10775 -19.10540
 Alpha  occ. eigenvalues --  -19.09648 -14.39340 -14.35895 -14.35748 -14.28217
 Alpha  occ. eigenvalues --  -10.32084 -10.31047 -10.28811 -10.26319 -10.25196
 Alpha  occ. eigenvalues --  -10.24992 -10.24450 -10.24414 -10.24241 -10.24131
 Alpha  occ. eigenvalues --  -10.23982 -10.23709 -10.23110 -10.22935 -10.22557
 Alpha  occ. eigenvalues --  -10.22533 -10.22381 -10.21682 -10.21175 -10.20974
 Alpha  occ. eigenvalues --  -10.20910 -10.20683 -10.20160 -10.20101 -10.20029
 Alpha  occ. eigenvalues --  -10.19675 -10.19661 -10.19385 -10.19097 -10.19013
 Alpha  occ. eigenvalues --  -10.18172 -10.18027 -10.17463  -1.09134  -1.07806
 Alpha  occ. eigenvalues --   -1.03491  -1.02746  -1.02675  -0.98965  -0.97218
 Alpha  occ. eigenvalues --   -0.97005  -0.95317  -0.93678  -0.84313  -0.83263
 Alpha  occ. eigenvalues --   -0.82987  -0.81620  -0.80980  -0.80497  -0.79523
 Alpha  occ. eigenvalues --   -0.77503  -0.77030  -0.76675  -0.75417  -0.72831
 Alpha  occ. eigenvalues --   -0.72171  -0.71285  -0.69937  -0.69812  -0.68563
 Alpha  occ. eigenvalues --   -0.67069  -0.66307  -0.64464  -0.62760  -0.62080
 Alpha  occ. eigenvalues --   -0.60398  -0.59522  -0.59017  -0.58684  -0.58323
 Alpha  occ. eigenvalues --   -0.56563  -0.55777  -0.54746  -0.54715  -0.54123
 Alpha  occ. eigenvalues --   -0.53104  -0.52892  -0.51808  -0.51215  -0.50828
 Alpha  occ. eigenvalues --   -0.49913  -0.48798  -0.48652  -0.48463  -0.48059
 Alpha  occ. eigenvalues --   -0.47744  -0.47028  -0.46737  -0.46220  -0.46099
 Alpha  occ. eigenvalues --   -0.45730  -0.44798  -0.44624  -0.44445  -0.44019
 Alpha  occ. eigenvalues --   -0.43776  -0.43599  -0.43247  -0.42742  -0.42253
 Alpha  occ. eigenvalues --   -0.41900  -0.41713  -0.41247  -0.41028  -0.40826
 Alpha  occ. eigenvalues --   -0.40764  -0.40430  -0.40150  -0.39676  -0.39497
 Alpha  occ. eigenvalues --   -0.39345  -0.39232  -0.38888  -0.38588  -0.38394
 Alpha  occ. eigenvalues --   -0.38320  -0.38075  -0.37774  -0.36993  -0.36849
 Alpha  occ. eigenvalues --   -0.36149  -0.35428  -0.34722  -0.34207  -0.34136
 Alpha  occ. eigenvalues --   -0.33773  -0.33642  -0.32323  -0.31865  -0.31780
 Alpha  occ. eigenvalues --   -0.31645  -0.30177  -0.29848  -0.28375  -0.26642
 Alpha  occ. eigenvalues --   -0.26563  -0.26268  -0.25951  -0.25891  -0.25697
 Alpha  occ. eigenvalues --   -0.24654  -0.24379  -0.24133  -0.23005  -0.18098
 Alpha virt. eigenvalues --   -0.10694  -0.07025  -0.05797  -0.00965   0.00037
 Alpha virt. eigenvalues --    0.00282   0.00399   0.00958   0.01715   0.01991
 Alpha virt. eigenvalues --    0.02457   0.02788   0.03710   0.04179   0.05024

 Mulliken charges:
               1
     1  O   -0.221620
     2  O   -0.170167
     3  O   -0.291917
     4  O   -0.289241
     5  O   -0.182998
     6  O   -0.169349
     7  N    0.169172
     8  N   -0.189460
     9  N   -0.080993
    10  N   -0.195120
    11  C    0.037073
    12  C    0.134715
    13  C   -0.113605
    14  C   -0.075792
    15  C   -0.084449
    16  C    0.002601
    17  C   -0.151137
    18  C    0.070000
    19  C    0.011823
    20  C   -0.075396
    21  C    0.112693
    22  C    0.143593
    23  C   -0.111306
    24  C   -0.068702
    25  C   -0.038085
    26  C   -0.070001
    27  C    0.128182
    28  C    0.128739
    29  C    0.000486
    30  C    0.007081
    31  C    0.041137
    32  C   -0.064328
    33  C   -0.029593
    34  C    0.134102
    35  C    0.038307
    36  C   -0.080171
    37  C    0.173285
    38  C    0.056062
    39  C   -0.174981
    40  C    0.105563
    41  C   -0.054688
    42  C    0.040954
    43  C    0.057497
    44  H    0.009931
    45  H    0.003110
    46  H    0.061104
    47  H   -0.025035
    48  H    0.141852
    49  H    0.007076
    50  H   -0.014539
    51  H    0.009014
    52  H    0.024275
    53  H    0.077039
    54  H    0.064373
    55  H    0.060181
    56  H    0.059454
    57  H    0.058521
    58  H    0.068560
    59  H   -0.043645
    60  H    0.104486
    61  H    0.050501
    62  H    0.047222
    63  H    0.020249
    64  H   -0.018554
    65  H    0.042244
    66  H    0.052585
    67  H    0.064836
    68  H    0.038434
    69  H   -0.098005
    70  H   -0.017807
    71  H    0.053329
    72  H    0.179580
    73  H   -0.004213
    74  H    0.022338
    75  H    0.037583
    76  H    0.046808
    77  H    0.238962
    78  H    0.019352
    79  H   -0.051161
 Sum of Mulliken charges =  -0.00000

 Dipole moment (field-independent basis, Debye):
    X=              1.3556    Y=              0.4593    Z=              3.2739  Tot=              3.5731
 Quadrupole moment (field-independent basis, Debye-Ang):
   XX=           -215.0139   YY=           -245.6007   ZZ=           -270.8391
   XY=             -2.4356   XZ=             34.1490   YZ=              2.7765

 Normal termination of Gaussian 16 at Wed Oct  2 00:42:19 2019.
