 Gaussian 16, Revision A.03,
 Gaussian 16:  ES64L-G16RevA.03 25-Dec-2016

 --------------------------
 # td=(NStates=1) B3LYP/SVP
 --------------------------

 --
 TD
 --
 Symbolic Z-matrix:
 Charge =  0 Multiplicity = 1

                         Standard orientation:
 ---------------------------------------------------------------------
 Center     Atomic      Atomic             Coordinates (Angstroms)
 Number     Number       Type             X           Y           Z
 ---------------------------------------------------------------------
      1          8           0       -3.466863   -1.082459   -2.950141
      2          8           0        2.977712    3.098046    3.323854
      3          8           0        3.692580    1.216624    4.402608
      4          8           0        7.608949   -1.763074   -0.506467
      5          8           0        6.785256   -3.149614   -2.076757
      6          8           0       -2.604738    1.634544    1.400773
      7          7           0       -0.270532   -2.468599    0.780438
      8          7           0       -2.772274   -1.197172   -0.723724
      9          7           0        1.187926    0.095774   -0.856113
     10          7           0       -0.950201    1.567951   -0.261495
     11          6           0       -3.415839   -1.349246    0.554560
     12          6           0       -2.692295   -2.475289    1.531732
     13          6           0       -1.256318   -2.016389    1.616120
     14          6           0       -0.672448   -1.286119    2.680017
     15          6           0        0.724475   -1.121839    2.443194
     16          6           0        0.959635   -1.870417    1.127126
     17          6           0       -4.832506   -1.875352    0.212282
     18          6           0        1.760668   -0.377606    3.120469
     19          6           0       -4.886319   -2.046107   -1.170433
     20          6           0        2.015801   -1.865686    0.165586
     21          6           0        2.100449   -0.922121   -0.771631
     22          6           0       -3.674076   -1.449535   -1.721909
     23          6           0        3.088952   -0.684782   -1.787758
     24          6           0       -1.439168   -0.670553    3.806111
     25          6           0       -5.867435   -2.151514    1.312171
     26          6           0        2.722553    0.466053   -2.436479
     27          6           0        1.732895    1.214364    2.928578
     28          6           0        1.463026    0.955582   -1.781822
     29          6           0        4.308794   -1.513886   -2.036165
     30          6           0       -5.959949   -2.419693   -1.931114
     31          6           0        5.441181   -1.282960   -1.075033
     32          6           0        3.386742    1.323623   -3.498508
     33          6           0        0.619732    2.089555   -1.970075
     34          6           0        2.941758    1.778380    3.668888
     35          6           0       -0.458369    2.422820   -1.141051
     36          6           0       -6.986353   -3.148410   -1.690908
     37          6           0        6.627062   -2.215687   -1.305742
     38          6           0       -1.180321    3.635583   -1.133720
     39          6           0       -2.189812    3.438779   -0.182729
     40          6           0       -2.075562    2.082905    0.391761
     41          6           0       -1.028407    4.699919   -2.079829
     42          6           0       -3.389703    4.196648    0.212291
     43          6           0       -1.593397    5.909168   -2.095072
     44          1           0       -3.414705   -0.509108    1.136893
     45          1           0       -2.714175   -3.551077    1.057830
     46          1           0       -3.237715   -2.478035    2.489514
     47          1           0       -0.450554   -2.931490   -0.110773
     48          1           0       -2.161864   -0.512193   -0.841004
     49          1           0        1.639941   -0.570701    4.091527
     50          1           0        2.795227   -0.744244    2.791325
     51          1           0        2.810846   -2.473705    0.287676
     52          1           0       -2.301423   -1.571150    3.871986
     53          1           0       -0.833488   -0.455760    4.867622
     54          1           0       -1.756087    0.518794    3.504922
     55          1           0       -5.547624   -1.646695    2.479854
     56          1           0       -5.910044   -3.196884    1.874166
     57          1           0       -6.728944   -1.737059    1.002326
     58          1           0        1.757790    1.436800    1.831882
     59          1           0        0.762935    1.523118    3.374116
     60          1           0        0.340327    0.227175   -0.238892
     61          1           0        4.404613   -1.450226   -3.144606
     62          1           0        3.912125   -2.586336   -2.100210
     63          1           0       -5.700283   -2.077380   -3.086991
     64          1           0        4.934431   -1.353807   -0.125979
     65          1           0        5.929288   -0.324048   -1.364969
     66          1           0        4.271879    0.700704   -3.780415
     67          1           0        3.667444    2.361247   -3.048386
     68          1           0        2.727197    1.492247   -4.374893
     69          1           0        1.037241    2.786348   -2.731019
     70          1           0       -7.647393   -3.379406   -0.635117
     71          1           0       -7.709236   -3.352814   -2.414960
     72          1           0        3.918254    3.331229    3.736175
     73          1           0       -0.409809    4.592351   -3.003567
     74          1           0       -3.857070    4.491070   -0.815817
     75          1           0       -4.037874    3.335549    0.757465
     76          1           0       -3.030175    5.118957    0.828650
     77          1           0        8.312939   -2.418590   -0.979376
     78          1           0       -1.538910    6.512975   -2.990933
     79          1           0       -2.315388    6.452805   -1.286193
 ---------------------------------------------------------------------

 SCF Done:  E(RB3LYP) =  -1947.80360143     A.U. after   17 cycles

 Excitation energies and oscillator strengths:

 Excited State   1:      Singlet-A      1.0949 eV 1132.34 nm  f=0.0030  <S**2>=0.000
     155 ->156         0.70255
 This state for optimization and/or second-order correction.
 Total Energy, E(TD-HF/TD-DFT) =  -1947.76336312
 Copying the excited state density for this state as the 1-particle RhoCI density.

 The electronic state is 1-A.
 Alpha  occ. eigenvalues --  -19.20418 -19.18692 -19.15205 -19.13820 -19.12631
 Alpha  occ. eigenvalues --  -19.08157 -14.37816 -14.37413 -14.33480 -14.29159
 Alpha  occ. eigenvalues --  -10.34051 -10.32061 -10.27636 -10.27229 -10.26236
 Alpha  occ. eigenvalues --  -10.24783 -10.23927 -10.23232 -10.23066 -10.22612
 Alpha  occ. eigenvalues --  -10.22605 -10.22584 -10.22280 -10.22168 -10.22052
 Alpha  occ. eigenvalues --  -10.21624 -10.21380 -10.21362 -10.21256 -10.20942
 Alpha  occ. eigenvalues --  -10.20818 -10.20699 -10.20591 -10.20475 -10.20445
 Alpha  occ. eigenvalues --  -10.20350 -10.20329 -10.19018 -10.18722 -10.18606
 Alpha  occ. eigenvalues --  -10.18499 -10.18330 -10.17595  -1.11660  -1.09632
 Alpha  occ. eigenvalues --   -1.03118  -1.01915  -1.01728  -1.01385  -0.98862
 Alpha  occ. eigenvalues --   -0.96094  -0.94090  -0.91602  -0.85125  -0.82932
 Alpha  occ. eigenvalues --   -0.82158  -0.80920  -0.80296  -0.79892  -0.78457
 Alpha  occ. eigenvalues --   -0.77229  -0.75926  -0.75421  -0.74219  -0.73344
 Alpha  occ. eigenvalues --   -0.71201  -0.70719  -0.69727  -0.69483  -0.67466
 Alpha  occ. eigenvalues --   -0.65988  -0.65931  -0.63531  -0.61608  -0.60916
 Alpha  occ. eigenvalues --   -0.59599  -0.59099  -0.58043  -0.57369  -0.57150
 Alpha  occ. eigenvalues --   -0.56857  -0.55642  -0.54816  -0.52874  -0.52631
 Alpha  occ. eigenvalues --   -0.52194  -0.51901  -0.51273  -0.50878  -0.50555
 Alpha  occ. eigenvalues --   -0.50387  -0.49554  -0.49037  -0.48896  -0.48687
 Alpha  occ. eigenvalues --   -0.48128  -0.47391  -0.47134  -0.46876  -0.45566
 Alpha  occ. eigenvalues --   -0.45468  -0.45115  -0.45067  -0.44436  -0.43941
 Alpha  occ. eigenvalues --   -0.43822  -0.43651  -0.43412  -0.43242  -0.42816
 Alpha  occ. eigenvalues --   -0.42284  -0.42043  -0.41915  -0.41432  -0.41071
 Alpha  occ. eigenvalues --   -0.40943  -0.40610  -0.40450  -0.40240  -0.39810
 Alpha  occ. eigenvalues --   -0.39208  -0.38845  -0.38553  -0.38009  -0.37749
 Alpha  occ. eigenvalues --   -0.37567  -0.36961  -0.36873  -0.36621  -0.36325
 Alpha  occ. eigenvalues --   -0.35669  -0.35502  -0.35346  -0.34707  -0.34367
 Alpha  occ. eigenvalues --   -0.34019  -0.33801  -0.33092  -0.32788  -0.32415
 Alpha  occ. eigenvalues --   -0.31283  -0.30602  -0.29493  -0.29305  -0.29181
 Alpha  occ. eigenvalues --   -0.28610  -0.27757  -0.25055  -0.24945  -0.23568
 Alpha  occ. eigenvalues --   -0.23070  -0.22909  -0.22715  -0.21819  -0.18912
 Alpha virt. eigenvalues --   -0.12349  -0.07579  -0.05610  -0.01859  -0.00993
 Alpha virt. eigenvalues --    0.00117   0.00685   0.01648   0.01984   0.02790
 Alpha virt. eigenvalues --    0.02928   0.03614   0.04058   0.04458   0.04832

 Mulliken charges:
               1
     1  O   -0.317552
     2  O   -0.223474
     3  O   -0.199844
     4  O   -0.212749
     5  O   -0.234895
     6  O   -0.213489
     7  N   -0.060165
     8  N   -0.088787
     9  N   -0.014598
    10  N   -0.315731
    11  C    0.095455
    12  C    0.129385
    13  C   -0.086180
    14  C   -0.072954
    15  C   -0.069487
    16  C   -0.026171
    17  C   -0.119288
    18  C    0.140533
    19  C   -0.010841
    20  C   -0.106538
    21  C    0.131740
    22  C    0.142127
    23  C   -0.101667
    24  C   -0.092299
    25  C    0.016267
    26  C   -0.130797
    27  C   -0.038497
    28  C    0.024698
    29  C    0.041011
    30  C   -0.029992
    31  C    0.081295
    32  C    0.069891
    33  C   -0.096748
    34  C    0.150557
    35  C    0.123676
    36  C   -0.080814
    37  C    0.152570
    38  C    0.128699
    39  C   -0.233818
    40  C    0.188978
    41  C   -0.050362
    42  C    0.011376
    43  C   -0.089608
    44  H    0.013618
    45  H    0.008208
    46  H   -0.000594
    47  H    0.120557
    48  H    0.079492
    49  H   -0.032269
    50  H    0.003116
    51  H   -0.044777
    52  H    0.039573
    53  H    0.033473
    54  H    0.086505
    55  H    0.026558
    56  H    0.064678
    57  H    0.026978
    58  H    0.043096
    59  H    0.053783
    60  H    0.192248
    61  H    0.014420
    62  H    0.022767
    63  H    0.048270
    64  H    0.049342
    65  H    0.051370
    66  H    0.022643
    67  H    0.057664
    68  H    0.046742
    69  H   -0.022505
    70  H    0.030554
    71  H    0.002145
    72  H    0.195634
    73  H    0.007561
    74  H    0.052563
    75  H    0.063757
    76  H    0.062522
    77  H    0.207550
    78  H    0.019017
    79  H    0.042828
 Sum of Mulliken charges =  -0.00000

 Dipole moment (field-independent basis, Debye):
    X=              3.9784    Y=              1.9301    Z=             -0.3634  Tot=              4.4368
 Quadrupole moment (field-independent basis, Debye-Ang):
   XX=           -235.0199   YY=           -242.7462   ZZ=           -269.3792
   XY=              9.9412   XZ=            -24.9109   YZ=            -12.7449

 Normal termination of Gaussian 16 at Wed Jul 24 10:43:59 2019.
