 Gaussian 16, Revision A.03,
 Gaussian 16:  ES64L-G16RevA.03 25-Dec-2016

 --------------------------
 # td=(NStates=1) B3LYP/SVP
 --------------------------

 --
 TD
 --
 Symbolic Z-matrix:
 Charge =  0 Multiplicity = 1

                         Standard orientation:
 ---------------------------------------------------------------------
 Center     Atomic      Atomic             Coordinates (Angstroms)
 Number     Number       Type             X           Y           Z
 ---------------------------------------------------------------------
      1          8           0       -3.325731   -1.469961   -2.614470
      2          8           0        3.151260    3.488197    2.926793
      3          8           0        3.886690    1.903966    4.347141
      4          8           0        7.699306   -1.531241   -0.974073
      5          8           0        6.448048   -3.325799   -1.646879
      6          8           0       -2.623730    1.836576    1.453623
      7          7           0       -0.129831   -2.300717    1.092058
      8          7           0       -2.563247   -1.339374   -0.471314
      9          7           0        1.036408    0.009642   -0.785768
     10          7           0       -1.087066    1.480928   -0.191600
     11          6           0       -3.282198   -1.272754    0.842671
     12          6           0       -2.484536   -2.153012    1.968712
     13          6           0       -1.075071   -1.820603    2.077500
     14          6           0       -0.410939   -0.838866    2.887512
     15          6           0        0.941045   -0.780068    2.547070
     16          6           0        1.011736   -1.715644    1.348454
     17          6           0       -4.630586   -1.953195    0.537077
     18          6           0        1.992819   -0.026322    3.198281
     19          6           0       -4.715098   -2.205039   -0.784938
     20          6           0        2.171841   -1.826159    0.331804
     21          6           0        2.132090   -0.933146   -0.693778
     22          6           0       -3.460002   -1.657982   -1.385656
     23          6           0        2.879954   -0.853807   -1.912974
     24          6           0       -1.019155   -0.121215    3.950002
     25          6           0       -5.656904   -2.214370    1.612157
     26          6           0        2.342788    0.186729   -2.599504
     27          6           0        2.125964    1.436548    2.721539
     28          6           0        1.282739    0.684140   -1.951852
     29          6           0        4.183570   -1.626632   -2.127487
     30          6           0       -5.769218   -2.689784   -1.654535
     31          6           0        5.412301   -1.035700   -1.275087
     32          6           0        2.893210    0.771093   -3.896324
     33          6           0        0.419280    1.807337   -2.253380
     34          6           0        3.064113    2.289167    3.509156
     35          6           0       -0.731873    2.100601   -1.389262
     36          6           0       -6.711793   -3.707557   -1.333695
     37          6           0        6.558535   -2.114968   -1.335360
     38          6           0       -1.627190    3.342912   -1.624921
     39          6           0       -2.438251    3.313187   -0.512664
     40          6           0       -2.139872    2.186568    0.372474
     41          6           0       -1.586056    4.168240   -2.808343
     42          6           0       -3.617694    4.263506   -0.101478
     43          6           0       -2.280211    5.344912   -2.945549
     44          1           0       -3.260267   -0.195234    1.226192
     45          1           0       -2.509777   -3.128167    1.567387
     46          1           0       -2.908879   -1.973359    3.111066
     47          1           0       -0.346855   -2.880740    0.460737
     48          1           0       -2.034614   -0.515122   -0.824143
     49          1           0        2.080704    0.210323    4.318769
     50          1           0        2.918541   -0.575566    3.342908
     51          1           0        2.823059   -2.521592    0.481939
     52          1           0       -1.768032   -1.001160    4.689435
     53          1           0       -0.092706    0.313168    4.698425
     54          1           0       -1.598509    0.683504    3.695379
     55          1           0       -5.729590   -1.477163    2.535238
     56          1           0       -5.443724   -2.945148    2.154839
     57          1           0       -6.769047   -2.125948    1.394761
     58          1           0        2.643467    1.517131    1.752054
     59          1           0        1.049497    1.887601    2.506773
     60          1           0        0.383428    0.360340   -0.005139
     61          1           0        4.364948   -1.747620   -3.229492
     62          1           0        4.007480   -2.662954   -1.837583
     63          1           0       -5.691571   -2.464654   -2.648589
     64          1           0        5.123961   -0.890588   -0.222792
     65          1           0        5.760344   -0.147087   -1.555143
     66          1           0        3.665272    0.016717   -4.301480
     67          1           0        3.331736    1.897804   -3.533218
     68          1           0        2.038319    0.935706   -4.650327
     69          1           0        0.496022    2.569895   -3.114131
     70          1           0       -6.828475   -4.011862   -0.325060
     71          1           0       -7.615393   -3.864159   -2.059990
     72          1           0        4.047720    3.988831    3.270471
     73          1           0       -0.872248    3.858904   -3.496994
     74          1           0       -4.298031    4.209837   -0.929800
     75          1           0       -4.099628    3.617011    0.847021
     76          1           0       -3.241555    5.316389    0.242747
     77          1           0        8.285260   -2.230897   -0.909766
     78          1           0       -2.217684    5.885970   -3.897304
     79          1           0       -3.025789    5.833930   -2.101633
 ---------------------------------------------------------------------

 SCF Done:  E(RB3LYP) =  -1947.76327095     A.U. after   19 cycles

 Excitation energies and oscillator strengths:

 Excited State   1:      Singlet-A      0.7654 eV 1619.84 nm  f=0.0000  <S**2>=0.000
     155 ->156         0.70426
 This state for optimization and/or second-order correction.
 Total Energy, E(TD-HF/TD-DFT) =  -1947.73514259
 Copying the excited state density for this state as the 1-particle RhoCI density.

 The electronic state is 1-A.
 Alpha  occ. eigenvalues --  -19.21030 -19.18739 -19.14966 -19.12393 -19.11865
 Alpha  occ. eigenvalues --  -19.07151 -14.37272 -14.37096 -14.33237 -14.30547
 Alpha  occ. eigenvalues --  -10.34857 -10.31867 -10.27583 -10.26283 -10.25727
 Alpha  occ. eigenvalues --  -10.25595 -10.25561 -10.23914 -10.23211 -10.23141
 Alpha  occ. eigenvalues --  -10.23093 -10.23019 -10.22638 -10.22411 -10.22213
 Alpha  occ. eigenvalues --  -10.22155 -10.21865 -10.21512 -10.21425 -10.20926
 Alpha  occ. eigenvalues --  -10.20768 -10.20667 -10.20641 -10.19955 -10.19793
 Alpha  occ. eigenvalues --  -10.19448 -10.19096 -10.19029 -10.18765 -10.18690
 Alpha  occ. eigenvalues --  -10.18444 -10.18076 -10.16974  -1.13296  -1.08624
 Alpha  occ. eigenvalues --   -1.02202  -1.01504  -0.99780  -0.99526  -0.98903
 Alpha  occ. eigenvalues --   -0.97979  -0.91687  -0.91350  -0.84097  -0.82422
 Alpha  occ. eigenvalues --   -0.81461  -0.80824  -0.80630  -0.79268  -0.78165
 Alpha  occ. eigenvalues --   -0.76612  -0.75844  -0.74750  -0.73808  -0.72689
 Alpha  occ. eigenvalues --   -0.70339  -0.70286  -0.70022  -0.69105  -0.68370
 Alpha  occ. eigenvalues --   -0.66738  -0.65717  -0.63285  -0.62533  -0.61009
 Alpha  occ. eigenvalues --   -0.59931  -0.59535  -0.58978  -0.58007  -0.57045
 Alpha  occ. eigenvalues --   -0.56646  -0.55946  -0.55768  -0.53330  -0.52878
 Alpha  occ. eigenvalues --   -0.51888  -0.51760  -0.51062  -0.50732  -0.50130
 Alpha  occ. eigenvalues --   -0.49483  -0.48940  -0.48643  -0.48073  -0.47711
 Alpha  occ. eigenvalues --   -0.47539  -0.47324  -0.46738  -0.46084  -0.45088
 Alpha  occ. eigenvalues --   -0.44789  -0.44513  -0.44196  -0.43958  -0.43594
 Alpha  occ. eigenvalues --   -0.43417  -0.43296  -0.43154  -0.42816  -0.42421
 Alpha  occ. eigenvalues --   -0.42040  -0.41747  -0.41282  -0.41013  -0.40798
 Alpha  occ. eigenvalues --   -0.40666  -0.40229  -0.39816  -0.39638  -0.39335
 Alpha  occ. eigenvalues --   -0.39307  -0.38691  -0.38604  -0.38342  -0.38173
 Alpha  occ. eigenvalues --   -0.37606  -0.37477  -0.36877  -0.36624  -0.36096
 Alpha  occ. eigenvalues --   -0.35685  -0.35637  -0.35046  -0.34544  -0.34283
 Alpha  occ. eigenvalues --   -0.34272  -0.33004  -0.32217  -0.32020  -0.31783
 Alpha  occ. eigenvalues --   -0.30343  -0.30084  -0.29637  -0.29145  -0.28175
 Alpha  occ. eigenvalues --   -0.27982  -0.27711  -0.25907  -0.24949  -0.23619
 Alpha  occ. eigenvalues --   -0.23553  -0.22894  -0.22310  -0.22026  -0.18160
 Alpha virt. eigenvalues --   -0.12796  -0.08054  -0.04491  -0.02582  -0.02207
 Alpha virt. eigenvalues --   -0.00792   0.00738   0.01823   0.02101   0.02440
 Alpha virt. eigenvalues --    0.03077   0.03567   0.04441   0.04886   0.05255

 Mulliken charges:
               1
     1  O   -0.285540
     2  O   -0.233762
     3  O   -0.261592
     4  O   -0.107834
     5  O   -0.261309
     6  O   -0.222281
     7  N    0.073117
     8  N   -0.144842
     9  N   -0.154403
    10  N   -0.333717
    11  C    0.011998
    12  C    0.200937
    13  C   -0.121787
    14  C   -0.031547
    15  C   -0.019295
    16  C   -0.093917
    17  C   -0.117596
    18  C    0.015747
    19  C   -0.009415
    20  C   -0.023940
    21  C    0.148520
    22  C    0.076541
    23  C   -0.067724
    24  C   -0.022501
    25  C    0.134004
    26  C   -0.141918
    27  C   -0.050644
    28  C    0.187044
    29  C    0.095002
    30  C   -0.000519
    31  C    0.065125
    32  C    0.025459
    33  C   -0.127170
    34  C    0.159034
    35  C    0.067041
    36  C   -0.051921
    37  C    0.140410
    38  C    0.044747
    39  C   -0.230180
    40  C    0.188486
    41  C    0.028683
    42  C    0.012424
    43  C   -0.055895
    44  H    0.079387
    45  H   -0.048385
    46  H    0.027819
    47  H    0.037027
    48  H    0.148840
    49  H    0.019494
    50  H   -0.009512
    51  H   -0.060804
    52  H    0.025019
    53  H    0.025558
    54  H    0.026266
    55  H    0.002469
    56  H   -0.044013
    57  H    0.039520
    58  H    0.030938
    59  H    0.077266
    60  H    0.221152
    61  H    0.024493
    62  H    0.026333
    63  H   -0.016814
    64  H    0.048510
    65  H   -0.005222
    66  H    0.042662
    67  H    0.062417
    68  H    0.056559
    69  H    0.011228
    70  H    0.009982
    71  H    0.042399
    72  H    0.228556
    73  H   -0.039627
    74  H    0.037717
    75  H    0.057190
    76  H    0.063376
    77  H    0.149754
    78  H    0.031810
    79  H    0.067565
 Sum of Mulliken charges =  -0.00000

 Dipole moment (field-independent basis, Debye):
    X=              5.4339    Y=              2.7739    Z=             -2.1474  Tot=              6.4678
 Quadrupole moment (field-independent basis, Debye-Ang):
   XX=           -229.3720   YY=           -241.7583   ZZ=           -267.8832
   XY=              1.8672   XZ=            -22.2405   YZ=            -17.8193

 Normal termination of Gaussian 16 at Thu Jul 25 12:46:54 2019.
