 Gaussian 16, Revision A.03,
 Gaussian 16:  ES64L-G16RevA.03 25-Dec-2016

 --------------------------
 # td=(NStates=1) B3LYP/SVP
 --------------------------

 --
 TD
 --
 Symbolic Z-matrix:
 Charge =  0 Multiplicity = 1

                         Standard orientation:
 ---------------------------------------------------------------------
 Center     Atomic      Atomic             Coordinates (Angstroms)
 Number     Number       Type             X           Y           Z
 ---------------------------------------------------------------------
      1          8           0        5.307945   -0.100875   -3.300794
      2          8           0       -2.960014   -3.020407    3.093347
      3          8           0       -3.282253   -0.811527    3.196684
      4          8           0       -1.886240    7.183775    1.481911
      5          8           0       -0.779152    7.000854   -0.466662
      6          8           0       -1.562614   -3.967284    0.106992
      7          7           0        2.306264    1.120837    0.545071
      8          7           0        4.324166   -0.455178   -1.187072
      9          7           0       -1.891079    0.655351   -0.357676
     10          7           0       -2.481615   -1.933772   -0.509505
     11          6           0        4.741155   -1.010879    0.094463
     12          6           0        4.428038   -0.108205    1.303379
     13          6           0        2.924862    0.132692    1.337988
     14          6           0        2.031402   -0.494824    2.171864
     15          6           0        0.742188    0.053660    1.793324
     16          6           0        0.947427    1.047682    0.790763
     17          6           0        6.300719   -1.171655   -0.138483
     18          6           0       -0.593877   -0.164229    2.523847
     19          6           0        6.625754   -0.832102   -1.407315
     20          6           0        0.032969    2.047724    0.280517
     21          6           0       -1.186769    1.895359   -0.291270
     22          6           0        5.333174   -0.392051   -2.106106
     23          6           0       -2.015165    2.919472   -0.937988
     24          6           0        2.238539   -1.512183    3.164956
     25          6           0        7.130541   -1.727522    1.011334
     26          6           0       -3.172922    2.274676   -1.344464
     27          6           0       -1.081822   -1.602033    2.477916
     28          6           0       -3.096589    0.792924   -1.066247
     29          6           0       -1.676672    4.281951   -1.094249
     30          6           0        7.922439   -0.843861   -2.054533
     31          6           0       -2.073790    5.059535    0.300756
     32          6           0       -4.371092    2.905203   -2.045498
     33          6           0       -3.844742   -0.157088   -1.505743
     34          6           0       -2.540733   -1.753240    2.973238
     35          6           0       -3.642119   -1.608951   -1.205389
     36          6           0        9.134733   -0.915306   -1.576998
     37          6           0       -1.526600    6.547811    0.362570
     38          6           0       -4.375477   -2.834952   -1.501029
     39          6           0       -3.699027   -3.938887   -0.976416
     40          6           0       -2.473498   -3.353273   -0.390539
     41          6           0       -5.596008   -2.734457   -2.332011
     42          6           0       -4.058764   -5.321275   -0.789045
     43          6           0       -6.553327   -3.716952   -2.436522
     44          1           0        4.215169   -1.920465    0.135915
     45          1           0        4.585576    0.907776    1.222342
     46          1           0        4.586866   -0.517471    2.174075
     47          1           0        2.742599    1.753409   -0.174576
     48          1           0        3.331769   -0.417764   -1.561073
     49          1           0       -0.525489    0.225189    3.710245
     50          1           0       -1.400800    0.363958    1.972986
     51          1           0        0.352728    2.970291   -0.319437
     52          1           0        3.143582   -1.501066    3.641336
     53          1           0        1.709274   -1.230865    4.183519
     54          1           0        2.018034   -2.547536    2.870590
     55          1           0        6.449016   -2.280675    1.885327
     56          1           0        7.744115   -0.813006    1.512971
     57          1           0        7.942082   -2.512226    0.766593
     58          1           0       -1.146861   -1.773366    1.441227
     59          1           0       -0.371719   -2.338877    3.142774
     60          1           0       -1.568959   -0.383603   -0.313004
     61          1           0       -2.120122    4.815133   -1.938273
     62          1           0       -0.672050    4.637936   -1.478848
     63          1           0        7.903033   -0.822862   -3.135105
     64          1           0       -1.668970    4.427211    1.169473
     65          1           0       -3.184677    5.143235    0.502658
     66          1           0       -4.309456    3.947075   -2.151956
     67          1           0       -5.255270    2.902782   -1.456063
     68          1           0       -4.452935    2.565132   -3.021229
     69          1           0       -4.804219    0.055616   -1.930100
     70          1           0        9.408944   -0.973103   -0.490671
     71          1           0       10.046853   -1.085050   -2.201637
     72          1           0       -3.888921   -2.826942    3.342888
     73          1           0       -5.769165   -1.751327   -2.734792
     74          1           0       -4.856439   -5.477912   -0.146963
     75          1           0       -4.288733   -5.815457   -1.729851
     76          1           0       -3.163346   -5.872228   -0.413949
     77          1           0       -0.994022    7.891368    1.619753
     78          1           0       -7.595976   -3.491030   -2.675928
     79          1           0       -6.376715   -4.828822   -2.071186
 ---------------------------------------------------------------------

 SCF Done:  E(RB3LYP) =  -1947.87920791     A.U. after   16 cycles

 Excitation energies and oscillator strengths:

 Excited State   1:      Singlet-A      1.8246 eV  679.52 nm  f=0.2981  <S**2>=0.000
     155 ->156         0.70129
     155 <-156        -0.10533
 This state for optimization and/or second-order correction.
 Total Energy, E(TD-HF/TD-DFT) =  -1947.81215553
 Copying the excited state density for this state as the 1-particle RhoCI density.

 The electronic state is 1-A.
 Alpha  occ. eigenvalues --  -19.19994 -19.17339 -19.13572 -19.11332 -19.11020
 Alpha  occ. eigenvalues --  -19.09560 -14.38515 -14.36031 -14.35261 -14.29915
 Alpha  occ. eigenvalues --  -10.32844 -10.30325 -10.28432 -10.26748 -10.25087
 Alpha  occ. eigenvalues --  -10.24821 -10.23908 -10.23870 -10.23430 -10.22914
 Alpha  occ. eigenvalues --  -10.22844 -10.22638 -10.22352 -10.21406 -10.21368
 Alpha  occ. eigenvalues --  -10.21335 -10.21303 -10.21287 -10.21051 -10.20993
 Alpha  occ. eigenvalues --  -10.20297 -10.20157 -10.19769 -10.19318 -10.19293
 Alpha  occ. eigenvalues --  -10.19272 -10.19167 -10.19126 -10.18998 -10.18747
 Alpha  occ. eigenvalues --  -10.18684 -10.18509 -10.18425  -1.09747  -1.09084
 Alpha  occ. eigenvalues --   -1.02780  -1.01461  -1.00823  -0.98671  -0.97353
 Alpha  occ. eigenvalues --   -0.95578  -0.93791  -0.91285  -0.82973  -0.81824
 Alpha  occ. eigenvalues --   -0.81576  -0.81006  -0.80355  -0.79735  -0.77117
 Alpha  occ. eigenvalues --   -0.76578  -0.75950  -0.75616  -0.75186  -0.72247
 Alpha  occ. eigenvalues --   -0.71340  -0.70463  -0.70268  -0.68869  -0.67847
 Alpha  occ. eigenvalues --   -0.66355  -0.65561  -0.64479  -0.60751  -0.60267
 Alpha  occ. eigenvalues --   -0.58440  -0.57948  -0.57626  -0.57243  -0.56696
 Alpha  occ. eigenvalues --   -0.56486  -0.55881  -0.54225  -0.53605  -0.53119
 Alpha  occ. eigenvalues --   -0.51979  -0.51485  -0.50737  -0.49919  -0.49410
 Alpha  occ. eigenvalues --   -0.48782  -0.48091  -0.47819  -0.47647  -0.47522
 Alpha  occ. eigenvalues --   -0.47401  -0.46961  -0.46518  -0.46140  -0.45995
 Alpha  occ. eigenvalues --   -0.45615  -0.45280  -0.44988  -0.44576  -0.44416
 Alpha  occ. eigenvalues --   -0.43779  -0.43401  -0.42904  -0.42819  -0.42436
 Alpha  occ. eigenvalues --   -0.42030  -0.41903  -0.41268  -0.41201  -0.40881
 Alpha  occ. eigenvalues --   -0.40842  -0.40491  -0.40347  -0.39992  -0.39885
 Alpha  occ. eigenvalues --   -0.39371  -0.39282  -0.39123  -0.38895  -0.38496
 Alpha  occ. eigenvalues --   -0.38120  -0.37816  -0.37144  -0.36707  -0.36246
 Alpha  occ. eigenvalues --   -0.36078  -0.35699  -0.34897  -0.34673  -0.33903
 Alpha  occ. eigenvalues --   -0.33669  -0.33129  -0.32922  -0.31856  -0.31601
 Alpha  occ. eigenvalues --   -0.31081  -0.30799  -0.28960  -0.28475  -0.28152
 Alpha  occ. eigenvalues --   -0.26537  -0.26456  -0.25408  -0.25104  -0.24802
 Alpha  occ. eigenvalues --   -0.24486  -0.24322  -0.24031  -0.22316  -0.18766
 Alpha virt. eigenvalues --   -0.11470  -0.06615  -0.05028  -0.02285  -0.01874
 Alpha virt. eigenvalues --    0.00986   0.01786   0.01920   0.02207   0.03091
 Alpha virt. eigenvalues --    0.03628   0.04109   0.04592   0.05205   0.05324

 Mulliken charges:
               1
     1  O   -0.236416
     2  O   -0.163116
     3  O   -0.254435
     4  O   -0.247129
     5  O   -0.223752
     6  O   -0.173218
     7  N   -0.125976
     8  N   -0.236804
     9  N   -0.178200
    10  N   -0.353101
    11  C    0.116345
    12  C    0.424214
    13  C   -0.206958
    14  C   -0.075753
    15  C   -0.101972
    16  C    0.045778
    17  C   -0.136750
    18  C    0.033705
    19  C    0.001321
    20  C   -0.065462
    21  C    0.073571
    22  C    0.143435
    23  C    0.024299
    24  C    0.108697
    25  C   -0.040579
    26  C   -0.161748
    27  C   -0.000984
    28  C    0.189057
    29  C    0.016640
    30  C    0.011458
    31  C   -0.061980
    32  C    0.187719
    33  C   -0.104168
    34  C    0.124303
    35  C    0.062286
    36  C   -0.068273
    37  C    0.153996
    38  C    0.036468
    39  C   -0.186099
    40  C    0.153625
    41  C   -0.003465
    42  C    0.131468
    43  C   -0.062480
    44  H    0.008536
    45  H   -0.029293
    46  H   -0.079833
    47  H    0.142729
    48  H    0.152061
    49  H    0.028210
    50  H    0.019708
    51  H   -0.000809
    52  H   -0.039128
    53  H    0.016154
    54  H    0.051460
    55  H    0.044190
    56  H    0.062695
    57  H    0.058236
    58  H    0.046431
    59  H    0.049211
    60  H    0.186402
    61  H    0.002773
    62  H    0.038291
    63  H    0.002351
    64  H    0.067647
    65  H    0.047658
    66  H   -0.029491
    67  H    0.013415
    68  H    0.012273
    69  H   -0.030808
    70  H    0.006389
    71  H    0.030901
    72  H    0.167179
    73  H   -0.009934
    74  H    0.019571
    75  H    0.017327
    76  H    0.025022
    77  H    0.250925
    78  H    0.035835
    79  H    0.046148
 Sum of Mulliken charges =  -0.00000

 Dipole moment (field-independent basis, Debye):
    X=             -0.8745    Y=              1.2883    Z=              2.5262  Tot=              2.9675
 Quadrupole moment (field-independent basis, Debye-Ang):
   XX=           -221.2802   YY=           -242.5541   ZZ=           -263.9204
   XY=             -0.1655   XZ=             37.3629   YZ=              3.8806

 Normal termination of Gaussian 16 at Fri Sep 27 21:29:46 2019.
