 Gaussian 16, Revision A.03,
 Gaussian 16:  ES64L-G16RevA.03 25-Dec-2016

 --------------------------
 # td=(NStates=1) B3LYP/SVP
 --------------------------

 --
 TD
 --
 Symbolic Z-matrix:
 Charge =  0 Multiplicity = 1

                         Standard orientation:
 ---------------------------------------------------------------------
 Center     Atomic      Atomic             Coordinates (Angstroms)
 Number     Number       Type             X           Y           Z
 ---------------------------------------------------------------------
      1          8           0       -3.250326   -1.332335   -2.940841
      2          8           0        3.187784    2.835186    3.403289
      3          8           0        3.774313    0.949422    4.547346
      4          8           0        7.694688   -1.485674   -0.978106
      5          8           0        6.588986   -2.791446   -2.479675
      6          8           0       -2.717771    1.468462    1.491480
      7          7           0       -0.290374   -2.482149    0.764314
      8          7           0       -2.602565   -1.183452   -0.742521
      9          7           0        1.151997    0.256664   -0.795441
     10          7           0       -1.063859    1.511378   -0.130285
     11          6           0       -3.340546   -1.449367    0.494442
     12          6           0       -2.625091   -2.513476    1.518704
     13          6           0       -1.189941   -2.225221    1.611951
     14          6           0       -0.589547   -1.476923    2.693331
     15          6           0        0.816592   -1.364870    2.421097
     16          6           0        0.974486   -1.944254    1.230713
     17          6           0       -4.698344   -1.812886    0.150366
     18          6           0        1.939873   -0.661523    3.141992
     19          6           0       -4.882848   -1.923189   -1.239082
     20          6           0        2.063318   -1.874225    0.179989
     21          6           0        2.048427   -0.793280   -0.770650
     22          6           0       -3.530391   -1.418859   -1.751953
     23          6           0        2.983350   -0.518511   -1.780470
     24          6           0       -1.265679   -0.880508    3.824535
     25          6           0       -5.644891   -2.240016    1.235365
     26          6           0        2.532991    0.651544   -2.428905
     27          6           0        2.055435    0.899266    2.847835
     28          6           0        1.407132    1.118840   -1.720077
     29          6           0        4.216167   -1.333043   -2.105387
     30          6           0       -5.910637   -2.297076   -2.109402
     31          6           0        5.445557   -1.043851   -1.166355
     32          6           0        2.976767    1.408808   -3.673441
     33          6           0        0.540673    2.281124   -1.877914
     34          6           0        3.061103    1.552406    3.755683
     35          6           0       -0.629778    2.445188   -1.000438
     36          6           0       -7.026659   -2.978991   -1.871713
     37          6           0        6.585112   -1.880997   -1.722244
     38          6           0       -1.423156    3.600020   -0.953393
     39          6           0       -2.327065    3.413164    0.061969
     40          6           0       -2.082078    2.045592    0.563332
     41          6           0       -1.296577    4.754229   -1.717197
     42          6           0       -3.367963    4.216810    0.573578
     43          6           0       -2.064164    5.845751   -1.936507
     44          1           0       -3.464229   -0.687976    1.130590
     45          1           0       -2.712546   -3.498578    1.073659
     46          1           0       -2.910345   -2.474171    2.399508
     47          1           0       -0.727433   -2.605879   -0.088146
     48          1           0       -1.909463   -0.424441   -0.715284
     49          1           0        1.897865   -0.777011    4.166995
     50          1           0        2.966387   -0.966364    2.942865
     51          1           0        2.977791   -2.457674    0.202319
     52          1           0       -2.131181   -1.505216    4.135520
     53          1           0       -0.572022   -0.687635    4.744288
     54          1           0       -1.908221    0.112111    3.509339
     55          1           0       -5.523013   -1.634897    2.054009
     56          1           0       -5.480278   -3.341827    1.439440
     57          1           0       -6.719430   -2.120994    1.013153
     58          1           0        2.387885    1.172706    1.858108
     59          1           0        1.015743    1.305944    2.830648
     60          1           0        0.230771    0.453730   -0.253662
     61          1           0        4.577055   -1.222541   -3.213961
     62          1           0        4.064533   -2.451193   -2.089030
     63          1           0       -5.646562   -2.011440   -3.134587
     64          1           0        5.303598   -1.002937   -0.015632
     65          1           0        5.967764   -0.186868   -1.328575
     66          1           0        4.092604    1.283045   -3.801285
     67          1           0        3.091336    2.477989   -3.519040
     68          1           0        2.292224    1.288703   -4.669783
     69          1           0        0.686865    3.073451   -2.601786
     70          1           0       -7.236935   -3.260142   -0.746681
     71          1           0       -7.766251   -3.113080   -2.740408
     72          1           0        3.841935    3.114544    4.097635
     73          1           0       -0.287170    5.052747   -2.328140
     74          1           0       -4.080484    4.446201   -0.256418
     75          1           0       -3.710467    3.684689    1.352576
     76          1           0       -3.330654    5.196848    1.022737
     77          1           0        8.528629   -2.207705   -1.120603
     78          1           0       -1.702747    6.699353   -2.597658
     79          1           0       -3.201093    5.800432   -1.651645
 ---------------------------------------------------------------------

 SCF Done:  E(RB3LYP) =  -1947.83387306     A.U. after   21 cycles

 Excitation energies and oscillator strengths:

 Excited State   1:      Singlet-A      0.8243 eV 1504.15 nm  f=0.0101  <S**2>=0.000
     155 ->156         0.70500
 This state for optimization and/or second-order correction.
 Total Energy, E(TD-HF/TD-DFT) =  -1947.80358126
 Copying the excited state density for this state as the 1-particle RhoCI density.

 The electronic state is 1-A.
 Alpha  occ. eigenvalues --  -19.19506 -19.18928 -19.14929 -19.13274 -19.11374
 Alpha  occ. eigenvalues --  -19.07921 -14.37127 -14.36065 -14.33779 -14.30771
 Alpha  occ. eigenvalues --  -10.33318 -10.32349 -10.27511 -10.26791 -10.25843
 Alpha  occ. eigenvalues --  -10.25783 -10.25042 -10.24503 -10.23133 -10.22958
 Alpha  occ. eigenvalues --  -10.22327 -10.22317 -10.22117 -10.21612 -10.21575
 Alpha  occ. eigenvalues --  -10.21397 -10.21396 -10.21065 -10.20703 -10.20582
 Alpha  occ. eigenvalues --  -10.20181 -10.20095 -10.20047 -10.19272 -10.19198
 Alpha  occ. eigenvalues --  -10.19035 -10.18699 -10.18562 -10.18451 -10.18175
 Alpha  occ. eigenvalues --  -10.18061 -10.18042 -10.16510  -1.10811  -1.09659
 Alpha  occ. eigenvalues --   -1.02095  -1.01210  -1.00980  -1.00916  -1.00315
 Alpha  occ. eigenvalues --   -0.99283  -0.94573  -0.91914  -0.83873  -0.82607
 Alpha  occ. eigenvalues --   -0.82183  -0.81117  -0.80680  -0.79322  -0.78826
 Alpha  occ. eigenvalues --   -0.77762  -0.76960  -0.76218  -0.74776  -0.73106
 Alpha  occ. eigenvalues --   -0.71737  -0.70750  -0.70297  -0.68974  -0.68196
 Alpha  occ. eigenvalues --   -0.67338  -0.66577  -0.63992  -0.61588  -0.60300
 Alpha  occ. eigenvalues --   -0.59902  -0.59351  -0.59139  -0.57228  -0.56965
 Alpha  occ. eigenvalues --   -0.56700  -0.55780  -0.55477  -0.53768  -0.53472
 Alpha  occ. eigenvalues --   -0.52187  -0.51551  -0.50978  -0.50365  -0.49765
 Alpha  occ. eigenvalues --   -0.49646  -0.49500  -0.49270  -0.48684  -0.48104
 Alpha  occ. eigenvalues --   -0.47777  -0.47598  -0.47094  -0.46857  -0.46073
 Alpha  occ. eigenvalues --   -0.45922  -0.45320  -0.45214  -0.44308  -0.43895
 Alpha  occ. eigenvalues --   -0.43426  -0.43330  -0.43093  -0.42562  -0.42267
 Alpha  occ. eigenvalues --   -0.42212  -0.42157  -0.41653  -0.41540  -0.41330
 Alpha  occ. eigenvalues --   -0.41147  -0.41069  -0.40583  -0.40449  -0.39912
 Alpha  occ. eigenvalues --   -0.39589  -0.39372  -0.38974  -0.38580  -0.38344
 Alpha  occ. eigenvalues --   -0.38005  -0.37357  -0.37166  -0.36666  -0.36569
 Alpha  occ. eigenvalues --   -0.36393  -0.35798  -0.35722  -0.34997  -0.34417
 Alpha  occ. eigenvalues --   -0.33527  -0.33350  -0.33296  -0.32978  -0.32603
 Alpha  occ. eigenvalues --   -0.31653  -0.30942  -0.30031  -0.29499  -0.29221
 Alpha  occ. eigenvalues --   -0.28866  -0.26906  -0.25776  -0.25319  -0.24864
 Alpha  occ. eigenvalues --   -0.23410  -0.23153  -0.22210  -0.21953  -0.18495
 Alpha virt. eigenvalues --   -0.13133  -0.08577  -0.04657  -0.01734  -0.01634
 Alpha virt. eigenvalues --   -0.00296   0.00950   0.01914   0.02879   0.02944
 Alpha virt. eigenvalues --    0.03704   0.04261   0.04592   0.05163   0.05295

 Mulliken charges:
               1
     1  O   -0.240589
     2  O   -0.165255
     3  O   -0.247057
     4  O   -0.303916
     5  O   -0.180202
     6  O   -0.256088
     7  N    0.035352
     8  N   -0.213143
     9  N   -0.045310
    10  N   -0.289953
    11  C    0.157277
    12  C    0.399943
    13  C   -0.259375
    14  C   -0.138183
    15  C   -0.010434
    16  C   -0.006770
    17  C   -0.209864
    18  C    0.155778
    19  C   -0.025016
    20  C   -0.032366
    21  C    0.066207
    22  C    0.127986
    23  C   -0.030600
    24  C    0.007422
    25  C    0.119880
    26  C   -0.132081
    27  C   -0.052878
    28  C    0.076447
    29  C    0.022932
    30  C   -0.017585
    31  C   -0.001247
    32  C    0.060192
    33  C   -0.067128
    34  C    0.151122
    35  C    0.068428
    36  C   -0.062245
    37  C    0.157285
    38  C    0.155355
    39  C   -0.170492
    40  C    0.160453
    41  C   -0.113742
    42  C    0.119085
    43  C   -0.103152
    44  H   -0.013072
    45  H   -0.025456
    46  H   -0.127063
    47  H    0.090522
    48  H    0.155117
    49  H   -0.014711
    50  H   -0.012723
    51  H    0.015039
    52  H   -0.006114
    53  H    0.023516
    54  H    0.053130
    55  H   -0.008608
    56  H    0.047541
    57  H    0.024503
    58  H    0.026865
    59  H    0.055581
    60  H    0.196070
    61  H    0.041038
    62  H    0.041643
    63  H   -0.000402
    64  H    0.075435
    65  H    0.000169
    66  H    0.010867
    67  H    0.010789
    68  H    0.077475
    69  H   -0.021070
    70  H    0.026607
    71  H    0.040634
    72  H    0.178730
    73  H    0.021712
    74  H    0.037376
    75  H   -0.013957
    76  H    0.016979
    77  H    0.237677
    78  H    0.043270
    79  H    0.028415
 Sum of Mulliken charges =  -0.00000

 Dipole moment (field-independent basis, Debye):
    X=              3.9015    Y=              3.0832    Z=              0.2592  Tot=              4.9795
 Quadrupole moment (field-independent basis, Debye-Ang):
   XX=           -227.5094   YY=           -238.2646   ZZ=           -269.6637
   XY=              2.9444   XZ=            -18.7706   YZ=            -11.7300

 Normal termination of Gaussian 16 at Sun Jul 28 23:05:19 2019.
