 Gaussian 16, Revision A.03,
 Gaussian 16:  ES64L-G16RevA.03 25-Dec-2016

 --------------------------
 # td=(NStates=1) B3LYP/SVP
 --------------------------

 --
 TD
 --
 Symbolic Z-matrix:
 Charge =  0 Multiplicity = 1

                         Standard orientation:
 ---------------------------------------------------------------------
 Center     Atomic      Atomic             Coordinates (Angstroms)
 Number     Number       Type             X           Y           Z
 ---------------------------------------------------------------------
      1          8           0        5.306062   -0.430439   -3.380312
      2          8           0       -3.103484   -2.884310    2.957561
      3          8           0       -3.333157   -0.677525    3.218304
      4          8           0       -1.213013    7.128449    1.660375
      5          8           0       -0.793099    7.143401   -0.597888
      6          8           0       -1.929219   -3.911841    0.075372
      7          7           0        2.386761    0.924215    0.536764
      8          7           0        4.330873   -0.729563   -1.295612
      9          7           0       -1.830834    0.703923   -0.313671
     10          7           0       -2.668315   -1.797012   -0.521654
     11          6           0        4.786799   -1.278308   -0.043278
     12          6           0        4.479314   -0.309377    1.236055
     13          6           0        2.980213   -0.009667    1.381112
     14          6           0        1.970107   -0.682433    2.221078
     15          6           0        0.721055   -0.059079    1.830960
     16          6           0        1.024179    0.864724    0.782039
     17          6           0        6.291186   -1.492567   -0.100473
     18          6           0       -0.516734   -0.234598    2.572405
     19          6           0        6.616830   -0.916822   -1.350135
     20          6           0        0.248015    1.842716    0.152246
     21          6           0       -1.039273    1.868318   -0.213988
     22          6           0        5.345704   -0.591451   -2.188351
     23          6           0       -1.896391    2.964730   -0.778969
     24          6           0        2.232485   -1.849147    3.090966
     25          6           0        7.178269   -1.969687    0.877033
     26          6           0       -3.022179    2.424698   -1.345084
     27          6           0       -1.166057   -1.672320    2.565313
     28          6           0       -3.032646    0.978533   -1.060059
     29          6           0       -1.395180    4.401281   -0.924602
     30          6           0        7.864459   -0.706797   -2.067864
     31          6           0       -1.488282    5.036175    0.424755
     32          6           0       -4.213786    3.098515   -2.077304
     33          6           0       -3.901287    0.015057   -1.453035
     34          6           0       -2.567038   -1.648727    2.991017
     35          6           0       -3.747954   -1.386740   -1.147626
     36          6           0        9.082038   -0.920196   -1.572987
     37          6           0       -1.107594    6.470201    0.388534
     38          6           0       -4.788289   -2.508649   -1.379221
     39          6           0       -4.038504   -3.610982   -1.008202
     40          6           0       -2.701657   -3.246845   -0.384233
     41          6           0       -6.008805   -2.320877   -2.080924
     42          6           0       -4.584395   -5.151256   -1.011130
     43          6           0       -6.914655   -3.210894   -2.511904
     44          1           0        4.274278   -2.286864    0.328506
     45          1           0        5.246658    0.513478    0.938685
     46          1           0        4.752006   -0.651538    2.224644
     47          1           0        2.876151    1.547944    0.062376
     48          1           0        3.410621   -0.957134   -1.690931
     49          1           0       -0.216113   -0.107337    3.619868
     50          1           0       -1.187401    0.542446    2.316897
     51          1           0        0.817943    2.772546   -0.053591
     52          1           0        3.252349   -1.736395    3.644792
     53          1           0        1.360188   -1.618880    3.974633
     54          1           0        1.929482   -2.795043    2.720810
     55          1           0        6.509623   -2.706852    1.625188
     56          1           0        7.618882   -1.113061    1.312842
     57          1           0        8.016570   -2.607629    0.460253
     58          1           0       -1.065835   -2.319205    1.725392
     59          1           0       -0.490924   -2.336276    3.294589
     60          1           0       -1.815518   -0.381364   -0.054669
     61          1           0       -1.994209    4.961227   -1.645424
     62          1           0       -0.318096    4.578189   -1.081064
     63          1           0        7.869387   -0.374317   -3.214338
     64          1           0       -0.754976    4.581450    1.137182
     65          1           0       -2.488874    4.767720    0.967567
     66          1           0       -3.950591    4.132294   -2.327528
     67          1           0       -5.140427    3.069159   -1.438628
     68          1           0       -4.613594    2.418085   -2.951172
     69          1           0       -4.583519    0.265948   -2.023922
     70          1           0        9.216756   -0.996960   -0.380363
     71          1           0        9.900584   -0.862557   -2.200121
     72          1           0       -4.139455   -2.754702    3.123438
     73          1           0       -6.313224   -1.229326   -2.181653
     74          1           0       -5.468130   -5.377043   -0.412845
     75          1           0       -4.712943   -5.524985   -2.041618
     76          1           0       -3.780212   -5.805510   -0.895592
     77          1           0       -0.915057    8.019924    1.566639
     78          1           0       -7.746547   -3.021168   -3.119102
     79          1           0       -6.497601   -4.384268   -2.524678
 ---------------------------------------------------------------------

 SCF Done:  E(RB3LYP) =  -1947.84883657     A.U. after   16 cycles

 Excitation energies and oscillator strengths:

 Excited State   1:      Singlet-A      1.9894 eV  623.23 nm  f=0.4174  <S**2>=0.000
     155 ->156         0.70444
 This state for optimization and/or second-order correction.
 Total Energy, E(TD-HF/TD-DFT) =  -1947.77572864
 Copying the excited state density for this state as the 1-particle RhoCI density.

 The electronic state is 1-A.
 Alpha  occ. eigenvalues --  -19.17329 -19.17016 -19.13981 -19.12719 -19.11131
 Alpha  occ. eigenvalues --  -19.10733 -14.37976 -14.36495 -14.34666 -14.29489
 Alpha  occ. eigenvalues --  -10.33191 -10.31062 -10.28671 -10.27765 -10.26488
 Alpha  occ. eigenvalues --  -10.23942 -10.23832 -10.23817 -10.23763 -10.22905
 Alpha  occ. eigenvalues --  -10.22519 -10.22368 -10.22117 -10.22107 -10.21938
 Alpha  occ. eigenvalues --  -10.21628 -10.21560 -10.21273 -10.21074 -10.21035
 Alpha  occ. eigenvalues --  -10.20959 -10.20897 -10.20595 -10.20581 -10.20378
 Alpha  occ. eigenvalues --  -10.20346 -10.20217 -10.20131 -10.19816 -10.19320
 Alpha  occ. eigenvalues --  -10.19203 -10.19080 -10.17151  -1.08719  -1.07442
 Alpha  occ. eigenvalues --   -1.07232  -1.03632  -0.99561  -0.98480  -0.96576
 Alpha  occ. eigenvalues --   -0.95057  -0.94696  -0.92038  -0.83038  -0.82824
 Alpha  occ. eigenvalues --   -0.82454  -0.81233  -0.80429  -0.78843  -0.77777
 Alpha  occ. eigenvalues --   -0.77404  -0.76952  -0.75213  -0.74225  -0.72582
 Alpha  occ. eigenvalues --   -0.71516  -0.71099  -0.69616  -0.69146  -0.68362
 Alpha  occ. eigenvalues --   -0.67553  -0.65863  -0.64333  -0.60680  -0.60517
 Alpha  occ. eigenvalues --   -0.59328  -0.58812  -0.58375  -0.57185  -0.56960
 Alpha  occ. eigenvalues --   -0.55812  -0.55651  -0.55072  -0.53569  -0.53402
 Alpha  occ. eigenvalues --   -0.52038  -0.51933  -0.50910  -0.50189  -0.49975
 Alpha  occ. eigenvalues --   -0.49355  -0.48391  -0.48057  -0.47694  -0.47452
 Alpha  occ. eigenvalues --   -0.47222  -0.46905  -0.46421  -0.45963  -0.45793
 Alpha  occ. eigenvalues --   -0.45358  -0.45124  -0.44994  -0.44722  -0.44367
 Alpha  occ. eigenvalues --   -0.44028  -0.43836  -0.43393  -0.43177  -0.42856
 Alpha  occ. eigenvalues --   -0.42468  -0.42454  -0.42275  -0.41766  -0.41539
 Alpha  occ. eigenvalues --   -0.40916  -0.40900  -0.40332  -0.39662  -0.39484
 Alpha  occ. eigenvalues --   -0.39234  -0.38922  -0.38809  -0.38523  -0.38084
 Alpha  occ. eigenvalues --   -0.37853  -0.37848  -0.37663  -0.37645  -0.36722
 Alpha  occ. eigenvalues --   -0.36433  -0.35984  -0.35458  -0.34915  -0.34839
 Alpha  occ. eigenvalues --   -0.33474  -0.33333  -0.32715  -0.32186  -0.31918
 Alpha  occ. eigenvalues --   -0.31572  -0.30158  -0.29830  -0.29180  -0.28969
 Alpha  occ. eigenvalues --   -0.27603  -0.26671  -0.25942  -0.25453  -0.24722
 Alpha  occ. eigenvalues --   -0.24594  -0.23851  -0.23210  -0.22666  -0.18396
 Alpha virt. eigenvalues --   -0.10429  -0.06566  -0.05862  -0.02146  -0.01061
 Alpha virt. eigenvalues --   -0.00245   0.00596   0.01524   0.02159   0.03075
 Alpha virt. eigenvalues --    0.03675   0.04269   0.04514   0.04937   0.05446

 Mulliken charges:
               1
     1  O   -0.201612
     2  O   -0.225158
     3  O   -0.280773
     4  O   -0.233873
     5  O   -0.235109
     6  O   -0.073143
     7  N   -0.013482
     8  N   -0.139077
     9  N   -0.216644
    10  N   -0.338575
    11  C    0.045499
    12  C    0.118877
    13  C   -0.077830
    14  C   -0.133655
    15  C   -0.083217
    16  C    0.112947
    17  C   -0.128206
    18  C    0.127321
    19  C   -0.097416
    20  C   -0.137241
    21  C    0.142600
    22  C    0.131587
    23  C   -0.089546
    24  C    0.034703
    25  C    0.042490
    26  C   -0.111888
    27  C   -0.016096
    28  C    0.133399
    29  C    0.147908
    30  C   -0.044888
    31  C   -0.076354
    32  C    0.069140
    33  C    0.021335
    34  C    0.159794
    35  C    0.077260
    36  C   -0.040210
    37  C    0.175918
    38  C    0.092685
    39  C   -0.250919
    40  C    0.168899
    41  C   -0.050583
    42  C    0.106711
    43  C   -0.039106
    44  H    0.032034
    45  H    0.006587
    46  H   -0.003396
    47  H    0.069064
    48  H    0.140030
    49  H    0.014179
    50  H    0.005227
    51  H   -0.023162
    52  H    0.040972
    53  H    0.023562
    54  H    0.047318
    55  H    0.038797
    56  H    0.044248
    57  H    0.059211
    58  H    0.041860
    59  H    0.035257
    60  H    0.197273
    61  H    0.018783
    62  H    0.016870
    63  H    0.047743
    64  H    0.048469
    65  H    0.069977
    66  H    0.026648
    67  H    0.035354
    68  H    0.041698
    69  H   -0.178237
    70  H    0.026808
    71  H    0.002697
    72  H    0.217972
    73  H    0.012249
    74  H    0.047359
    75  H    0.011419
    76  H   -0.015343
    77  H    0.168866
    78  H    0.016249
    79  H    0.040889
 Sum of Mulliken charges =  -0.00000

 Dipole moment (field-independent basis, Debye):
    X=              0.8445    Y=             -0.1204    Z=              2.5832  Tot=              2.7204
 Quadrupole moment (field-independent basis, Debye-Ang):
   XX=           -223.2082   YY=           -250.8218   ZZ=           -266.5788
   XY=              0.0838   XZ=             35.6844   YZ=              2.1129

 Normal termination of Gaussian 16 at Wed Sep 18 02:09:53 2019.
