 Gaussian 16, Revision A.03,
 Gaussian 16:  ES64L-G16RevA.03 25-Dec-2016

 --------------------------
 # td=(NStates=1) B3LYP/SVP
 --------------------------

 --
 TD
 --
 Symbolic Z-matrix:
 Charge =  0 Multiplicity = 1

                         Standard orientation:
 ---------------------------------------------------------------------
 Center     Atomic      Atomic             Coordinates (Angstroms)
 Number     Number       Type             X           Y           Z
 ---------------------------------------------------------------------
      1          8           0       -3.298832   -1.606892   -2.723523
      2          8           0        3.041267    3.451085    2.698623
      3          8           0        3.617347    1.863081    4.195736
      4          8           0        7.699323   -1.594130   -0.337166
      5          8           0        6.856441   -3.090623   -1.887559
      6          8           0       -2.567862    1.714222    1.264138
      7          7           0       -0.326093   -2.323179    1.184625
      8          7           0       -2.683222   -1.135018   -0.518064
      9          7           0        1.094697   -0.168111   -0.774211
     10          7           0       -0.927118    1.371066   -0.337537
     11          6           0       -3.543423   -1.140595    0.677960
     12          6           0       -2.739351   -2.027000    1.847102
     13          6           0       -1.312529   -1.706822    1.999446
     14          6           0       -0.660012   -0.883383    2.888405
     15          6           0        0.750191   -0.940488    2.524463
     16          6           0        0.924682   -1.764033    1.347393
     17          6           0       -4.882329   -1.741744    0.392244
     18          6           0        1.846136   -0.059678    3.152586
     19          6           0       -4.862179   -2.010965   -0.932649
     20          6           0        1.962145   -1.938241    0.454903
     21          6           0        2.031639   -1.063688   -0.559553
     22          6           0       -3.528012   -1.628797   -1.497749
     23          6           0        3.056550   -0.902308   -1.621751
     24          6           0       -1.229773    0.014680    3.969296
     25          6           0       -6.010858   -1.898197    1.421637
     26          6           0        2.666729    0.166702   -2.449129
     27          6           0        1.843622    1.368326    2.550034
     28          6           0        1.438543    0.647936   -1.808902
     29          6           0        4.259971   -1.771854   -1.780490
     30          6           0       -5.851575   -2.620640   -1.893984
     31          6           0        5.455911   -1.271209   -0.975620
     32          6           0        3.251743    0.605692   -3.740882
     33          6           0        0.553321    1.696228   -2.190337
     34          6           0        2.908595    2.182971    3.345841
     35          6           0       -0.575471    2.096373   -1.471659
     36          6           0       -6.984722   -3.212796   -1.416543
     37          6           0        6.697643   -2.082794   -1.156076
     38          6           0       -1.263949    3.366421   -1.509137
     39          6           0       -2.214134    3.204994   -0.483101
     40          6           0       -1.929342    2.045192    0.242128
     41          6           0       -1.098360    4.346164   -2.554470
     42          6           0       -3.332168    4.118756   -0.159375
     43          6           0       -1.751620    5.538322   -2.828395
     44          1           0       -3.691372   -0.211935    1.138525
     45          1           0       -2.945025   -3.118056    1.435516
     46          1           0       -3.223640   -1.931191    2.827090
     47          1           0       -0.574943   -2.889422    0.401127
     48          1           0       -2.149202   -0.216348   -0.677518
     49          1           0        1.760242   -0.115819    4.265248
     50          1           0        2.869848   -0.492456    3.060393
     51          1           0        2.642154   -2.798398    0.638946
     52          1           0       -1.882353   -0.569375    4.661416
     53          1           0       -0.348329    0.404692    4.555963
     54          1           0       -1.953681    0.721212    3.581326
     55          1           0       -6.018420   -1.032046    2.056612
     56          1           0       -5.917460   -2.828437    2.051772
     57          1           0       -7.045397   -1.812460    0.924478
     58          1           0        2.184577    1.419483    1.472538
     59          1           0        0.761447    1.807153    2.673159
     60          1           0        0.311421   -0.062568   -0.283834
     61          1           0        4.772038   -1.983534   -2.596343
     62          1           0        3.929449   -2.837906   -1.346105
     63          1           0       -5.582913   -2.324238   -3.002337
     64          1           0        5.268489   -1.457522    0.112848
     65          1           0        5.501643   -0.171613   -1.013110
     66          1           0        3.988325   -0.148929   -4.216084
     67          1           0        3.588347    1.605980   -3.455151
     68          1           0        2.461685    0.643465   -4.491782
     69          1           0        0.813222    2.278210   -3.189862
     70          1           0       -7.221427   -3.376294   -0.360663
     71          1           0       -7.702810   -3.767388   -2.169100
     72          1           0        3.850540    3.781988    3.118946
     73          1           0       -0.181156    4.072048   -3.065699
     74          1           0       -4.154555    4.234565   -0.924502
     75          1           0       -3.789286    3.608635    0.752295
     76          1           0       -3.248994    5.149563    0.046117
     77          1           0        8.513931   -2.205959   -0.560311
     78          1           0       -1.175015    6.271341   -3.614299
     79          1           0       -2.566388    5.845154   -2.075129
 ---------------------------------------------------------------------

 SCF Done:  E(RB3LYP) =  -1947.90661709     A.U. after   21 cycles

 Excitation energies and oscillator strengths:

 Excited State   1:      Singlet-A      0.8720 eV 1421.78 nm  f=0.0049  <S**2>=0.000
     155 ->156         0.70244
 This state for optimization and/or second-order correction.
 Total Energy, E(TD-HF/TD-DFT) =  -1947.87457042
 Copying the excited state density for this state as the 1-particle RhoCI density.

 The electronic state is 1-A.
 Alpha  occ. eigenvalues --  -19.20203 -19.15909 -19.14908 -19.14101 -19.11238
 Alpha  occ. eigenvalues --  -19.07941 -14.37965 -14.36129 -14.33146 -14.29949
 Alpha  occ. eigenvalues --  -10.34459 -10.31516 -10.27908 -10.26529 -10.26338
 Alpha  occ. eigenvalues --  -10.25698 -10.25145 -10.24015 -10.23827 -10.22931
 Alpha  occ. eigenvalues --  -10.22693 -10.22469 -10.22348 -10.22343 -10.21948
 Alpha  occ. eigenvalues --  -10.21554 -10.21386 -10.21122 -10.21097 -10.20768
 Alpha  occ. eigenvalues --  -10.20581 -10.20487 -10.20463 -10.20122 -10.20001
 Alpha  occ. eigenvalues --  -10.19811 -10.19216 -10.19119 -10.18958 -10.18526
 Alpha  occ. eigenvalues --  -10.17820 -10.17764 -10.17054  -1.10131  -1.09049
 Alpha  occ. eigenvalues --   -1.03075  -1.01840  -1.00436  -1.00286  -0.99201
 Alpha  occ. eigenvalues --   -0.95548  -0.93811  -0.91109  -0.85269  -0.84066
 Alpha  occ. eigenvalues --   -0.81186  -0.80615  -0.80067  -0.79167  -0.78960
 Alpha  occ. eigenvalues --   -0.76612  -0.75390  -0.74815  -0.74608  -0.73147
 Alpha  occ. eigenvalues --   -0.71219  -0.70656  -0.69827  -0.69313  -0.67914
 Alpha  occ. eigenvalues --   -0.66433  -0.65160  -0.63629  -0.61704  -0.61207
 Alpha  occ. eigenvalues --   -0.59664  -0.59202  -0.58332  -0.58068  -0.56501
 Alpha  occ. eigenvalues --   -0.56060  -0.55389  -0.54087  -0.53638  -0.52895
 Alpha  occ. eigenvalues --   -0.52426  -0.52080  -0.50998  -0.50377  -0.49631
 Alpha  occ. eigenvalues --   -0.49343  -0.49045  -0.48602  -0.48528  -0.48283
 Alpha  occ. eigenvalues --   -0.47764  -0.47723  -0.47048  -0.46333  -0.45872
 Alpha  occ. eigenvalues --   -0.45619  -0.45219  -0.44669  -0.44367  -0.44317
 Alpha  occ. eigenvalues --   -0.43753  -0.43024  -0.42660  -0.42320  -0.42046
 Alpha  occ. eigenvalues --   -0.41656  -0.41367  -0.41117  -0.40968  -0.40752
 Alpha  occ. eigenvalues --   -0.40575  -0.40396  -0.40122  -0.39892  -0.39475
 Alpha  occ. eigenvalues --   -0.39209  -0.38908  -0.38792  -0.38443  -0.38182
 Alpha  occ. eigenvalues --   -0.37790  -0.37542  -0.37348  -0.36842  -0.36441
 Alpha  occ. eigenvalues --   -0.36080  -0.35536  -0.35241  -0.34372  -0.34286
 Alpha  occ. eigenvalues --   -0.33503  -0.33469  -0.33192  -0.32038  -0.31905
 Alpha  occ. eigenvalues --   -0.31581  -0.30195  -0.29795  -0.29270  -0.28787
 Alpha  occ. eigenvalues --   -0.28647  -0.27858  -0.25695  -0.25185  -0.23413
 Alpha  occ. eigenvalues --   -0.23210  -0.22854  -0.22603  -0.22054  -0.19256
 Alpha virt. eigenvalues --   -0.13550  -0.08395  -0.04011  -0.02844  -0.02544
 Alpha virt. eigenvalues --    0.00794   0.01168   0.01666   0.02189   0.02792
 Alpha virt. eigenvalues --    0.03472   0.03878   0.04759   0.05013   0.05197

 Mulliken charges:
               1
     1  O   -0.272513
     2  O   -0.250098
     3  O   -0.151348
     4  O   -0.236391
     5  O   -0.259587
     6  O   -0.248047
     7  N   -0.076494
     8  N   -0.207467
     9  N    0.099971
    10  N   -0.326126
    11  C    0.046707
    12  C    0.122932
    13  C   -0.039676
    14  C   -0.102075
    15  C   -0.114113
    16  C   -0.008307
    17  C   -0.129019
    18  C    0.055068
    19  C   -0.100277
    20  C   -0.165980
    21  C    0.134469
    22  C    0.139593
    23  C   -0.066918
    24  C    0.106289
    25  C    0.074624
    26  C   -0.126743
    27  C   -0.042969
    28  C    0.079962
    29  C    0.115653
    30  C    0.002590
    31  C   -0.025563
    32  C    0.098387
    33  C   -0.131984
    34  C    0.135105
    35  C    0.113045
    36  C   -0.070272
    37  C    0.181502
    38  C    0.036823
    39  C   -0.125548
    40  C    0.139802
    41  C   -0.017190
    42  C    0.046871
    43  C   -0.059511
    44  H    0.020900
    45  H   -0.006265
    46  H   -0.008483
    47  H    0.097423
    48  H    0.187628
    49  H    0.020282
    50  H   -0.011838
    51  H    0.023411
    52  H   -0.003650
    53  H    0.013041
    54  H    0.033556
    55  H    0.009664
    56  H    0.049670
    57  H    0.040481
    58  H    0.049444
    59  H    0.081902
    60  H    0.103988
    61  H   -0.027618
    62  H    0.035264
    63  H    0.053262
    64  H    0.046373
    65  H    0.049395
    66  H    0.050696
    67  H    0.044156
    68  H    0.040510
    69  H    0.024192
    70  H    0.025052
    71  H    0.036978
    72  H    0.159362
    73  H   -0.019512
    74  H    0.027607
    75  H    0.034600
    76  H    0.017645
    77  H    0.218195
    78  H    0.064805
    79  H    0.042707
 Sum of Mulliken charges =  -0.00000

 Dipole moment (field-independent basis, Debye):
    X=              4.0845    Y=              2.1030    Z=             -1.0004  Tot=              4.7017
 Quadrupole moment (field-independent basis, Debye-Ang):
   XX=           -230.2213   YY=           -246.2094   ZZ=           -265.4666
   XY=              1.3637   XZ=            -23.1594   YZ=            -18.6488

 Normal termination of Gaussian 16 at Mon Jul 29 06:22:54 2019.
