 Gaussian 16, Revision A.03,
 Gaussian 16:  ES64L-G16RevA.03 25-Dec-2016

 --------------------------
 # td=(NStates=1) B3LYP/SVP
 --------------------------

 --
 TD
 --
 Symbolic Z-matrix:
 Charge =  0 Multiplicity = 1

                         Standard orientation:
 ---------------------------------------------------------------------
 Center     Atomic      Atomic             Coordinates (Angstroms)
 Number     Number       Type             X           Y           Z
 ---------------------------------------------------------------------
      1          8           0       -3.270315   -1.051386   -2.996350
      2          8           0        3.038110    2.994025    3.125594
      3          8           0        3.797095    1.233196    4.390289
      4          8           0        7.825575   -1.593922   -0.916948
      5          8           0        6.539359   -3.016150   -2.141382
      6          8           0       -2.651270    1.411647    1.549120
      7          7           0       -0.235244   -2.501714    0.747720
      8          7           0       -2.643258   -1.167258   -0.748579
      9          7           0        1.038712    0.081799   -0.723030
     10          7           0       -1.017395    1.490381   -0.084409
     11          6           0       -3.336184   -1.460351    0.542340
     12          6           0       -2.530142   -2.500849    1.451256
     13          6           0       -1.083178   -2.193915    1.698304
     14          6           0       -0.514210   -1.495066    2.742559
     15          6           0        0.793206   -1.375143    2.390692
     16          6           0        1.047984   -1.956966    1.069164
     17          6           0       -4.675856   -1.992078    0.120361
     18          6           0        1.799758   -0.570616    3.114700
     19          6           0       -4.858618   -1.889405   -1.276777
     20          6           0        2.065655   -1.858994    0.155494
     21          6           0        2.129306   -0.871326   -0.742952
     22          6           0       -3.489744   -1.391146   -1.781700
     23          6           0        3.119014   -0.477824   -1.760094
     24          6           0       -1.325558   -0.919130    3.887291
     25          6           0       -5.796985   -2.317425    1.134334
     26          6           0        2.600381    0.727217   -2.230840
     27          6           0        1.750842    0.945728    3.032479
     28          6           0        1.315915    1.119645   -1.681458
     29          6           0        4.311163   -1.224024   -2.186875
     30          6           0       -5.919674   -2.236897   -2.142203
     31          6           0        5.567295   -0.934917   -1.309523
     32          6           0        3.202059    1.539812   -3.347768
     33          6           0        0.532323    2.211158   -1.884963
     34          6           0        3.084035    1.638503    3.525615
     35          6           0       -0.617130    2.374012   -1.001389
     36          6           0       -6.848499   -3.272449   -1.885259
     37          6           0        6.705453   -1.889011   -1.561443
     38          6           0       -1.448971    3.555048   -0.986983
     39          6           0       -2.469994    3.358356   -0.066058
     40          6           0       -2.124647    2.018080    0.597082
     41          6           0       -1.306803    4.699895   -1.906482
     42          6           0       -3.515169    4.240126    0.486219
     43          6           0       -2.191717    5.822686   -1.971034
     44          1           0       -3.416948   -0.472392    1.143849
     45          1           0       -2.460928   -3.646218    1.377884
     46          1           0       -2.973415   -2.424595    2.512713
     47          1           0       -0.352517   -2.828140   -0.331667
     48          1           0       -1.849341   -0.359090   -0.739481
     49          1           0        1.665454   -0.803204    4.227334
     50          1           0        2.795695   -1.010873    2.835922
     51          1           0        3.008986   -2.504155    0.008442
     52          1           0       -2.066905   -1.636533    4.216626
     53          1           0       -0.688860   -0.437644    4.656834
     54          1           0       -1.699076   -0.043025    3.684268
     55          1           0       -5.611227   -1.552646    1.881805
     56          1           0       -6.031366   -3.361118    1.353414
     57          1           0       -6.930595   -1.926321    0.925337
     58          1           0        1.727420    1.223335    1.952526
     59          1           0        0.737402    1.258314    3.609508
     60          1           0        0.375038    0.380442    0.014955
     61          1           0        4.484016   -0.952820   -3.314535
     62          1           0        3.900328   -2.244956   -2.279689
     63          1           0       -5.611717   -1.680486   -3.109187
     64          1           0        5.217841   -1.093440   -0.282863
     65          1           0        5.826685    0.166996   -1.451166
     66          1           0        4.199639    1.111125   -3.764024
     67          1           0        3.771066    2.409961   -2.804631
     68          1           0        2.458774    1.966817   -4.207900
     69          1           0        0.945157    2.971869   -2.465905
     70          1           0       -6.883299   -3.900727   -0.887455
     71          1           0       -7.754318   -3.497907   -2.663898
     72          1           0        3.753543    3.426101    3.635029
     73          1           0       -0.503086    4.446788   -2.581345
     74          1           0       -4.309976    4.410346   -0.231585
     75          1           0       -4.172578    3.792212    1.302215
     76          1           0       -2.996219    5.119480    1.106076
     77          1           0        8.508533   -2.308531   -1.228965
     78          1           0       -1.887872    6.694355   -2.622341
     79          1           0       -3.231325    5.628548   -1.247146
 ---------------------------------------------------------------------

 SCF Done:  E(RB3LYP) =  -1947.80992529     A.U. after   20 cycles

 Excitation energies and oscillator strengths:

 Excited State   1:      Singlet-A      0.9068 eV 1367.31 nm  f=0.0023  <S**2>=0.000
     155 ->156         0.70182
 This state for optimization and/or second-order correction.
 Total Energy, E(TD-HF/TD-DFT) =  -1947.77660195
 Copying the excited state density for this state as the 1-particle RhoCI density.

 The electronic state is 1-A.
 Alpha  occ. eigenvalues --  -19.21153 -19.17680 -19.14029 -19.13448 -19.13415
 Alpha  occ. eigenvalues --  -19.07156 -14.37309 -14.36216 -14.33859 -14.31640
 Alpha  occ. eigenvalues --  -10.34057 -10.32520 -10.29426 -10.26462 -10.26122
 Alpha  occ. eigenvalues --  -10.26082 -10.24907 -10.23821 -10.23579 -10.23383
 Alpha  occ. eigenvalues --  -10.23272 -10.23116 -10.22848 -10.22810 -10.22158
 Alpha  occ. eigenvalues --  -10.21909 -10.21772 -10.21539 -10.21443 -10.21357
 Alpha  occ. eigenvalues --  -10.21196 -10.21026 -10.20829 -10.20020 -10.20016
 Alpha  occ. eigenvalues --  -10.19948 -10.19789 -10.19733 -10.18793 -10.18583
 Alpha  occ. eigenvalues --  -10.17302 -10.16818 -10.16088  -1.10900  -1.08674
 Alpha  occ. eigenvalues --   -1.02897  -1.00839  -0.98915  -0.97421  -0.97136
 Alpha  occ. eigenvalues --   -0.96313  -0.94183  -0.89928  -0.83994  -0.82884
 Alpha  occ. eigenvalues --   -0.81421  -0.80359  -0.79364  -0.78871  -0.78698
 Alpha  occ. eigenvalues --   -0.76532  -0.75454  -0.75169  -0.73488  -0.72493
 Alpha  occ. eigenvalues --   -0.70843  -0.70259  -0.69285  -0.68064  -0.67821
 Alpha  occ. eigenvalues --   -0.66582  -0.65486  -0.63442  -0.61722  -0.60409
 Alpha  occ. eigenvalues --   -0.59679  -0.59167  -0.57998  -0.57141  -0.56078
 Alpha  occ. eigenvalues --   -0.55485  -0.54671  -0.54028  -0.53162  -0.52963
 Alpha  occ. eigenvalues --   -0.51667  -0.51426  -0.50870  -0.49903  -0.49586
 Alpha  occ. eigenvalues --   -0.49155  -0.48619  -0.48334  -0.48212  -0.47778
 Alpha  occ. eigenvalues --   -0.47566  -0.46551  -0.46207  -0.45708  -0.45441
 Alpha  occ. eigenvalues --   -0.45265  -0.44879  -0.44382  -0.43913  -0.43532
 Alpha  occ. eigenvalues --   -0.43133  -0.43094  -0.42539  -0.42447  -0.42189
 Alpha  occ. eigenvalues --   -0.41921  -0.41731  -0.41564  -0.41231  -0.40743
 Alpha  occ. eigenvalues --   -0.40430  -0.40175  -0.40079  -0.39927  -0.39677
 Alpha  occ. eigenvalues --   -0.39407  -0.38754  -0.38577  -0.37938  -0.37759
 Alpha  occ. eigenvalues --   -0.37291  -0.36953  -0.36688  -0.36608  -0.36319
 Alpha  occ. eigenvalues --   -0.35866  -0.35245  -0.34770  -0.34539  -0.34193
 Alpha  occ. eigenvalues --   -0.33117  -0.32856  -0.32589  -0.32413  -0.31612
 Alpha  occ. eigenvalues --   -0.31244  -0.29584  -0.29280  -0.29136  -0.28817
 Alpha  occ. eigenvalues --   -0.28446  -0.26881  -0.26548  -0.24086  -0.23708
 Alpha  occ. eigenvalues --   -0.23444  -0.22823  -0.22426  -0.21560  -0.18763
 Alpha virt. eigenvalues --   -0.13009  -0.08005  -0.05094  -0.03148  -0.02936
 Alpha virt. eigenvalues --   -0.02140   0.00978   0.01408   0.01962   0.02343
 Alpha virt. eigenvalues --    0.03237   0.04151   0.04621   0.04783   0.05096

 Mulliken charges:
               1
     1  O   -0.315489
     2  O   -0.232584
     3  O   -0.187350
     4  O   -0.179499
     5  O   -0.291132
     6  O   -0.214333
     7  N   -0.091629
     8  N   -0.250589
     9  N   -0.198218
    10  N   -0.318986
    11  C    0.093233
    12  C    0.145100
    13  C   -0.163510
    14  C   -0.102049
    15  C   -0.098149
    16  C    0.082874
    17  C   -0.139194
    18  C    0.048829
    19  C   -0.064623
    20  C   -0.184823
    21  C    0.077817
    22  C    0.161732
    23  C   -0.032071
    24  C    0.221043
    25  C    0.024887
    26  C   -0.123767
    27  C   -0.021717
    28  C    0.152793
    29  C    0.052812
    30  C   -0.000993
    31  C    0.032123
    32  C   -0.002708
    33  C   -0.071507
    34  C    0.154035
    35  C    0.132363
    36  C   -0.109530
    37  C    0.164641
    38  C   -0.002802
    39  C   -0.202274
    40  C    0.190539
    41  C    0.007370
    42  C    0.039221
    43  C   -0.064821
    44  H    0.086405
    45  H    0.014929
    46  H   -0.020570
    47  H    0.178054
    48  H    0.196707
    49  H    0.011790
    50  H   -0.002279
    51  H   -0.003509
    52  H    0.022215
    53  H   -0.030898
    54  H   -0.039424
    55  H    0.020037
    56  H    0.046460
    57  H    0.026879
    58  H    0.019343
    59  H    0.073093
    60  H    0.203937
    61  H    0.033391
    62  H    0.040859
    63  H    0.043256
    64  H    0.053709
    65  H    0.048600
    66  H    0.019531
    67  H    0.033307
    68  H    0.079039
    69  H   -0.032478
    70  H    0.051507
    71  H    0.053825
    72  H    0.174894
    73  H   -0.016101
    74  H    0.045695
    75  H    0.023677
    76  H    0.072937
    77  H    0.223052
    78  H    0.055126
    79  H    0.075940
 Sum of Mulliken charges =  -0.00000

 Dipole moment (field-independent basis, Debye):
    X=              3.9329    Y=              4.4756    Z=              0.0967  Tot=              5.9589
 Quadrupole moment (field-independent basis, Debye-Ang):
   XX=           -225.7392   YY=           -237.9080   ZZ=           -272.6996
   XY=              5.2810   XZ=            -28.2609   YZ=            -11.2298

 Normal termination of Gaussian 16 at Mon Jul 29 14:16:06 2019.
