 Gaussian 16, Revision A.03,
 Gaussian 16:  ES64L-G16RevA.03 25-Dec-2016

 --------------------------
 # td=(NStates=1) B3LYP/SVP
 --------------------------

 --
 TD
 --
 Symbolic Z-matrix:
 Charge =  0 Multiplicity = 1

                         Standard orientation:
 ---------------------------------------------------------------------
 Center     Atomic      Atomic             Coordinates (Angstroms)
 Number     Number       Type             X           Y           Z
 ---------------------------------------------------------------------
      1          8           0        5.348744   -0.157695   -3.353441
      2          8           0       -3.225570   -2.723309    3.096520
      3          8           0       -3.373703   -0.578130    2.774014
      4          8           0       -1.353963    7.135075    1.522487
      5          8           0       -0.377673    6.921573   -0.503195
      6          8           0       -1.838699   -3.972947    0.216150
      7          7           0        2.290381    1.004567    0.646651
      8          7           0        4.402596   -0.657576   -1.248371
      9          7           0       -1.876531    0.714109   -0.447902
     10          7           0       -2.586732   -1.916871   -0.436887
     11          6           0        4.734269   -1.226590    0.030860
     12          6           0        4.398506   -0.299785    1.239243
     13          6           0        2.953482    0.029474    1.367267
     14          6           0        1.940324   -0.663325    2.070835
     15          6           0        0.697958    0.035074    1.772977
     16          6           0        0.952238    1.075940    0.887175
     17          6           0        6.234676   -1.474051   -0.124333
     18          6           0       -0.614266   -0.241138    2.492974
     19          6           0        6.622065   -0.901375   -1.367557
     20          6           0        0.176349    1.925813    0.201575
     21          6           0       -1.145162    1.850686   -0.294999
     22          6           0        5.425288   -0.505022   -2.198654
     23          6           0       -1.866195    2.923037   -0.883559
     24          6           0        2.153828   -1.700310    3.141891
     25          6           0        6.928807   -2.170611    0.977327
     26          6           0       -3.038696    2.318253   -1.352356
     27          6           0       -1.279363   -1.557662    2.642572
     28          6           0       -3.012444    0.997502   -1.109830
     29          6           0       -1.592943    4.343025   -1.021846
     30          6           0        7.937374   -0.943317   -1.948192
     31          6           0       -1.756593    5.028562    0.411705
     32          6           0       -4.208507    3.066894   -2.004916
     33          6           0       -3.882332   -0.032534   -1.392974
     34          6           0       -2.720521   -1.541478    2.818137
     35          6           0       -3.546087   -1.434875   -1.143287
     36          6           0        9.109757   -0.839940   -1.416717
     37          6           0       -1.109233    6.402958    0.390861
     38          6           0       -4.492660   -2.558051   -1.516279
     39          6           0       -3.922632   -3.683465   -0.923797
     40          6           0       -2.745031   -3.306119   -0.277969
     41          6           0       -5.720778   -2.489279   -2.308121
     42          6           0       -4.305539   -5.160545   -0.895164
     43          6           0       -6.658440   -3.513217   -2.528122
     44          1           0        4.098868   -2.205647    0.129176
     45          1           0        4.839521    0.758968    1.080144
     46          1           0        4.705685   -0.744247    2.305338
     47          1           0        2.934361    1.805286   -0.057832
     48          1           0        3.380487   -0.813172   -1.432044
     49          1           0       -0.408600    0.191598    3.477306
     50          1           0       -1.356818    0.375507    2.045241
     51          1           0        0.690522    2.933772    0.070336
     52          1           0        3.256908   -1.961627    3.048697
     53          1           0        1.977248   -1.372241    4.149177
     54          1           0        1.407241   -2.589571    3.118587
     55          1           0        6.458571   -3.325985    1.002995
     56          1           0        6.973281   -1.606194    2.176551
     57          1           0        8.231756   -2.152162    0.505279
     58          1           0       -1.020249   -2.131861    1.819178
     59          1           0       -0.875806   -2.252969    3.211986
     60          1           0       -1.443938   -0.264514   -0.305532
     61          1           0       -2.372591    4.877653   -1.576823
     62          1           0       -0.522171    4.614517   -1.383380
     63          1           0        7.918158   -0.560014   -2.951442
     64          1           0       -1.195432    4.457094    1.157557
     65          1           0       -2.746415    5.051905    0.901094
     66          1           0       -4.159384    4.156870   -1.976660
     67          1           0       -5.249258    2.847018   -1.374409
     68          1           0       -4.448229    2.764731   -2.963509
     69          1           0       -4.758493    0.051205   -2.135053
     70          1           0        9.017697   -0.824448   -0.364657
     71          1           0        9.970958   -1.024937   -2.023775
     72          1           0       -3.931705   -2.551844    3.422158
     73          1           0       -6.073342   -1.455040   -2.602549
     74          1           0       -5.176317   -5.231008   -0.152780
     75          1           0       -4.505340   -5.544765   -1.940709
     76          1           0       -3.428876   -5.829837   -0.387742
     77          1           0       -1.189239    8.102108    1.372766
     78          1           0       -7.487030   -3.401843   -3.110994
     79          1           0       -6.438096   -4.677609   -2.288759
 ---------------------------------------------------------------------

 SCF Done:  E(RB3LYP) =  -1947.76678009     A.U. after   21 cycles

 Excitation energies and oscillator strengths:

 Excited State   1:      Singlet-A      1.9193 eV  645.98 nm  f=0.4754  <S**2>=0.000
     154 ->156         0.14061
     155 ->156         0.69182
     155 <-156        -0.13432
 This state for optimization and/or second-order correction.
 Total Energy, E(TD-HF/TD-DFT) =  -1947.69624671
 Copying the excited state density for this state as the 1-particle RhoCI density.

 The electronic state is 1-A.
 Alpha  occ. eigenvalues --  -19.18504 -19.15422 -19.13201 -19.11504 -19.10722
 Alpha  occ. eigenvalues --  -19.10055 -14.39840 -14.35977 -14.35688 -14.27947
 Alpha  occ. eigenvalues --  -10.33386 -10.29919 -10.29610 -10.26077 -10.25762
 Alpha  occ. eigenvalues --  -10.25281 -10.24040 -10.23896 -10.23754 -10.23228
 Alpha  occ. eigenvalues --  -10.23042 -10.22721 -10.22511 -10.22362 -10.21904
 Alpha  occ. eigenvalues --  -10.21869 -10.21443 -10.21441 -10.20845 -10.20516
 Alpha  occ. eigenvalues --  -10.20511 -10.20448 -10.20403 -10.19880 -10.19877
 Alpha  occ. eigenvalues --  -10.19569 -10.19491 -10.19293 -10.18842 -10.18729
 Alpha  occ. eigenvalues --  -10.18711 -10.18125 -10.16022  -1.13510  -1.08318
 Alpha  occ. eigenvalues --   -1.03491  -1.02450  -1.00956  -0.99814  -0.98543
 Alpha  occ. eigenvalues --   -0.98399  -0.94632  -0.92403  -0.83203  -0.82661
 Alpha  occ. eigenvalues --   -0.82329  -0.81150  -0.80012  -0.79202  -0.78094
 Alpha  occ. eigenvalues --   -0.77687  -0.77280  -0.75837  -0.74374  -0.72372
 Alpha  occ. eigenvalues --   -0.71428  -0.71025  -0.69422  -0.68887  -0.68024
 Alpha  occ. eigenvalues --   -0.67842  -0.66153  -0.64041  -0.61857  -0.61821
 Alpha  occ. eigenvalues --   -0.60938  -0.60252  -0.58461  -0.57285  -0.56769
 Alpha  occ. eigenvalues --   -0.56281  -0.55727  -0.54779  -0.54318  -0.52727
 Alpha  occ. eigenvalues --   -0.52476  -0.51205  -0.50824  -0.50656  -0.50345
 Alpha  occ. eigenvalues --   -0.49888  -0.49131  -0.48461  -0.47913  -0.47575
 Alpha  occ. eigenvalues --   -0.47533  -0.47050  -0.46450  -0.46138  -0.45687
 Alpha  occ. eigenvalues --   -0.45206  -0.44592  -0.43958  -0.43773  -0.43698
 Alpha  occ. eigenvalues --   -0.43595  -0.42892  -0.42853  -0.42428  -0.42338
 Alpha  occ. eigenvalues --   -0.41898  -0.41655  -0.41372  -0.41222  -0.40773
 Alpha  occ. eigenvalues --   -0.40672  -0.40463  -0.40235  -0.40013  -0.39997
 Alpha  occ. eigenvalues --   -0.39733  -0.39353  -0.39175  -0.39112  -0.38586
 Alpha  occ. eigenvalues --   -0.38055  -0.37993  -0.37434  -0.37345  -0.36925
 Alpha  occ. eigenvalues --   -0.36849  -0.36036  -0.35610  -0.34109  -0.33747
 Alpha  occ. eigenvalues --   -0.33376  -0.33131  -0.32877  -0.32035  -0.31915
 Alpha  occ. eigenvalues --   -0.31203  -0.30904  -0.28900  -0.28406  -0.27275
 Alpha  occ. eigenvalues --   -0.27228  -0.26750  -0.26151  -0.25476  -0.24473
 Alpha  occ. eigenvalues --   -0.24231  -0.23972  -0.23788  -0.21935  -0.18498
 Alpha virt. eigenvalues --   -0.11194  -0.07577  -0.07188  -0.02137  -0.01472
 Alpha virt. eigenvalues --   -0.00613   0.00122   0.00911   0.02052   0.03196
 Alpha virt. eigenvalues --    0.03610   0.03657   0.04079   0.04721   0.05048

 Mulliken charges:
               1
     1  O   -0.191639
     2  O   -0.029752
     3  O   -0.186240
     4  O   -0.214943
     5  O   -0.274934
     6  O   -0.209744
     7  N   -0.166903
     8  N   -0.237863
     9  N   -0.069830
    10  N   -0.238376
    11  C    0.057085
    12  C    0.144538
    13  C   -0.102236
    14  C   -0.117621
    15  C   -0.149857
    16  C    0.152678
    17  C   -0.074163
    18  C    0.140213
    19  C   -0.109654
    20  C   -0.140681
    21  C    0.037950
    22  C    0.207968
    23  C   -0.047907
    24  C    0.066598
    25  C   -0.130770
    26  C   -0.119233
    27  C    0.154891
    28  C    0.160214
    29  C    0.085891
    30  C   -0.019639
    31  C   -0.021013
    32  C    0.086802
    33  C   -0.136123
    34  C    0.047788
    35  C    0.023658
    36  C    0.021463
    37  C    0.160170
    38  C    0.027197
    39  C   -0.181536
    40  C    0.134651
    41  C   -0.043802
    42  C    0.016454
    43  C   -0.036589
    44  H    0.039792
    45  H    0.006373
    46  H    0.041978
    47  H    0.193018
    48  H    0.139470
    49  H    0.001031
    50  H   -0.006421
    51  H   -0.002356
    52  H    0.006637
    53  H    0.014146
    54  H    0.042198
    55  H    0.078245
    56  H    0.089673
    57  H    0.058444
    58  H   -0.002462
    59  H   -0.062843
    60  H    0.176811
    61  H    0.018512
    62  H    0.056774
    63  H    0.005926
    64  H    0.042298
    65  H    0.043560
    66  H    0.008094
    67  H    0.033218
    68  H    0.010984
    69  H   -0.000815
    70  H    0.004370
    71  H    0.029837
    72  H    0.055450
    73  H    0.010177
    74  H    0.043435
    75  H    0.048211
    76  H    0.052064
    77  H    0.201299
    78  H    0.002739
    79  H    0.044971
 Sum of Mulliken charges =  -0.00000

 Dipole moment (field-independent basis, Debye):
    X=              0.7542    Y=              2.4393    Z=              3.4152  Tot=              4.2641
 Quadrupole moment (field-independent basis, Debye-Ang):
   XX=           -225.8524   YY=           -247.3816   ZZ=           -259.3915
   XY=            -12.8879   XZ=             29.5410   YZ=              3.7383

 Normal termination of Gaussian 16 at Fri Sep 13 21:15:30 2019.
