 Gaussian 16, Revision A.03,
 Gaussian 16:  ES64L-G16RevA.03 25-Dec-2016

 --------------------------
 # td=(NStates=1) B3LYP/SVP
 --------------------------

 --
 TD
 --
 Symbolic Z-matrix:
 Charge =  0 Multiplicity = 1

                         Standard orientation:
 ---------------------------------------------------------------------
 Center     Atomic      Atomic             Coordinates (Angstroms)
 Number     Number       Type             X           Y           Z
 ---------------------------------------------------------------------
      1          8           0        5.351709   -0.127633   -3.261398
      2          8           0       -2.949691   -2.888663    3.376785
      3          8           0       -3.317982   -0.709764    3.186667
      4          8           0       -2.430648    7.183795    1.192420
      5          8           0       -0.951184    6.889477   -0.581031
      6          8           0       -1.328039   -4.018190    0.269470
      7          7           0        2.289325    1.244259    0.589925
      8          7           0        4.332668   -0.576884   -1.260561
      9          7           0       -1.899708    0.661833   -0.397906
     10          7           0       -2.304684   -1.952122   -0.453716
     11          6           0        4.733943   -0.938563    0.085687
     12          6           0        4.377146    0.019133    1.104126
     13          6           0        2.951676    0.278280    1.285676
     14          6           0        1.881229   -0.412341    2.052603
     15          6           0        0.701268    0.140041    1.697532
     16          6           0        0.903864    1.134556    0.686771
     17          6           0        6.257316   -0.990891   -0.023714
     18          6           0       -0.659589   -0.098065    2.554152
     19          6           0        6.658918   -0.693157   -1.292631
     20          6           0        0.015142    2.101735   -0.063977
     21          6           0       -1.286198    1.881283   -0.416028
     22          6           0        5.407473   -0.445729   -2.128787
     23          6           0       -2.169680    2.824370   -0.991113
     24          6           0        2.188284   -1.399763    3.180892
     25          6           0        7.235883   -1.334005    1.173453
     26          6           0       -3.314281    2.105195   -1.409353
     27          6           0       -1.088096   -1.661362    2.701329
     28          6           0       -3.049099    0.731412   -1.112999
     29          6           0       -1.873513    4.242025   -0.973019
     30          6           0        7.992158   -0.621817   -2.030624
     31          6           0       -2.058151    5.028616    0.388086
     32          6           0       -4.616811    2.765395   -1.995661
     33          6           0       -3.875123   -0.421984   -1.438240
     34          6           0       -2.523170   -1.692656    3.099179
     35          6           0       -3.584761   -1.749362   -0.996212
     36          6           0        9.150023   -0.781088   -1.445996
     37          6           0       -1.707849    6.444238    0.278379
     38          6           0       -4.184202   -2.939061   -1.610355
     39          6           0       -3.423582   -3.972158   -1.116703
     40          6           0       -2.278691   -3.393449   -0.345994
     41          6           0       -5.498505   -2.952914   -2.227636
     42          6           0       -3.732303   -5.494208   -0.886019
     43          6           0       -6.247337   -4.029983   -2.625877
     44          1           0        4.315390   -1.775572    0.066525
     45          1           0        5.088940    0.745495    1.043866
     46          1           0        4.800656   -0.155353    2.115882
     47          1           0        2.595507    1.811319   -0.239054
     48          1           0        3.330914   -0.427947   -1.433805
     49          1           0       -0.627395    0.257957    3.547294
     50          1           0       -1.554587    0.540686    1.976006
     51          1           0        0.365890    3.151634    0.001360
     52          1           0        3.305116   -1.524374    3.409145
     53          1           0        1.699026   -0.962608    4.022076
     54          1           0        1.730320   -2.363627    3.022610
     55          1           0        6.751645   -1.942189    1.918793
     56          1           0        7.430121   -0.378652    1.756044
     57          1           0        8.134298   -1.852430    0.997379
     58          1           0       -0.603182   -2.373174    1.804459
     59          1           0       -0.623995   -1.975674    3.675070
     60          1           0       -1.491088   -0.397202   -0.459690
     61          1           0       -2.449583    4.638327   -1.910392
     62          1           0       -0.857079    4.401213   -1.106240
     63          1           0        7.945557   -0.379125   -3.070007
     64          1           0       -1.542431    4.528298    1.132278
     65          1           0       -3.180044    4.772566    0.797897
     66          1           0       -4.335594    3.876522   -2.251844
     67          1           0       -5.382434    2.631043   -1.483265
     68          1           0       -4.722734    2.121336   -3.034468
     69          1           0       -4.838116   -0.286542   -1.837623
     70          1           0        9.529461   -1.151245   -0.579945
     71          1           0       10.233798   -0.944104   -1.978401
     72          1           0       -3.990720   -2.765178    3.514684
     73          1           0       -5.966757   -1.998783   -2.594490
     74          1           0       -4.539392   -5.671492   -0.251855
     75          1           0       -3.840743   -5.877328   -1.932249
     76          1           0       -2.980572   -5.808995   -0.193325
     77          1           0       -1.982039    8.204873    1.051463
     78          1           0       -7.236332   -3.839724   -3.036326
     79          1           0       -6.128625   -5.144075   -2.208910
 ---------------------------------------------------------------------

 SCF Done:  E(RB3LYP) =  -1947.76794603     A.U. after   19 cycles

 Excitation energies and oscillator strengths:

 Excited State   1:      Singlet-A      1.9135 eV  647.94 nm  f=0.3650  <S**2>=0.000
     153 ->156        -0.10141
     154 ->156         0.16246
     155 ->156         0.68250
     155 <-156        -0.12219
 This state for optimization and/or second-order correction.
 Total Energy, E(TD-HF/TD-DFT) =  -1947.69762589
 Copying the excited state density for this state as the 1-particle RhoCI density.

 The electronic state is 1-A.
 Alpha  occ. eigenvalues --  -19.20422 -19.17774 -19.14445 -19.10057 -19.09974
 Alpha  occ. eigenvalues --  -19.09664 -14.39803 -14.36097 -14.34607 -14.29685
 Alpha  occ. eigenvalues --  -10.33554 -10.30378 -10.28049 -10.26568 -10.24860
 Alpha  occ. eigenvalues --  -10.24090 -10.23752 -10.23672 -10.23215 -10.23064
 Alpha  occ. eigenvalues --  -10.22718 -10.22618 -10.22308 -10.21554 -10.21306
 Alpha  occ. eigenvalues --  -10.21220 -10.21128 -10.21072 -10.21013 -10.20725
 Alpha  occ. eigenvalues --  -10.20711 -10.20682 -10.20620 -10.20619 -10.20432
 Alpha  occ. eigenvalues --  -10.20143 -10.20102 -10.19816 -10.19730 -10.19648
 Alpha  occ. eigenvalues --  -10.19556 -10.19446 -10.18255  -1.08706  -1.08669
 Alpha  occ. eigenvalues --   -1.03989  -1.00675  -0.99163  -0.98805  -0.97266
 Alpha  occ. eigenvalues --   -0.95847  -0.94696  -0.89980  -0.83419  -0.82005
 Alpha  occ. eigenvalues --   -0.81126  -0.80641  -0.80194  -0.79708  -0.77952
 Alpha  occ. eigenvalues --   -0.76524  -0.75638  -0.75116  -0.74175  -0.72746
 Alpha  occ. eigenvalues --   -0.71558  -0.71296  -0.70136  -0.69666  -0.68721
 Alpha  occ. eigenvalues --   -0.66980  -0.65589  -0.64281  -0.61843  -0.60861
 Alpha  occ. eigenvalues --   -0.59018  -0.58586  -0.58314  -0.57568  -0.57131
 Alpha  occ. eigenvalues --   -0.56300  -0.55768  -0.55294  -0.54542  -0.53384
 Alpha  occ. eigenvalues --   -0.52249  -0.51401  -0.50783  -0.50321  -0.49618
 Alpha  occ. eigenvalues --   -0.49408  -0.49203  -0.48476  -0.48116  -0.47208
 Alpha  occ. eigenvalues --   -0.46903  -0.46688  -0.46660  -0.45842  -0.45818
 Alpha  occ. eigenvalues --   -0.45130  -0.44834  -0.44715  -0.44187  -0.43915
 Alpha  occ. eigenvalues --   -0.43470  -0.43317  -0.42917  -0.42673  -0.42304
 Alpha  occ. eigenvalues --   -0.42266  -0.41847  -0.41485  -0.41265  -0.41006
 Alpha  occ. eigenvalues --   -0.40956  -0.40551  -0.40463  -0.40047  -0.39453
 Alpha  occ. eigenvalues --   -0.38994  -0.38710  -0.38607  -0.38320  -0.38078
 Alpha  occ. eigenvalues --   -0.37625  -0.37332  -0.37180  -0.37004  -0.35999
 Alpha  occ. eigenvalues --   -0.35315  -0.34723  -0.34564  -0.34419  -0.33945
 Alpha  occ. eigenvalues --   -0.33453  -0.33065  -0.32738  -0.32178  -0.31854
 Alpha  occ. eigenvalues --   -0.30954  -0.29881  -0.29456  -0.28766  -0.27624
 Alpha  occ. eigenvalues --   -0.26277  -0.25947  -0.25741  -0.25697  -0.25363
 Alpha  occ. eigenvalues --   -0.24926  -0.23740  -0.23365  -0.22123  -0.19222
 Alpha virt. eigenvalues --   -0.11697  -0.07266  -0.05257  -0.02107  -0.01671
 Alpha virt. eigenvalues --    0.00054   0.00415   0.01261   0.02081   0.03210
 Alpha virt. eigenvalues --    0.03312   0.03386   0.04168   0.04746   0.04919

 Mulliken charges:
               1
     1  O   -0.178332
     2  O   -0.175927
     3  O   -0.309395
     4  O   -0.261817
     5  O   -0.236958
     6  O   -0.283721
     7  N   -0.068881
     8  N   -0.265393
     9  N   -0.093186
    10  N   -0.352947
    11  C    0.294624
    12  C    0.203839
    13  C   -0.061371
    14  C   -0.142157
    15  C   -0.046726
    16  C   -0.027647
    17  C   -0.240463
    18  C    0.008240
    19  C   -0.060273
    20  C   -0.069529
    21  C    0.072988
    22  C    0.139992
    23  C   -0.078742
    24  C    0.121210
    25  C    0.101554
    26  C   -0.141882
    27  C   -0.075582
    28  C    0.062713
    29  C    0.092889
    30  C    0.103056
    31  C   -0.008172
    32  C    0.139574
    33  C   -0.069009
    34  C    0.149624
    35  C    0.099306
    36  C   -0.053166
    37  C    0.198525
    38  C    0.061908
    39  C   -0.198766
    40  C    0.203149
    41  C   -0.047456
    42  C    0.128059
    43  C   -0.072768
    44  H   -0.078123
    45  H   -0.059793
    46  H   -0.002046
    47  H    0.134450
    48  H    0.126988
    49  H    0.004310
    50  H    0.070580
    51  H    0.023173
    52  H    0.016400
    53  H    0.011565
    54  H    0.030648
    55  H    0.000983
    56  H    0.031906
    57  H    0.025030
    58  H    0.137579
    59  H    0.026404
    60  H    0.213526
    61  H    0.034548
    62  H   -0.007725
    63  H    0.011634
    64  H    0.019349
    65  H    0.055907
    66  H    0.037600
    67  H   -0.023202
    68  H    0.043343
    69  H   -0.042000
    70  H   -0.029226
    71  H    0.017483
    72  H    0.214558
    73  H    0.015816
    74  H    0.005441
    75  H    0.048906
    76  H    0.012009
    77  H    0.238989
    78  H    0.024140
    79  H    0.047867
 Sum of Mulliken charges =  -0.00000

 Dipole moment (field-independent basis, Debye):
    X=             -0.0133    Y=              3.2017    Z=              3.4879  Tot=              4.7346
 Quadrupole moment (field-independent basis, Debye-Ang):
   XX=           -217.5010   YY=           -243.9196   ZZ=           -264.3653
   XY=             -4.8032   XZ=             35.4660   YZ=              2.6378

 Normal termination of Gaussian 16 at Wed Oct  9 15:18:03 2019.
