 Gaussian 16, Revision A.03,
 Gaussian 16:  ES64L-G16RevA.03 25-Dec-2016

 --------------------------
 # td=(NStates=1) B3LYP/SVP
 --------------------------

 --
 TD
 --
 Symbolic Z-matrix:
 Charge =  0 Multiplicity = 1

                         Standard orientation:
 ---------------------------------------------------------------------
 Center     Atomic      Atomic             Coordinates (Angstroms)
 Number     Number       Type             X           Y           Z
 ---------------------------------------------------------------------
      1          8           0       -3.444744   -1.609103   -2.800367
      2          8           0        3.219346    3.309138    3.078646
      3          8           0        3.840678    1.516041    4.282860
      4          8           0        7.666345   -1.807776   -0.694476
      5          8           0        6.531142   -3.224617   -1.955045
      6          8           0       -2.604025    1.686037    1.333494
      7          7           0       -0.327671   -2.274101    0.969204
      8          7           0       -2.725214   -1.266321   -0.609341
      9          7           0        1.120689    0.116804   -0.804740
     10          7           0       -1.101342    1.342334   -0.332430
     11          6           0       -3.326016   -1.210744    0.690867
     12          6           0       -2.691180   -2.120973    1.800871
     13          6           0       -1.224043   -1.834608    2.000845
     14          6           0       -0.508687   -0.975945    2.827077
     15          6           0        0.768973   -0.950890    2.426391
     16          6           0        0.892290   -1.761482    1.335765
     17          6           0       -4.749507   -1.889250    0.419992
     18          6           0        1.974166   -0.188140    3.134663
     19          6           0       -4.847313   -2.180030   -0.901617
     20          6           0        2.063614   -1.792209    0.382038
     21          6           0        2.062740   -0.881506   -0.614865
     22          6           0       -3.688763   -1.722697   -1.580329
     23          6           0        3.055834   -0.744036   -1.680202
     24          6           0       -1.195724   -0.215407    3.994474
     25          6           0       -5.869519   -1.932317    1.514612
     26          6           0        2.549145    0.297277   -2.570076
     27          6           0        2.087948    1.292591    2.604764
     28          6           0        1.344834    0.829269   -1.878493
     29          6           0        4.171178   -1.610730   -1.969518
     30          6           0       -5.867425   -2.748066   -1.747533
     31          6           0        5.354101   -1.272044   -1.124521
     32          6           0        3.154193    0.868977   -3.735004
     33          6           0        0.512479    1.767723   -2.168974
     34          6           0        3.157052    1.941532    3.444233
     35          6           0       -0.601321    2.188876   -1.311503
     36          6           0       -7.017443   -3.361376   -1.326391
     37          6           0        6.586063   -2.217548   -1.262350
     38          6           0       -1.439760    3.456907   -1.521119
     39          6           0       -2.275121    3.445602   -0.365638
     40          6           0       -2.079851    2.119664    0.254222
     41          6           0       -1.320669    4.516500   -2.520522
     42          6           0       -3.333919    4.405961    0.020310
     43          6           0       -1.761962    5.788613   -2.460903
     44          1           0       -3.256635   -0.026722    1.072133
     45          1           0       -2.746671   -3.231233    1.670834
     46          1           0       -3.121914   -1.903248    2.923125
     47          1           0       -0.662800   -2.539723   -0.068830
     48          1           0       -2.036060   -0.345541   -0.952528
     49          1           0        1.883975   -0.134287    4.135852
     50          1           0        2.959531   -0.797598    2.935487
     51          1           0        2.786645   -2.621493    0.572331
     52          1           0       -1.814848   -0.909414    4.633887
     53          1           0       -0.264693    0.270578    4.645147
     54          1           0       -1.925747    0.520655    3.562336
     55          1           0       -5.407034   -1.458895    2.396430
     56          1           0       -5.854707   -3.020939    2.004495
     57          1           0       -7.012783   -1.802076    1.270329
     58          1           0        2.516329    1.307921    1.473581
     59          1           0        1.168550    1.927992    2.556007
     60          1           0        0.380925    0.338477   -0.316884
     61          1           0        4.451630   -1.573347   -3.029611
     62          1           0        4.004424   -2.573095   -1.664247
     63          1           0       -5.606709   -2.549357   -3.006654
     64          1           0        5.318383   -1.288220   -0.059495
     65          1           0        5.646593   -0.324494   -1.470165
     66          1           0        3.975406    0.262839   -4.157599
     67          1           0        3.412751    1.903187   -3.638625
     68          1           0        2.300287    1.086527   -4.491929
     69          1           0        0.807727    2.439846   -3.049612
     70          1           0       -7.150312   -3.466831   -0.402593
     71          1           0       -7.510083   -3.984232   -2.208550
     72          1           0        3.810915    3.731924    3.803731
     73          1           0       -0.617515    4.393772   -3.432460
     74          1           0       -3.889543    4.901221   -0.928176
     75          1           0       -4.134451    3.887292    0.777787
     76          1           0       -2.861471    5.196165    0.773097
     77          1           0        8.501037   -2.434483   -0.760516
     78          1           0       -1.649074    6.645907   -3.178558
     79          1           0       -2.455560    5.925174   -1.578700
 ---------------------------------------------------------------------

 SCF Done:  E(RB3LYP) =  -1947.78596395     A.U. after   19 cycles

 Excitation energies and oscillator strengths:

 Excited State   1:      Singlet-A      0.8329 eV 1488.64 nm  f=0.0005  <S**2>=0.000
     155 ->156         0.70426
 This state for optimization and/or second-order correction.
 Total Energy, E(TD-HF/TD-DFT) =  -1947.75535666
 Copying the excited state density for this state as the 1-particle RhoCI density.

 The electronic state is 1-A.
 Alpha  occ. eigenvalues --  -19.20621 -19.16130 -19.13480 -19.12568 -19.12290
 Alpha  occ. eigenvalues --  -19.08155 -14.36494 -14.35779 -14.32670 -14.32453
 Alpha  occ. eigenvalues --  -10.32723 -10.31244 -10.29126 -10.27417 -10.26077
 Alpha  occ. eigenvalues --  -10.25368 -10.25238 -10.24008 -10.23140 -10.23050
 Alpha  occ. eigenvalues --  -10.23008 -10.22885 -10.22875 -10.22585 -10.22239
 Alpha  occ. eigenvalues --  -10.21917 -10.21740 -10.21553 -10.21311 -10.21263
 Alpha  occ. eigenvalues --  -10.21192 -10.20764 -10.20533 -10.19930 -10.19731
 Alpha  occ. eigenvalues --  -10.19727 -10.19482 -10.18898 -10.18894 -10.18014
 Alpha  occ. eigenvalues --  -10.17399 -10.16072 -10.15742  -1.11721  -1.09248
 Alpha  occ. eigenvalues --   -1.02230  -1.01523  -1.00475  -0.99444  -0.98810
 Alpha  occ. eigenvalues --   -0.94545  -0.93180  -0.89801  -0.85536  -0.83197
 Alpha  occ. eigenvalues --   -0.82336  -0.80284  -0.79700  -0.79153  -0.77668
 Alpha  occ. eigenvalues --   -0.76756  -0.75685  -0.75045  -0.73926  -0.72885
 Alpha  occ. eigenvalues --   -0.71118  -0.70869  -0.70009  -0.68345  -0.66844
 Alpha  occ. eigenvalues --   -0.65427  -0.64452  -0.63278  -0.62421  -0.61002
 Alpha  occ. eigenvalues --   -0.59472  -0.58975  -0.58570  -0.57397  -0.55874
 Alpha  occ. eigenvalues --   -0.55578  -0.54630  -0.54049  -0.53432  -0.52714
 Alpha  occ. eigenvalues --   -0.51951  -0.51504  -0.50561  -0.49959  -0.49346
 Alpha  occ. eigenvalues --   -0.49105  -0.48683  -0.48398  -0.47930  -0.47655
 Alpha  occ. eigenvalues --   -0.47443  -0.47042  -0.46665  -0.46432  -0.45959
 Alpha  occ. eigenvalues --   -0.45480  -0.45457  -0.44723  -0.44324  -0.43865
 Alpha  occ. eigenvalues --   -0.43585  -0.43039  -0.42797  -0.42101  -0.41927
 Alpha  occ. eigenvalues --   -0.41633  -0.41198  -0.41036  -0.40615  -0.40278
 Alpha  occ. eigenvalues --   -0.40057  -0.39949  -0.39889  -0.39234  -0.38962
 Alpha  occ. eigenvalues --   -0.38888  -0.38527  -0.38096  -0.37464  -0.37295
 Alpha  occ. eigenvalues --   -0.36993  -0.36810  -0.36488  -0.36406  -0.35771
 Alpha  occ. eigenvalues --   -0.35579  -0.34988  -0.34710  -0.34426  -0.33984
 Alpha  occ. eigenvalues --   -0.33718  -0.33086  -0.32902  -0.32870  -0.31803
 Alpha  occ. eigenvalues --   -0.31638  -0.30579  -0.29550  -0.29297  -0.28661
 Alpha  occ. eigenvalues --   -0.27940  -0.26787  -0.26137  -0.24568  -0.23818
 Alpha  occ. eigenvalues --   -0.23649  -0.22950  -0.22269  -0.22191  -0.18533
 Alpha virt. eigenvalues --   -0.13117  -0.08059  -0.04858  -0.03314   0.00556
 Alpha virt. eigenvalues --    0.00628   0.01028   0.01556   0.02159   0.02723
 Alpha virt. eigenvalues --    0.03387   0.03987   0.04622   0.04722   0.05213

 Mulliken charges:
               1
     1  O   -0.267586
     2  O   -0.278865
     3  O   -0.166512
     4  O   -0.172290
     5  O   -0.249938
     6  O   -0.260485
     7  N   -0.165962
     8  N   -0.312909
     9  N    0.074597
    10  N   -0.297417
    11  C    0.017275
    12  C    0.126804
    13  C   -0.097138
    14  C   -0.091931
    15  C   -0.078421
    16  C   -0.058288
    17  C   -0.157950
    18  C    0.139736
    19  C    0.004549
    20  C   -0.151323
    21  C    0.193332
    22  C    0.146675
    23  C   -0.096040
    24  C    0.021167
    25  C    0.047838
    26  C   -0.110720
    27  C   -0.068720
    28  C    0.094222
    29  C    0.219053
    30  C   -0.102618
    31  C   -0.021627
    32  C    0.092241
    33  C   -0.119918
    34  C    0.138601
    35  C    0.064265
    36  C    0.046393
    37  C    0.100985
    38  C    0.083482
    39  C   -0.145560
    40  C    0.193354
    41  C   -0.064166
    42  C   -0.034095
    43  C   -0.044867
    44  H    0.119045
    45  H    0.000367
    46  H    0.012115
    47  H    0.176542
    48  H    0.206540
    49  H   -0.022201
    50  H    0.015609
    51  H    0.029674
    52  H    0.022492
    53  H    0.019944
    54  H    0.049688
    55  H    0.016750
    56  H    0.027282
    57  H    0.072405
    58  H    0.059945
    59  H    0.064391
    60  H    0.066920
    61  H    0.017022
    62  H   -0.019553
    63  H    0.065479
    64  H    0.032962
    65  H    0.011873
    66  H    0.032306
    67  H    0.021225
    68  H    0.028248
    69  H   -0.009561
    70  H   -0.071918
    71  H    0.048839
    72  H    0.190140
    73  H    0.016783
    74  H    0.078057
    75  H    0.062165
    76  H    0.061986
    77  H    0.234602
    78  H    0.054072
    79  H    0.018544
 Sum of Mulliken charges =  -0.00000

 Dipole moment (field-independent basis, Debye):
    X=              4.7723    Y=              4.7317    Z=             -0.9259  Tot=              6.7838
 Quadrupole moment (field-independent basis, Debye-Ang):
   XX=           -228.3687   YY=           -238.3511   ZZ=           -263.5921
   XY=             -4.9116   XZ=            -20.5027   YZ=            -19.2982

 Normal termination of Gaussian 16 at Mon Jul 29 02:53:29 2019.
