 Gaussian 16, Revision A.03,
 Gaussian 16:  ES64L-G16RevA.03 25-Dec-2016

 --------------------------
 # td=(NStates=1) B3LYP/SVP
 --------------------------

 --
 TD
 --
 Symbolic Z-matrix:
 Charge =  0 Multiplicity = 1

                         Standard orientation:
 ---------------------------------------------------------------------
 Center     Atomic      Atomic             Coordinates (Angstroms)
 Number     Number       Type             X           Y           Z
 ---------------------------------------------------------------------
      1          8           0       -3.471009   -1.107676   -2.975882
      2          8           0        3.011670    2.887950    3.274299
      3          8           0        3.790987    1.079014    4.453905
      4          8           0        7.849118   -1.454991   -0.819279
      5          8           0        6.774708   -2.885895   -2.184258
      6          8           0       -2.503740    1.446518    1.581424
      7          7           0       -0.314473   -2.455057    0.781893
      8          7           0       -2.802520   -1.117487   -0.756095
      9          7           0        1.159345   -0.013107   -0.802426
     10          7           0       -1.035064    1.415471   -0.114581
     11          6           0       -3.483227   -1.443565    0.528014
     12          6           0       -2.718745   -2.432905    1.435127
     13          6           0       -1.249497   -2.207496    1.656897
     14          6           0       -0.584288   -1.414459    2.692993
     15          6           0        0.786795   -1.364571    2.400040
     16          6           0        0.877345   -1.976479    1.131683
     17          6           0       -4.856208   -1.794021    0.142975
     18          6           0        1.876829   -0.660846    3.274261
     19          6           0       -4.968931   -1.787060   -1.157952
     20          6           0        2.097035   -1.984059    0.207523
     21          6           0        2.083022   -0.948118   -0.730672
     22          6           0       -3.665900   -1.314569   -1.796829
     23          6           0        3.016371   -0.556062   -1.802308
     24          6           0       -1.394733   -0.619700    3.746319
     25          6           0       -5.743743   -2.137624    1.270841
     26          6           0        2.603910    0.561825   -2.408336
     27          6           0        1.871006    0.904212    2.988055
     28          6           0        1.388225    0.895304   -1.718609
     29          6           0        4.327390   -1.265041   -2.235649
     30          6           0       -6.010788   -2.179258   -2.194379
     31          6           0        5.528462   -0.981586   -1.289051
     32          6           0        3.201656    1.249667   -3.551031
     33          6           0        0.607252    2.139544   -1.819431
     34          6           0        3.005400    1.559096    3.646001
     35          6           0       -0.634076    2.349968   -1.074308
     36          6           0       -6.970214   -3.014541   -1.888518
     37          6           0        6.742374   -1.937540   -1.459667
     38          6           0       -1.406637    3.601120   -1.075871
     39          6           0       -2.290635    3.408514   -0.000164
     40          6           0       -2.012557    2.003175    0.590350
     41          6           0       -1.247524    4.748167   -2.033460
     42          6           0       -3.355357    4.187354    0.513604
     43          6           0       -1.716001    5.966005   -1.886006
     44          1           0       -3.533094   -0.484395    0.954630
     45          1           0       -2.767967   -3.277183    0.982671
     46          1           0       -3.092944   -2.624851    2.482696
     47          1           0       -0.587140   -2.718825   -0.220341
     48          1           0       -2.030796   -0.104323   -0.730693
     49          1           0        1.979189   -0.698681    4.376946
     50          1           0        2.948760   -1.196612    2.982477
     51          1           0        2.676710   -2.848975    0.228674
     52          1           0       -2.287192   -1.393641    4.254513
     53          1           0       -0.758139   -0.324298    4.656733
     54          1           0       -1.748898    0.169442    3.151250
     55          1           0       -5.743895   -1.366647    2.062669
     56          1           0       -5.636604   -3.191308    1.713645
     57          1           0       -6.836432   -2.399944    0.908415
     58          1           0        1.855272    1.195424    1.903364
     59          1           0        0.750877    1.098464    3.461868
     60          1           0        0.309423    0.204258   -0.150591
     61          1           0        4.485923   -0.987818   -3.346060
     62          1           0        4.186941   -2.225980   -2.124748
     63          1           0       -5.745471   -1.947044   -3.116130
     64          1           0        5.285031   -1.196136   -0.234600
     65          1           0        5.791416    0.075212   -1.461250
     66          1           0        4.147244    0.648265   -4.050897
     67          1           0        3.674432    2.229623   -3.388645
     68          1           0        2.538913    1.572923   -4.235228
     69          1           0        0.838061    2.958567   -2.647431
     70          1           0       -7.285656   -3.588044   -0.992396
     71          1           0       -7.751114   -3.104568   -2.819183
     72          1           0        3.886965    3.212533    3.646645
     73          1           0       -0.640726    4.599183   -2.844229
     74          1           0       -4.110472    4.418720   -0.202071
     75          1           0       -3.769762    3.668658    1.309584
     76          1           0       -2.743461    4.929795    1.072826
     77          1           0        8.583609   -2.102291   -1.027695
     78          1           0       -1.489825    6.772684   -2.536484
     79          1           0       -2.268149    6.172984   -1.038799
 ---------------------------------------------------------------------

 SCF Done:  E(RB3LYP) =  -1947.81680954     A.U. after   19 cycles

 Excitation energies and oscillator strengths:

 Excited State   1:      Singlet-A      0.7970 eV 1555.55 nm  f=0.0002  <S**2>=0.000
     155 ->156         0.70445
 This state for optimization and/or second-order correction.
 Total Energy, E(TD-HF/TD-DFT) =  -1947.78751864
 Copying the excited state density for this state as the 1-particle RhoCI density.

 The electronic state is 1-A.
 Alpha  occ. eigenvalues --  -19.19390 -19.18002 -19.14304 -19.13079 -19.11902
 Alpha  occ. eigenvalues --  -19.07564 -14.38680 -14.37535 -14.32432 -14.31689
 Alpha  occ. eigenvalues --  -10.33432 -10.31893 -10.28286 -10.27613 -10.26549
 Alpha  occ. eigenvalues --  -10.26446 -10.25350 -10.23628 -10.23129 -10.22854
 Alpha  occ. eigenvalues --  -10.22705 -10.22362 -10.22284 -10.22275 -10.21871
 Alpha  occ. eigenvalues --  -10.21454 -10.21094 -10.21073 -10.20809 -10.20775
 Alpha  occ. eigenvalues --  -10.20383 -10.19890 -10.19538 -10.19335 -10.19052
 Alpha  occ. eigenvalues --  -10.18820 -10.18751 -10.18298 -10.18192 -10.17672
 Alpha  occ. eigenvalues --  -10.17443 -10.17418 -10.16461  -1.10636  -1.08288
 Alpha  occ. eigenvalues --   -1.03731  -1.02701  -1.02066  -0.99924  -0.99807
 Alpha  occ. eigenvalues --   -0.98919  -0.93425  -0.90727  -0.84844  -0.82820
 Alpha  occ. eigenvalues --   -0.82413  -0.79484  -0.79360  -0.79227  -0.78766
 Alpha  occ. eigenvalues --   -0.77796  -0.76151  -0.75502  -0.74762  -0.73932
 Alpha  occ. eigenvalues --   -0.72327  -0.70313  -0.69530  -0.68547  -0.67383
 Alpha  occ. eigenvalues --   -0.65949  -0.65672  -0.63410  -0.61885  -0.61265
 Alpha  occ. eigenvalues --   -0.60114  -0.59123  -0.58190  -0.57344  -0.57235
 Alpha  occ. eigenvalues --   -0.56188  -0.54522  -0.54262  -0.53562  -0.52898
 Alpha  occ. eigenvalues --   -0.52146  -0.51567  -0.51513  -0.50311  -0.49663
 Alpha  occ. eigenvalues --   -0.49212  -0.49122  -0.49086  -0.48285  -0.48128
 Alpha  occ. eigenvalues --   -0.47866  -0.47705  -0.47618  -0.47103  -0.47040
 Alpha  occ. eigenvalues --   -0.46311  -0.45729  -0.45199  -0.44440  -0.44281
 Alpha  occ. eigenvalues --   -0.43571  -0.43413  -0.43125  -0.42512  -0.42475
 Alpha  occ. eigenvalues --   -0.42189  -0.41627  -0.41480  -0.41308  -0.40898
 Alpha  occ. eigenvalues --   -0.40761  -0.40510  -0.40308  -0.39958  -0.39755
 Alpha  occ. eigenvalues --   -0.39484  -0.38975  -0.38936  -0.38608  -0.37870
 Alpha  occ. eigenvalues --   -0.37560  -0.37150  -0.37056  -0.36748  -0.36232
 Alpha  occ. eigenvalues --   -0.36093  -0.35493  -0.34844  -0.34490  -0.33900
 Alpha  occ. eigenvalues --   -0.33884  -0.33695  -0.32287  -0.32156  -0.31843
 Alpha  occ. eigenvalues --   -0.30533  -0.29950  -0.29623  -0.29380  -0.29251
 Alpha  occ. eigenvalues --   -0.28541  -0.28292  -0.26366  -0.24388  -0.23700
 Alpha  occ. eigenvalues --   -0.23514  -0.23004  -0.22645  -0.22580  -0.18674
 Alpha virt. eigenvalues --   -0.13140  -0.07870  -0.02711  -0.01959  -0.01317
 Alpha virt. eigenvalues --   -0.00785   0.02244   0.02614   0.03361   0.03405
 Alpha virt. eigenvalues --    0.03862   0.04615   0.04905   0.05081   0.05174

 Mulliken charges:
               1
     1  O   -0.239077
     2  O   -0.217879
     3  O   -0.235820
     4  O   -0.211373
     5  O   -0.200726
     6  O   -0.222158
     7  N    0.029448
     8  N   -0.348822
     9  N   -0.004355
    10  N   -0.338422
    11  C    0.135100
    12  C    0.345495
    13  C   -0.201848
    14  C   -0.161343
    15  C   -0.026812
    16  C   -0.142283
    17  C   -0.162151
    18  C    0.013527
    19  C   -0.105114
    20  C   -0.051770
    21  C    0.109452
    22  C    0.139469
    23  C   -0.139089
    24  C    0.032562
    25  C    0.043024
    26  C   -0.072840
    27  C   -0.077964
    28  C    0.046419
    29  C    0.195901
    30  C    0.116936
    31  C   -0.019355
    32  C    0.112340
    33  C   -0.103727
    34  C    0.172947
    35  C    0.089656
    36  C   -0.063671
    37  C    0.132896
    38  C    0.063297
    39  C   -0.276766
    40  C    0.175555
    41  C    0.020454
    42  C    0.189084
    43  C    0.039499
    44  H    0.003889
    45  H   -0.101409
    46  H    0.004300
    47  H    0.142670
    48  H    0.232023
    49  H    0.030374
    50  H    0.009618
    51  H    0.004894
    52  H    0.019112
    53  H    0.018478
    54  H    0.051734
    55  H    0.040015
    56  H    0.034170
    57  H    0.011156
    58  H    0.042450
    59  H    0.092333
    60  H    0.221209
    61  H    0.037614
    62  H   -0.050948
    63  H   -0.046479
    64  H    0.045949
    65  H    0.043066
    66  H    0.039973
    67  H    0.015904
    68  H   -0.006987
    69  H    0.025190
    70  H    0.029695
    71  H    0.022492
    72  H    0.186513
    73  H   -0.053085
    74  H    0.046704
    75  H   -0.014278
    76  H    0.038642
    77  H    0.195558
    78  H    0.019217
    79  H   -0.011458
 Sum of Mulliken charges =  -0.00000

 Dipole moment (field-independent basis, Debye):
    X=              4.2024    Y=              3.8650    Z=             -1.5077  Tot=              5.9053
 Quadrupole moment (field-independent basis, Debye-Ang):
   XX=           -237.9119   YY=           -231.4475   ZZ=           -272.9706
   XY=              3.0334   XZ=            -25.2885   YZ=            -14.3223

 Normal termination of Gaussian 16 at Thu Jul 25 04:26:38 2019.
