 Gaussian 16, Revision A.03,
 Gaussian 16:  ES64L-G16RevA.03 25-Dec-2016

 --------------------------
 # td=(NStates=1) B3LYP/SVP
 --------------------------

 --
 TD
 --
 Symbolic Z-matrix:
 Charge =  0 Multiplicity = 1

                         Standard orientation:
 ---------------------------------------------------------------------
 Center     Atomic      Atomic             Coordinates (Angstroms)
 Number     Number       Type             X           Y           Z
 ---------------------------------------------------------------------
      1          8           0        5.380185   -0.086458   -3.284526
      2          8           0       -3.272629   -2.711758    3.214151
      3          8           0       -3.397541   -0.428497    3.155306
      4          8           0       -2.124495    7.330687    1.175167
      5          8           0       -0.142259    6.876830   -0.409653
      6          8           0       -1.697130   -4.025877    0.034180
      7          7           0        2.351068    0.956948    0.689005
      8          7           0        4.408942   -0.483997   -1.233791
      9          7           0       -1.763169    0.605230   -0.477675
     10          7           0       -2.631021   -1.858155   -0.387283
     11          6           0        4.859252   -1.112866    0.008714
     12          6           0        4.361402   -0.266432    1.284275
     13          6           0        2.917305    0.003230    1.380982
     14          6           0        1.916404   -0.739107    2.179646
     15          6           0        0.686372   -0.123824    1.837114
     16          6           0        1.017211    1.025405    0.944546
     17          6           0        6.225759   -1.399278   -0.184197
     18          6           0       -0.620947   -0.152979    2.603609
     19          6           0        6.668551   -0.840950   -1.368392
     20          6           0        0.165268    2.015163    0.263207
     21          6           0       -1.109499    1.881764   -0.338091
     22          6           0        5.479764   -0.379427   -2.069614
     23          6           0       -1.890251    2.927323   -0.938896
     24          6           0        2.112606   -1.727588    3.248187
     25          6           0        7.095039   -2.004429    0.905632
     26          6           0       -3.096190    2.333527   -1.318151
     27          6           0       -1.276889   -1.567097    2.573219
     28          6           0       -2.936388    0.820789   -1.121573
     29          6           0       -1.480386    4.366446   -1.012249
     30          6           0        7.999273   -0.911235   -1.956164
     31          6           0       -1.814751    5.093815    0.299640
     32          6           0       -4.205285    2.776810   -2.180989
     33          6           0       -3.845751   -0.136181   -1.457826
     34          6           0       -2.768237   -1.485307    3.024861
     35          6           0       -3.668403   -1.500835   -0.987490
     36          6           0        9.093136   -0.914043   -1.334851
     37          6           0       -1.261628    6.586228    0.226416
     38          6           0       -4.590757   -2.681958   -1.470160
     39          6           0       -3.821114   -3.836686   -1.069858
     40          6           0       -2.661766   -3.367963   -0.362222
     41          6           0       -5.778958   -2.610839   -2.152025
     42          6           0       -4.117634   -5.284552   -1.251494
     43          6           0       -6.649566   -3.621555   -2.510695
     44          1           0        4.430954   -2.218984   -0.020026
     45          1           0        4.930138    0.704042    1.217972
     46          1           0        4.714817   -0.786021    2.123670
     47          1           0        2.841430    1.710984    0.082910
     48          1           0        3.570130   -0.219859   -1.593335
     49          1           0       -0.378876    0.256824    3.729023
     50          1           0       -1.400788    0.596964    2.365929
     51          1           0        0.775378    2.912327    0.011776
     52          1           0        3.098595   -1.790388    3.347657
     53          1           0        1.577012   -1.357120    4.183910
     54          1           0        1.710312   -2.680422    2.895820
     55          1           0        6.483771   -2.572617    1.693894
     56          1           0        7.567640   -1.242597    1.639517
     57          1           0        7.735571   -2.673321    0.594601
     58          1           0       -1.240121   -2.134278    1.739868
     59          1           0       -1.038371   -2.100913    3.480755
     60          1           0       -1.558890   -0.478205   -0.122821
     61          1           0       -1.891201    4.815688   -1.915210
     62          1           0       -0.492504    4.447658   -1.198516
     63          1           0        7.872230   -0.865479   -2.973265
     64          1           0       -1.519416    4.657524    1.283309
     65          1           0       -3.036776    5.118814    0.313534
     66          1           0       -4.032517    3.917532   -2.467014
     67          1           0       -4.978628    2.901438   -1.472054
     68          1           0       -4.192615    2.188570   -3.124365
     69          1           0       -4.773903    0.161660   -1.924473
     70          1           0        9.297592   -0.705962   -0.278079
     71          1           0       10.144066   -1.231645   -2.032284
     72          1           0       -4.198706   -2.500931    3.583398
     73          1           0       -6.033413   -1.503638   -2.332305
     74          1           0       -4.991011   -5.685073   -0.610968
     75          1           0       -4.460326   -5.420974   -2.499753
     76          1           0       -3.198846   -5.771751   -1.001589
     77          1           0       -1.677317    8.234947    1.130541
     78          1           0       -7.682789   -3.267377   -3.025452
     79          1           0       -6.520071   -4.589227   -2.206017
 ---------------------------------------------------------------------

 SCF Done:  E(RB3LYP) =  -1947.80837215     A.U. after   16 cycles

 Excitation energies and oscillator strengths:

 Excited State   1:      Singlet-A      1.7760 eV  698.11 nm  f=0.3480  <S**2>=0.000
     155 ->156         0.70595
 This state for optimization and/or second-order correction.
 Total Energy, E(TD-HF/TD-DFT) =  -1947.74310501
 Copying the excited state density for this state as the 1-particle RhoCI density.

 The electronic state is 1-A.
 Alpha  occ. eigenvalues --  -19.20588 -19.18623 -19.16235 -19.11642 -19.11487
 Alpha  occ. eigenvalues --  -19.08441 -14.40143 -14.35589 -14.34803 -14.30058
 Alpha  occ. eigenvalues --  -10.35486 -10.31028 -10.27520 -10.27291 -10.25719
 Alpha  occ. eigenvalues --  -10.24068 -10.23301 -10.23291 -10.23277 -10.23237
 Alpha  occ. eigenvalues --  -10.22882 -10.22338 -10.21986 -10.21731 -10.21176
 Alpha  occ. eigenvalues --  -10.21118 -10.21070 -10.20995 -10.20979 -10.20733
 Alpha  occ. eigenvalues --  -10.20509 -10.20281 -10.20279 -10.20193 -10.20071
 Alpha  occ. eigenvalues --  -10.19994 -10.19806 -10.19418 -10.19384 -10.18725
 Alpha  occ. eigenvalues --  -10.18415 -10.18267 -10.17930  -1.08720  -1.05404
 Alpha  occ. eigenvalues --   -1.01429  -1.00992  -1.00241  -0.99009  -0.98706
 Alpha  occ. eigenvalues --   -0.95720  -0.93770  -0.92669  -0.83314  -0.82444
 Alpha  occ. eigenvalues --   -0.81251  -0.80994  -0.80671  -0.79154  -0.77983
 Alpha  occ. eigenvalues --   -0.77096  -0.76328  -0.75880  -0.74054  -0.72730
 Alpha  occ. eigenvalues --   -0.71988  -0.71300  -0.69432  -0.69063  -0.67162
 Alpha  occ. eigenvalues --   -0.66740  -0.66008  -0.64312  -0.60872  -0.60402
 Alpha  occ. eigenvalues --   -0.58806  -0.58529  -0.57818  -0.57598  -0.57233
 Alpha  occ. eigenvalues --   -0.55740  -0.55206  -0.54757  -0.54100  -0.53399
 Alpha  occ. eigenvalues --   -0.51847  -0.50981  -0.50672  -0.49943  -0.48826
 Alpha  occ. eigenvalues --   -0.48576  -0.48086  -0.47942  -0.47756  -0.47525
 Alpha  occ. eigenvalues --   -0.47119  -0.46954  -0.46629  -0.46497  -0.45931
 Alpha  occ. eigenvalues --   -0.45380  -0.45094  -0.44530  -0.44008  -0.43671
 Alpha  occ. eigenvalues --   -0.43505  -0.43291  -0.43054  -0.42791  -0.42276
 Alpha  occ. eigenvalues --   -0.42023  -0.41784  -0.41600  -0.41283  -0.41043
 Alpha  occ. eigenvalues --   -0.40791  -0.40678  -0.40545  -0.40333  -0.39946
 Alpha  occ. eigenvalues --   -0.39643  -0.39347  -0.38963  -0.38584  -0.38370
 Alpha  occ. eigenvalues --   -0.38323  -0.37855  -0.37333  -0.37051  -0.36597
 Alpha  occ. eigenvalues --   -0.36003  -0.35250  -0.34960  -0.34752  -0.34549
 Alpha  occ. eigenvalues --   -0.34446  -0.33711  -0.33354  -0.31912  -0.31645
 Alpha  occ. eigenvalues --   -0.31593  -0.31345  -0.29746  -0.28955  -0.28376
 Alpha  occ. eigenvalues --   -0.26688  -0.25773  -0.25230  -0.24688  -0.24477
 Alpha  occ. eigenvalues --   -0.24290  -0.24083  -0.22986  -0.22269  -0.17874
 Alpha virt. eigenvalues --   -0.10701  -0.07118  -0.05504  -0.05310  -0.00784
 Alpha virt. eigenvalues --    0.00964   0.01528   0.01788   0.02644   0.02820
 Alpha virt. eigenvalues --    0.03024   0.03681   0.03809   0.04727   0.05190

 Mulliken charges:
               1
     1  O   -0.275710
     2  O   -0.190005
     3  O   -0.261692
     4  O   -0.252968
     5  O   -0.288029
     6  O   -0.216182
     7  N   -0.013138
     8  N   -0.147507
     9  N   -0.171255
    10  N   -0.291196
    11  C    0.125223
    12  C    0.227818
    13  C   -0.119130
    14  C   -0.178580
    15  C   -0.062984
    16  C   -0.009227
    17  C   -0.196725
    18  C   -0.011701
    19  C   -0.077938
    20  C   -0.102246
    21  C    0.140062
    22  C    0.107286
    23  C   -0.095739
    24  C    0.202747
    25  C    0.112598
    26  C   -0.177726
    27  C    0.080350
    28  C    0.098708
    29  C    0.216028
    30  C    0.088448
    31  C   -0.061689
    32  C    0.112169
    33  C   -0.126355
    34  C    0.112645
    35  C    0.093236
    36  C   -0.074871
    37  C    0.250557
    38  C    0.043042
    39  C   -0.169708
    40  C    0.188500
    41  C   -0.067684
    42  C    0.016007
    43  C   -0.012574
    44  H    0.043091
    45  H   -0.003032
    46  H   -0.031856
    47  H    0.154933
    48  H    0.092259
    49  H    0.023522
    50  H    0.034573
    51  H   -0.011886
    52  H   -0.054146
    53  H    0.033513
    54  H    0.036705
    55  H    0.002783
    56  H    0.047173
    57  H   -0.003997
    58  H    0.031006
    59  H    0.012337
    60  H    0.231477
    61  H    0.002883
    62  H   -0.030886
    63  H   -0.019325
    64  H    0.072626
    65  H    0.054184
    66  H    0.006363
    67  H    0.018734
    68  H    0.064023
    69  H   -0.030982
    70  H    0.026272
    71  H    0.041629
    72  H    0.195215
    73  H    0.007492
    74  H    0.057194
    75  H    0.049694
    76  H    0.029268
    77  H    0.199676
    78  H    0.055284
    79  H   -0.000665
 Sum of Mulliken charges =  -0.00000

 Dipole moment (field-independent basis, Debye):
    X=             -1.0286    Y=              1.8389    Z=              4.1808  Tot=              4.6817
 Quadrupole moment (field-independent basis, Debye-Ang):
   XX=           -223.8999   YY=           -239.9634   ZZ=           -262.8441
   XY=             -7.0055   XZ=             36.5955   YZ=             -0.9073

 Normal termination of Gaussian 16 at Tue Oct  8 12:25:58 2019.
