 Gaussian 16, Revision A.03,
 Gaussian 16:  ES64L-G16RevA.03 25-Dec-2016

 --------------------------
 # td=(NStates=1) B3LYP/SVP
 --------------------------

 --
 TD
 --
 Symbolic Z-matrix:
 Charge =  0 Multiplicity = 1

                         Standard orientation:
 ---------------------------------------------------------------------
 Center     Atomic      Atomic             Coordinates (Angstroms)
 Number     Number       Type             X           Y           Z
 ---------------------------------------------------------------------
      1          8           0       -3.259320   -0.969090   -2.948067
      2          8           0        3.236896    2.750730    3.236724
      3          8           0        3.738147    0.922352    4.396830
      4          8           0        7.752126   -1.333749   -0.882208
      5          8           0        6.636178   -2.759712   -2.257954
      6          8           0       -2.601660    1.472083    1.699742
      7          7           0       -0.230312   -2.601982    0.745553
      8          7           0       -2.591933   -1.342878   -0.779020
      9          7           0        0.989021    0.060178   -0.917325
     10          7           0       -1.018901    1.555567   -0.074682
     11          6           0       -3.302784   -1.548179    0.556624
     12          6           0       -2.577401   -2.690434    1.409072
     13          6           0       -1.155208   -2.347842    1.596616
     14          6           0       -0.555758   -1.570768    2.761783
     15          6           0        0.839683   -1.417630    2.308910
     16          6           0        1.022893   -1.990961    0.996933
     17          6           0       -4.741177   -1.906200    0.073235
     18          6           0        1.866941   -0.783648    3.008190
     19          6           0       -4.781422   -1.950554   -1.269246
     20          6           0        2.101572   -1.850978    0.001194
     21          6           0        2.120844   -0.847831   -0.833334
     22          6           0       -3.481928   -1.432977   -1.793157
     23          6           0        3.092381   -0.338647   -1.819655
     24          6           0       -1.199045   -0.975041    3.891298
     25          6           0       -5.703722   -2.212651    1.100146
     26          6           0        2.557931    0.809610   -2.418302
     27          6           0        1.962277    0.762013    2.791951
     28          6           0        1.247595    1.098720   -1.764835
     29          6           0        4.321843   -1.090873   -2.206649
     30          6           0       -5.967843   -2.133663   -2.203224
     31          6           0        5.495451   -0.902860   -1.205414
     32          6           0        3.040092    1.602897   -3.596319
     33          6           0        0.543742    2.282553   -1.792672
     34          6           0        3.054029    1.448778    3.545873
     35          6           0       -0.596822    2.436049   -0.967543
     36          6           0       -7.061005   -2.880691   -2.010750
     37          6           0        6.672361   -1.843465   -1.567599
     38          6           0       -1.497248    3.598809   -0.770477
     39          6           0       -2.300045    3.326412    0.266996
     40          6           0       -2.115998    2.045328    0.675399
     41          6           0       -1.385380    4.771705   -1.693046
     42          6           0       -3.473946    4.259857    0.864567
     43          6           0       -2.183547    5.901127   -1.654072
     44          1           0       -3.329267   -0.755334    1.233320
     45          1           0       -2.348647   -3.763027    0.716749
     46          1           0       -3.086719   -2.840867    2.150367
     47          1           0       -0.444627   -3.007436   -0.221950
     48          1           0       -2.047291   -0.476934   -0.733433
     49          1           0        1.716291   -0.758233    4.030412
     50          1           0        2.899023   -1.351107    2.883420
     51          1           0        2.780193   -2.651622    0.236363
     52          1           0       -2.173215   -1.522827    4.200234
     53          1           0       -0.647524   -0.797317    4.891896
     54          1           0       -1.441005    0.127033    3.644953
     55          1           0       -5.652248   -1.478833    1.880977
     56          1           0       -5.451372   -3.318369    1.280060
     57          1           0       -6.755114   -2.138092    0.758728
     58          1           0        1.812959    1.123823    1.780475
     59          1           0        1.128469    1.172070    3.225420
     60          1           0        0.236236    0.206160   -0.305365
     61          1           0        4.666996   -0.895156   -3.303699
     62          1           0        3.766894   -2.253684   -2.489667
     63          1           0       -5.750297   -1.868710   -3.177129
     64          1           0        5.009244   -1.213806   -0.183661
     65          1           0        5.824650    0.036435   -1.011708
     66          1           0        3.663209    0.880461   -4.326693
     67          1           0        3.402102    2.774412   -3.290314
     68          1           0        2.058486    1.904752   -4.065394
     69          1           0        0.663411    3.111162   -2.380042
     70          1           0       -7.345569   -3.291520   -0.890246
     71          1           0       -7.811702   -2.909816   -2.865471
     72          1           0        3.803802    3.432976    3.751571
     73          1           0       -0.637956    4.748108   -2.447632
     74          1           0       -4.201266    4.377725    0.049926
     75          1           0       -4.034220    3.454013    1.499565
     76          1           0       -2.839747    5.150959    1.358480
     77          1           0        8.507420   -2.026379   -1.097428
     78          1           0       -2.026555    6.673589   -2.300229
     79          1           0       -3.125251    6.020506   -0.960024
 ---------------------------------------------------------------------

 SCF Done:  E(RB3LYP) =  -1947.76714206     A.U. after   19 cycles

 Excitation energies and oscillator strengths:

 Excited State   1:      Singlet-A      0.7470 eV 1659.78 nm  f=0.0004  <S**2>=0.000
     155 ->156         0.70420
 This state for optimization and/or second-order correction.
 Total Energy, E(TD-HF/TD-DFT) =  -1947.73969069
 Copying the excited state density for this state as the 1-particle RhoCI density.

 The electronic state is 1-A.
 Alpha  occ. eigenvalues --  -19.19236 -19.16582 -19.14985 -19.12532 -19.10652
 Alpha  occ. eigenvalues --  -19.08048 -14.37327 -14.36945 -14.33197 -14.29963
 Alpha  occ. eigenvalues --  -10.32933 -10.31010 -10.27606 -10.26766 -10.26684
 Alpha  occ. eigenvalues --  -10.25727 -10.24417 -10.24013 -10.23791 -10.23024
 Alpha  occ. eigenvalues --  -10.22970 -10.22553 -10.22063 -10.22027 -10.21682
 Alpha  occ. eigenvalues --  -10.21675 -10.21416 -10.21353 -10.20635 -10.20504
 Alpha  occ. eigenvalues --  -10.20428 -10.20231 -10.19997 -10.19879 -10.19790
 Alpha  occ. eigenvalues --  -10.19604 -10.18961 -10.18648 -10.18605 -10.18503
 Alpha  occ. eigenvalues --  -10.17635 -10.17161 -10.16941  -1.11664  -1.07062
 Alpha  occ. eigenvalues --   -1.03090  -1.01291  -0.98967  -0.98540  -0.98150
 Alpha  occ. eigenvalues --   -0.96977  -0.94112  -0.90769  -0.83745  -0.82660
 Alpha  occ. eigenvalues --   -0.81177  -0.80726  -0.80404  -0.78773  -0.78360
 Alpha  occ. eigenvalues --   -0.77419  -0.75583  -0.75409  -0.74862  -0.72821
 Alpha  occ. eigenvalues --   -0.70853  -0.70548  -0.69663  -0.68400  -0.67562
 Alpha  occ. eigenvalues --   -0.66276  -0.65801  -0.63993  -0.61756  -0.60504
 Alpha  occ. eigenvalues --   -0.59879  -0.59451  -0.58314  -0.57710  -0.56355
 Alpha  occ. eigenvalues --   -0.56080  -0.55818  -0.54241  -0.53712  -0.53317
 Alpha  occ. eigenvalues --   -0.51900  -0.51543  -0.51035  -0.50230  -0.49692
 Alpha  occ. eigenvalues --   -0.49590  -0.48719  -0.48649  -0.48534  -0.47807
 Alpha  occ. eigenvalues --   -0.47077  -0.47014  -0.46339  -0.46005  -0.45786
 Alpha  occ. eigenvalues --   -0.45127  -0.45000  -0.44687  -0.44044  -0.43882
 Alpha  occ. eigenvalues --   -0.43820  -0.43227  -0.43046  -0.42746  -0.42232
 Alpha  occ. eigenvalues --   -0.41827  -0.41661  -0.41182  -0.41066  -0.40697
 Alpha  occ. eigenvalues --   -0.40529  -0.40126  -0.40003  -0.39849  -0.39625
 Alpha  occ. eigenvalues --   -0.39307  -0.38953  -0.38106  -0.38003  -0.37611
 Alpha  occ. eigenvalues --   -0.37439  -0.37203  -0.36481  -0.35881  -0.35809
 Alpha  occ. eigenvalues --   -0.35647  -0.35385  -0.35120  -0.34752  -0.34534
 Alpha  occ. eigenvalues --   -0.33519  -0.33296  -0.32316  -0.31997  -0.30740
 Alpha  occ. eigenvalues --   -0.30428  -0.30263  -0.29961  -0.29113  -0.27855
 Alpha  occ. eigenvalues --   -0.26714  -0.26352  -0.25571  -0.25283  -0.24524
 Alpha  occ. eigenvalues --   -0.23416  -0.23272  -0.22410  -0.21628  -0.17856
 Alpha virt. eigenvalues --   -0.12806  -0.07811  -0.03850  -0.02020  -0.00026
 Alpha virt. eigenvalues --    0.01463   0.01871   0.02073   0.02411   0.02654
 Alpha virt. eigenvalues --    0.02775   0.03335   0.03744   0.04669   0.04868

 Mulliken charges:
               1
     1  O   -0.287166
     2  O   -0.248242
     3  O   -0.225945
     4  O   -0.242250
     5  O   -0.136102
     6  O   -0.247595
     7  N   -0.014204
     8  N   -0.187055
     9  N   -0.087678
    10  N   -0.324238
    11  C    0.075770
    12  C    0.260900
    13  C   -0.146473
    14  C   -0.057932
    15  C   -0.095235
    16  C   -0.091973
    17  C   -0.188214
    18  C    0.135474
    19  C   -0.048639
    20  C   -0.177137
    21  C    0.303880
    22  C    0.133883
    23  C   -0.042054
    24  C   -0.004135
    25  C    0.094146
    26  C   -0.121257
    27  C    0.035308
    28  C    0.154653
    29  C   -0.042963
    30  C    0.042530
    31  C    0.027778
    32  C    0.013677
    33  C   -0.009099
    34  C    0.128807
    35  C    0.034873
    36  C   -0.083408
    37  C    0.132966
    38  C    0.085707
    39  C   -0.216163
    40  C    0.178482
    41  C   -0.021230
    42  C    0.045171
    43  C   -0.007332
    44  H    0.025236
    45  H    0.003339
    46  H   -0.118301
    47  H    0.138079
    48  H    0.148318
    49  H   -0.039737
    50  H    0.015950
    51  H    0.020770
    52  H    0.011874
    53  H    0.012925
    54  H    0.047896
    55  H    0.022485
    56  H    0.066404
    57  H    0.021928
    58  H    0.008831
    59  H   -0.000110
    60  H    0.145105
    61  H    0.026994
    62  H    0.067311
    63  H   -0.015665
    64  H    0.062706
    65  H    0.009325
    66  H    0.067779
    67  H    0.060169
    68  H    0.036117
    69  H   -0.078122
    70  H    0.038953
    71  H    0.039313
    72  H    0.219213
    73  H   -0.015265
    74  H    0.042320
    75  H    0.041412
    76  H    0.076796
    77  H    0.203142
    78  H    0.002648
    79  H    0.053575
 Sum of Mulliken charges =  -0.00000

 Dipole moment (field-independent basis, Debye):
    X=              2.5709    Y=              3.6462    Z=             -1.4733  Tot=              4.6984
 Quadrupole moment (field-independent basis, Debye-Ang):
   XX=           -230.8636   YY=           -228.0181   ZZ=           -271.2123
   XY=              5.0901   XZ=            -23.9882   YZ=             -8.0175

 Normal termination of Gaussian 16 at Sat Jul 27 03:44:40 2019.
