 Gaussian 16, Revision A.03,
 Gaussian 16:  ES64L-G16RevA.03 25-Dec-2016

 --------------------------
 # td=(NStates=1) B3LYP/SVP
 --------------------------

 --
 TD
 --
 Symbolic Z-matrix:
 Charge =  0 Multiplicity = 1

                         Standard orientation:
 ---------------------------------------------------------------------
 Center     Atomic      Atomic             Coordinates (Angstroms)
 Number     Number       Type             X           Y           Z
 ---------------------------------------------------------------------
      1          8           0        5.285836   -0.116465   -3.325198
      2          8           0       -2.998572   -2.756135    3.353714
      3          8           0       -3.335729   -0.557420    2.953941
      4          8           0       -2.036698    7.154102    1.334964
      5          8           0       -0.785661    6.865381   -0.563653
      6          8           0       -1.562876   -4.009804    0.129651
      7          7           0        2.358585    1.030883    0.601663
      8          7           0        4.413580   -0.522935   -1.271067
      9          7           0       -1.853993    0.541619   -0.412940
     10          7           0       -2.272048   -1.947110   -0.623079
     11          6           0        4.826136   -1.068145    0.031348
     12          6           0        4.399006   -0.097917    1.233874
     13          6           0        2.931459    0.074596    1.383839
     14          6           0        1.981267   -0.522387    2.170063
     15          6           0        0.717315    0.062356    1.866183
     16          6           0        0.979711    0.980691    0.897356
     17          6           0        6.280271   -1.293905   -0.184699
     18          6           0       -0.607977   -0.148548    2.571264
     19          6           0        6.684984   -0.759225   -1.396236
     20          6           0        0.122256    1.913926    0.254053
     21          6           0       -1.151977    1.763840   -0.393928
     22          6           0        5.438389   -0.348067   -2.110155
     23          6           0       -2.016801    2.693562   -0.953186
     24          6           0        2.147331   -1.511860    3.234569
     25          6           0        7.199597   -1.854850    0.924065
     26          6           0       -3.115155    2.207865   -1.399101
     27          6           0       -1.163581   -1.550008    2.608056
     28          6           0       -2.961541    0.743204   -1.087800
     29          6           0       -1.689081    4.254180   -0.947620
     30          6           0        7.982236   -0.584878   -1.956713
     31          6           0       -2.125764    5.031686    0.240425
     32          6           0       -4.358395    2.913730   -2.019256
     33          6           0       -3.830216   -0.206917   -1.306273
     34          6           0       -2.598864   -1.525737    2.947058
     35          6           0       -3.499066   -1.562934   -1.111869
     36          6           0        9.129311   -0.627334   -1.371951
     37          6           0       -1.544845    6.476769    0.292556
     38          6           0       -4.395942   -2.733596   -1.351814
     39          6           0       -3.734807   -3.934628   -1.094422
     40          6           0       -2.443861   -3.452722   -0.486098
     41          6           0       -5.724254   -2.668147   -1.979809
     42          6           0       -4.138707   -5.375465   -1.107809
     43          6           0       -6.671387   -3.531697   -2.440692
     44          1           0        4.235724   -1.938391    0.248434
     45          1           0        4.851326    0.634603    1.389310
     46          1           0        4.803626   -0.515286    2.158764
     47          1           0        2.810838    1.374340   -0.132832
     48          1           0        3.443935   -0.408213   -1.718973
     49          1           0       -0.276779    0.169707    3.685532
     50          1           0       -1.459597    0.490770    2.265778
     51          1           0        0.590964    2.878773    0.064797
     52          1           0        3.155487   -1.804962    3.100119
     53          1           0        1.995439   -0.999560    4.296781
     54          1           0        1.306638   -2.349903    3.072767
     55          1           0        6.799137   -2.743668    1.512656
     56          1           0        7.812187   -1.146376    1.621373
     57          1           0        8.032248   -2.397083    0.463195
     58          1           0       -1.086149   -2.056081    1.524801
     59          1           0       -0.810080   -2.110538    3.269831
     60          1           0       -1.486291   -0.514751   -0.251211
     61          1           0       -2.105977    4.779953   -1.804131
     62          1           0       -0.718026    4.774616   -1.175715
     63          1           0        7.686192   -0.472332   -2.992446
     64          1           0       -1.780386    4.585197    1.305491
     65          1           0       -3.183269    4.844872    0.358141
     66          1           0       -4.181101    3.937096   -2.310003
     67          1           0       -5.057510    2.759451   -1.240140
     68          1           0       -4.640392    2.296471   -2.884885
     69          1           0       -4.753271   -0.094364   -1.914040
     70          1           0        8.986822   -0.854355   -0.261762
     71          1           0       10.144009   -0.404622   -1.849332
     72          1           0       -4.015758   -2.765980    3.265572
     73          1           0       -5.996063   -1.532770   -2.019548
     74          1           0       -5.063169   -5.697944   -0.597935
     75          1           0       -4.217815   -5.855693   -2.290235
     76          1           0       -3.361590   -5.809656   -0.646348
     77          1           0       -1.650528    7.908005    1.063787
     78          1           0       -7.619079   -3.221415   -3.023457
     79          1           0       -6.527309   -4.638997   -2.415205
 ---------------------------------------------------------------------

 SCF Done:  E(RB3LYP) =  -1947.79028194     A.U. after   16 cycles

 Excitation energies and oscillator strengths:

 Excited State   1:      Singlet-A      1.9716 eV  628.86 nm  f=0.3419  <S**2>=0.000
     155 ->156         0.70051
 This state for optimization and/or second-order correction.
 Total Energy, E(TD-HF/TD-DFT) =  -1947.71782818
 Copying the excited state density for this state as the 1-particle RhoCI density.

 The electronic state is 1-A.
 Alpha  occ. eigenvalues --  -19.20223 -19.17273 -19.14906 -19.11671 -19.11544
 Alpha  occ. eigenvalues --  -19.09120 -14.36851 -14.35925 -14.35355 -14.30219
 Alpha  occ. eigenvalues --  -10.33828 -10.30485 -10.27889 -10.27844 -10.25548
 Alpha  occ. eigenvalues --  -10.23601 -10.23539 -10.23234 -10.22701 -10.22103
 Alpha  occ. eigenvalues --  -10.22031 -10.21971 -10.21962 -10.21757 -10.21454
 Alpha  occ. eigenvalues --  -10.21431 -10.21256 -10.21084 -10.20695 -10.20475
 Alpha  occ. eigenvalues --  -10.20434 -10.20261 -10.19980 -10.19969 -10.19960
 Alpha  occ. eigenvalues --  -10.19727 -10.19695 -10.19642 -10.18904 -10.18447
 Alpha  occ. eigenvalues --  -10.17973 -10.17942 -10.17722  -1.14291  -1.07900
 Alpha  occ. eigenvalues --   -1.03946  -1.02601  -1.01539  -0.99118  -0.98934
 Alpha  occ. eigenvalues --   -0.98754  -0.93555  -0.90329  -0.82939  -0.82701
 Alpha  occ. eigenvalues --   -0.82391  -0.81386  -0.80516  -0.79521  -0.78178
 Alpha  occ. eigenvalues --   -0.78118  -0.77229  -0.76045  -0.75100  -0.72643
 Alpha  occ. eigenvalues --   -0.71679  -0.71406  -0.70320  -0.69275  -0.68039
 Alpha  occ. eigenvalues --   -0.67935  -0.67024  -0.64578  -0.62000  -0.61054
 Alpha  occ. eigenvalues --   -0.59725  -0.59113  -0.58104  -0.57775  -0.56632
 Alpha  occ. eigenvalues --   -0.56387  -0.55866  -0.54793  -0.54159  -0.53085
 Alpha  occ. eigenvalues --   -0.52706  -0.52193  -0.51563  -0.50823  -0.50357
 Alpha  occ. eigenvalues --   -0.50301  -0.48950  -0.48604  -0.48436  -0.47731
 Alpha  occ. eigenvalues --   -0.47421  -0.47058  -0.46458  -0.46312  -0.46021
 Alpha  occ. eigenvalues --   -0.45432  -0.45070  -0.44730  -0.43899  -0.43843
 Alpha  occ. eigenvalues --   -0.43528  -0.43213  -0.42956  -0.42496  -0.42478
 Alpha  occ. eigenvalues --   -0.41925  -0.41891  -0.41611  -0.41389  -0.41173
 Alpha  occ. eigenvalues --   -0.40890  -0.40777  -0.40421  -0.40196  -0.39933
 Alpha  occ. eigenvalues --   -0.39738  -0.39182  -0.38979  -0.38814  -0.38699
 Alpha  occ. eigenvalues --   -0.38492  -0.38459  -0.38333  -0.37435  -0.37249
 Alpha  occ. eigenvalues --   -0.36189  -0.35506  -0.35236  -0.34844  -0.34200
 Alpha  occ. eigenvalues --   -0.33727  -0.33612  -0.33424  -0.32274  -0.31937
 Alpha  occ. eigenvalues --   -0.31549  -0.31199  -0.29754  -0.28994  -0.28268
 Alpha  occ. eigenvalues --   -0.27154  -0.27073  -0.25960  -0.25064  -0.24865
 Alpha  occ. eigenvalues --   -0.24679  -0.24473  -0.23827  -0.22814  -0.18781
 Alpha virt. eigenvalues --   -0.10822  -0.06643  -0.06222  -0.01040  -0.00773
 Alpha virt. eigenvalues --    0.01268   0.01829   0.02447   0.03412   0.04127
 Alpha virt. eigenvalues --    0.04533   0.04592   0.04862   0.05280   0.05506

 Mulliken charges:
               1
     1  O   -0.271010
     2  O   -0.215320
     3  O   -0.235800
     4  O   -0.084621
     5  O   -0.225429
     6  O   -0.183252
     7  N   -0.019891
     8  N   -0.205879
     9  N   -0.117493
    10  N   -0.378544
    11  C    0.167276
    12  C    0.347478
    13  C   -0.137785
    14  C   -0.148986
    15  C   -0.033748
    16  C    0.066159
    17  C   -0.143791
    18  C    0.043357
    19  C   -0.074337
    20  C   -0.099509
    21  C    0.062263
    22  C    0.136663
    23  C    0.007531
    24  C    0.060984
    25  C    0.021324
    26  C   -0.157173
    27  C    0.072154
    28  C    0.149957
    29  C    0.047744
    30  C    0.039136
    31  C   -0.058743
    32  C    0.180309
    33  C   -0.174437
    34  C    0.105659
    35  C    0.098125
    36  C   -0.031868
    37  C    0.151944
    38  C    0.021763
    39  C   -0.169982
    40  C    0.164037
    41  C   -0.026811
    42  C    0.085155
    43  C   -0.068411
    44  H    0.005934
    45  H   -0.151691
    46  H   -0.028309
    47  H    0.062488
    48  H    0.156674
    49  H    0.016847
    50  H    0.036682
    51  H   -0.012083
    52  H   -0.010345
    53  H    0.037803
    54  H    0.061424
    55  H    0.026876
    56  H    0.062247
    57  H    0.025033
    58  H    0.116564
    59  H   -0.054446
    60  H    0.216580
    61  H   -0.013494
    62  H    0.017367
    63  H   -0.006251
    64  H    0.046939
    65  H    0.019685
    66  H    0.021730
    67  H    0.026374
    68  H    0.026415
    69  H   -0.021080
    70  H    0.008126
    71  H    0.049145
    72  H    0.201631
    73  H    0.012565
    74  H    0.040457
    75  H    0.052031
    76  H   -0.006384
    77  H    0.114957
    78  H    0.051059
    79  H    0.024252
 Sum of Mulliken charges =  -0.00000

 Dipole moment (field-independent basis, Debye):
    X=             -1.2239    Y=              1.2157    Z=              2.6262  Tot=              3.1421
 Quadrupole moment (field-independent basis, Debye-Ang):
   XX=           -215.4803   YY=           -239.2026   ZZ=           -267.7207
   XY=             -2.7187   XZ=             37.6785   YZ=              3.5614

 Normal termination of Gaussian 16 at Sat Sep 21 23:58:44 2019.
