 Gaussian 16, Revision A.03,
 Gaussian 16:  ES64L-G16RevA.03 25-Dec-2016

 --------------------------
 # td=(NStates=1) B3LYP/SVP
 --------------------------

 --
 TD
 --
 Symbolic Z-matrix:
 Charge =  0 Multiplicity = 1

                         Standard orientation:
 ---------------------------------------------------------------------
 Center     Atomic      Atomic             Coordinates (Angstroms)
 Number     Number       Type             X           Y           Z
 ---------------------------------------------------------------------
      1          8           0        5.223607   -0.146109   -3.294417
      2          8           0       -3.004669   -2.924252    3.146499
      3          8           0       -3.302322   -0.684308    2.936057
      4          8           0       -1.845831    7.155129    1.353664
      5          8           0       -0.980152    7.019361   -0.645401
      6          8           0       -1.484177   -3.994816    0.198083
      7          7           0        2.313815    1.071874    0.574521
      8          7           0        4.332580   -0.434061   -1.295285
      9          7           0       -1.901598    0.649396   -0.517517
     10          7           0       -2.418429   -2.036083   -0.478081
     11          6           0        4.721775   -1.042418    0.071690
     12          6           0        4.344427   -0.121906    1.300551
     13          6           0        2.913155    0.180759    1.350054
     14          6           0        1.968689   -0.485745    2.176033
     15          6           0        0.714041    0.108023    1.916531
     16          6           0        0.936016    1.115797    0.879355
     17          6           0        6.297138   -1.153795   -0.119403
     18          6           0       -0.483289   -0.142366    2.657922
     19          6           0        6.688840   -0.728330   -1.371650
     20          6           0        0.083729    2.059510    0.098457
     21          6           0       -1.213917    1.760835   -0.313769
     22          6           0        5.379037   -0.433758   -2.138145
     23          6           0       -2.056492    2.832486   -0.865433
     24          6           0        2.248877   -1.564286    3.124440
     25          6           0        7.120085   -1.747936    1.007138
     26          6           0       -3.274397    2.229730   -1.256137
     27          6           0       -1.017533   -1.609639    2.592542
     28          6           0       -3.128027    0.797539   -1.103051
     29          6           0       -1.713939    4.353466   -0.882176
     30          6           0        7.865267   -0.731659   -2.095005
     31          6           0       -2.001401    5.082710    0.321035
     32          6           0       -4.402849    2.936614   -2.033651
     33          6           0       -3.903303   -0.266468   -1.407700
     34          6           0       -2.529504   -1.640309    2.897704
     35          6           0       -3.582844   -1.702741   -1.117496
     36          6           0        9.158295   -0.720277   -1.457996
     37          6           0       -1.535335    6.508728    0.318237
     38          6           0       -4.372166   -2.847330   -1.353097
     39          6           0       -3.592341   -3.964466   -1.088804
     40          6           0       -2.356867   -3.395120   -0.266362
     41          6           0       -5.637172   -2.778115   -2.086867
     42          6           0       -3.817090   -5.416923   -1.178748
     43          6           0       -6.612653   -3.757340   -2.394920
     44          1           0        4.113325   -1.932903    0.086301
     45          1           0        4.993966    0.598387    1.252369
     46          1           0        4.605535   -0.635713    2.218159
     47          1           0        2.908715    1.715725   -0.173145
     48          1           0        3.275131   -0.595955   -1.379003
     49          1           0       -0.397885    0.181551    3.688304
     50          1           0       -1.227514    0.512477    2.471798
     51          1           0        0.633569    3.021799   -0.295031
     52          1           0        3.327376   -1.842542    3.167939
     53          1           0        1.936739   -1.284406    4.147078
     54          1           0        1.502718   -2.434924    2.812694
     55          1           0        6.698136   -2.538698    1.548999
     56          1           0        7.310420   -0.879553    1.644266
     57          1           0        8.097533   -2.130875    0.726616
     58          1           0       -0.784343   -2.038528    1.512354
     59          1           0       -0.553410   -2.361831    3.384620
     60          1           0       -1.679479   -0.295851   -0.431881
     61          1           0       -2.143631    4.812952   -1.690735
     62          1           0       -0.645677    4.429523   -1.147247
     63          1           0        7.850580   -0.578898   -3.214004
     64          1           0       -1.629823    4.633835    1.220561
     65          1           0       -3.244867    5.099852    0.521123
     66          1           0       -4.185219    3.974124   -2.025322
     67          1           0       -5.289893    2.763895   -1.623094
     68          1           0       -4.700841    2.657805   -3.026225
     69          1           0       -4.819169    0.114521   -1.784428
     70          1           0        9.333923   -0.521831   -0.470088
     71          1           0        9.990683   -0.777914   -2.214630
     72          1           0       -4.162753   -2.920846    3.315072
     73          1           0       -5.857733   -1.601920   -2.207914
     74          1           0       -4.650397   -5.632775   -0.534635
     75          1           0       -4.108453   -5.671832   -2.158603
     76          1           0       -3.117646   -6.072106   -0.652325
     77          1           0       -1.743223    8.144637    1.320018
     78          1           0       -7.460637   -3.562222   -2.857908
     79          1           0       -6.561483   -4.798525   -1.781086
 ---------------------------------------------------------------------

 SCF Done:  E(RB3LYP) =  -1947.82649548     A.U. after   17 cycles

 Excitation energies and oscillator strengths:

 Excited State   1:      Singlet-A      1.9066 eV  650.29 nm  f=0.3845  <S**2>=0.000
     154 ->156         0.19719
     155 ->156         0.67604
     155 <-156        -0.12068
 This state for optimization and/or second-order correction.
 Total Energy, E(TD-HF/TD-DFT) =  -1947.75642887
 Copying the excited state density for this state as the 1-particle RhoCI density.

 The electronic state is 1-A.
 Alpha  occ. eigenvalues --  -19.19866 -19.17098 -19.11506 -19.11371 -19.11061
 Alpha  occ. eigenvalues --  -19.09031 -14.39609 -14.35302 -14.35235 -14.28302
 Alpha  occ. eigenvalues --  -10.31904 -10.30988 -10.28032 -10.26215 -10.25110
 Alpha  occ. eigenvalues --  -10.24296 -10.24010 -10.23557 -10.23527 -10.23171
 Alpha  occ. eigenvalues --  -10.22810 -10.22710 -10.21501 -10.21393 -10.21091
 Alpha  occ. eigenvalues --  -10.21044 -10.20940 -10.20686 -10.20677 -10.20470
 Alpha  occ. eigenvalues --  -10.20375 -10.20370 -10.20166 -10.20118 -10.19820
 Alpha  occ. eigenvalues --  -10.19634 -10.19450 -10.19366 -10.19236 -10.18574
 Alpha  occ. eigenvalues --  -10.18300 -10.18208 -10.17723  -1.12960  -1.05066
 Alpha  occ. eigenvalues --   -1.04935  -1.02809  -1.00160  -0.99336  -0.98418
 Alpha  occ. eigenvalues --   -0.96341  -0.92051  -0.91776  -0.82671  -0.82071
 Alpha  occ. eigenvalues --   -0.81874  -0.81222  -0.80026  -0.79361  -0.78269
 Alpha  occ. eigenvalues --   -0.76742  -0.75693  -0.75326  -0.74174  -0.72234
 Alpha  occ. eigenvalues --   -0.71093  -0.70874  -0.70229  -0.69856  -0.68431
 Alpha  occ. eigenvalues --   -0.66541  -0.66077  -0.64133  -0.62567  -0.62416
 Alpha  occ. eigenvalues --   -0.60697  -0.59385  -0.57658  -0.57515  -0.56614
 Alpha  occ. eigenvalues --   -0.56080  -0.55485  -0.54858  -0.53727  -0.52622
 Alpha  occ. eigenvalues --   -0.52036  -0.51821  -0.50926  -0.50224  -0.49730
 Alpha  occ. eigenvalues --   -0.49062  -0.48300  -0.48122  -0.47750  -0.46932
 Alpha  occ. eigenvalues --   -0.46758  -0.46646  -0.45906  -0.45857  -0.45149
 Alpha  occ. eigenvalues --   -0.45022  -0.44846  -0.44601  -0.43970  -0.43932
 Alpha  occ. eigenvalues --   -0.43755  -0.43254  -0.43048  -0.42541  -0.42410
 Alpha  occ. eigenvalues --   -0.42205  -0.41772  -0.41576  -0.41426  -0.41262
 Alpha  occ. eigenvalues --   -0.41061  -0.40853  -0.40331  -0.40041  -0.39990
 Alpha  occ. eigenvalues --   -0.39750  -0.39568  -0.39010  -0.38509  -0.38332
 Alpha  occ. eigenvalues --   -0.38250  -0.37826  -0.37795  -0.37266  -0.36965
 Alpha  occ. eigenvalues --   -0.36153  -0.36057  -0.35897  -0.35400  -0.35057
 Alpha  occ. eigenvalues --   -0.34117  -0.33868  -0.32491  -0.32317  -0.32172
 Alpha  occ. eigenvalues --   -0.30418  -0.30111  -0.27728  -0.27685  -0.27601
 Alpha  occ. eigenvalues --   -0.26479  -0.26089  -0.25334  -0.25010  -0.24530
 Alpha  occ. eigenvalues --   -0.23638  -0.23341  -0.22967  -0.21165  -0.18271
 Alpha virt. eigenvalues --   -0.10879  -0.06986  -0.06462  -0.01686   0.00016
 Alpha virt. eigenvalues --    0.00482   0.00674   0.00919   0.01236   0.02407
 Alpha virt. eigenvalues --    0.03014   0.03382   0.04684   0.04786   0.04926

 Mulliken charges:
               1
     1  O   -0.208404
     2  O   -0.308256
     3  O   -0.245656
     4  O   -0.113214
     5  O   -0.255665
     6  O   -0.135569
     7  N   -0.108268
     8  N   -0.224158
     9  N    0.034139
    10  N   -0.304863
    11  C    0.030123
    12  C    0.317449
    13  C   -0.129533
    14  C   -0.135568
    15  C   -0.092471
    16  C    0.042793
    17  C   -0.174559
    18  C    0.189381
    19  C    0.011136
    20  C   -0.141535
    21  C    0.132414
    22  C    0.129337
    23  C   -0.147058
    24  C    0.075240
    25  C    0.122180
    26  C   -0.108771
    27  C   -0.106343
    28  C    0.001139
    29  C    0.182488
    30  C   -0.089589
    31  C   -0.030134
    32  C    0.181846
    33  C   -0.029889
    34  C    0.184659
    35  C    0.124555
    36  C   -0.015992
    37  C    0.091742
    38  C    0.016927
    39  C   -0.230213
    40  C    0.126386
    41  C   -0.063212
    42  C    0.151330
    43  C   -0.019713
    44  H    0.015300
    45  H   -0.083322
    46  H   -0.012223
    47  H    0.186283
    48  H    0.158218
    49  H   -0.008753
    50  H   -0.045924
    51  H    0.034145
    52  H    0.006886
    53  H    0.018876
    54  H    0.058141
    55  H    0.011871
    56  H    0.029903
    57  H    0.017225
    58  H    0.115881
    59  H    0.054005
    60  H    0.084802
    61  H   -0.021387
    62  H    0.000875
    63  H    0.043291
    64  H    0.022846
    65  H    0.055345
    66  H   -0.008011
    67  H   -0.029875
    68  H    0.010419
    69  H   -0.054885
    70  H    0.006351
    71  H    0.039280
    72  H    0.253240
    73  H    0.026077
    74  H    0.011681
    75  H    0.021699
    76  H    0.017597
    77  H    0.206957
    78  H   -0.013433
    79  H    0.043990
 Sum of Mulliken charges =  -0.00000

 Dipole moment (field-independent basis, Debye):
    X=              0.4119    Y=              2.4323    Z=              4.6117  Tot=              5.2300
 Quadrupole moment (field-independent basis, Debye-Ang):
   XX=           -216.8231   YY=           -236.1230   ZZ=           -265.1364
   XY=             -8.0153   XZ=             27.3471   YZ=              6.7747

 Normal termination of Gaussian 16 at Fri Sep 20 08:08:54 2019.
