 Gaussian 16, Revision A.03,
 Gaussian 16:  ES64L-G16RevA.03 25-Dec-2016

 --------------------------
 # td=(NStates=1) B3LYP/SVP
 --------------------------

 --
 TD
 --
 Symbolic Z-matrix:
 Charge =  0 Multiplicity = 1

                         Standard orientation:
 ---------------------------------------------------------------------
 Center     Atomic      Atomic             Coordinates (Angstroms)
 Number     Number       Type             X           Y           Z
 ---------------------------------------------------------------------
      1          8           0        5.394534   -0.050388   -3.256512
      2          8           0       -2.876354   -3.076849    3.248874
      3          8           0       -3.398881   -0.927723    2.657249
      4          8           0       -1.437657    7.006391    1.860760
      5          8           0       -0.614038    6.975770   -0.273745
      6          8           0       -1.791143   -3.992357   -0.053534
      7          7           0        2.386122    0.944883    0.573199
      8          7           0        4.292913   -0.625842   -1.258940
      9          7           0       -1.800651    0.762425   -0.476772
     10          7           0       -2.606724   -1.838072   -0.485738
     11          6           0        4.812205   -1.240000    0.007704
     12          6           0        4.434254   -0.322903    1.248084
     13          6           0        2.968450   -0.027543    1.370211
     14          6           0        1.941762   -0.733180    2.050328
     15          6           0        0.713807    0.085360    1.727044
     16          6           0        1.007697    0.851727    0.782251
     17          6           0        6.306784   -1.309286   -0.162684
     18          6           0       -0.565024   -0.324308    2.410364
     19          6           0        6.633579   -0.877758   -1.359911
     20          6           0        0.292132    2.007180    0.104981
     21          6           0       -1.086893    1.941554   -0.339993
     22          6           0        5.497457   -0.368158   -2.079629
     23          6           0       -1.853734    2.979696   -1.028007
     24          6           0        2.184039   -1.778704    3.110808
     25          6           0        7.061151   -1.963246    1.028896
     26          6           0       -3.094966    2.342476   -1.359469
     27          6           0       -1.015740   -1.730875    2.401891
     28          6           0       -3.024660    0.966514   -1.105025
     29          6           0       -1.610182    4.492656   -1.012694
     30          6           0        7.989832   -0.738538   -2.111106
     31          6           0       -1.836954    5.082635    0.470217
     32          6           0       -4.433828    3.022003   -1.974716
     33          6           0       -3.966016   -0.011318   -1.320687
     34          6           0       -2.552770   -1.856414    2.738987
     35          6           0       -3.721078   -1.395097   -1.078643
     36          6           0        9.198887   -0.809797   -1.512445
     37          6           0       -1.211081    6.425592    0.604434
     38          6           0       -4.650770   -2.430049   -1.456331
     39          6           0       -3.975236   -3.618979   -1.024364
     40          6           0       -2.711140   -3.204396   -0.501028
     41          6           0       -6.027774   -2.350145   -1.892431
     42          6           0       -4.375288   -4.981312   -1.030367
     43          6           0       -6.823225   -3.415844   -2.351681
     44          1           0        4.445159   -2.375925    0.140767
     45          1           0        5.141872    0.546594    1.207562
     46          1           0        4.700258   -0.975296    2.189679
     47          1           0        2.700610    1.579000   -0.116366
     48          1           0        3.295969   -0.859154   -1.626374
     49          1           0       -0.578555   -0.094420    3.368891
     50          1           0       -1.442624    0.064310    1.814921
     51          1           0        0.817081    2.893867   -0.002860
     52          1           0        3.222208   -1.760938    3.665046
     53          1           0        1.257998   -1.713989    3.779815
     54          1           0        1.814938   -2.820970    2.652769
     55          1           0        6.523769   -2.896413    1.540722
     56          1           0        7.578051   -1.196126    1.758772
     57          1           0        8.032398   -2.355710    0.463252
     58          1           0       -1.138753   -2.397278    1.529223
     59          1           0       -0.341741   -2.181871    3.204824
     60          1           0       -1.503891   -0.186042   -0.166113
     61          1           0       -2.295923    5.001440   -1.832241
     62          1           0       -0.645420    4.768924   -1.469325
     63          1           0        7.982002   -0.592346   -3.227608
     64          1           0       -1.438557    4.314607    1.222051
     65          1           0       -2.811535    5.328466    0.634156
     66          1           0       -4.083639    3.974951   -2.419695
     67          1           0       -4.922876    3.053872   -0.820787
     68          1           0       -4.815004    2.251582   -2.745898
     69          1           0       -4.856822    0.277097   -1.531719
     70          1           0        8.991158   -0.775348   -0.349757
     71          1           0       10.133105   -0.875139   -1.943086
     72          1           0       -3.726955   -3.017437    3.327638
     73          1           0       -6.523364   -1.278513   -1.897089
     74          1           0       -5.146092   -5.295714   -0.640405
     75          1           0       -4.464038   -5.441974   -2.101869
     76          1           0       -3.490982   -5.408862   -0.505584
     77          1           0       -1.326943    7.912909    1.776755
     78          1           0       -7.876891   -3.378141   -2.736569
     79          1           0       -6.353348   -4.529780   -2.200390
 ---------------------------------------------------------------------

 SCF Done:  E(RB3LYP) =  -1947.75393332     A.U. after   19 cycles

 Excitation energies and oscillator strengths:

 Excited State   1:      Singlet-A      1.8319 eV  676.82 nm  f=0.2174  <S**2>=0.000
     153 ->156         0.11435
     154 ->156         0.41893
     155 ->156         0.55684
 This state for optimization and/or second-order correction.
 Total Energy, E(TD-HF/TD-DFT) =  -1947.68661388
 Copying the excited state density for this state as the 1-particle RhoCI density.

 The electronic state is 1-A.
 Alpha  occ. eigenvalues --  -19.17995 -19.16932 -19.14278 -19.11715 -19.10565
 Alpha  occ. eigenvalues --  -19.10251 -14.36872 -14.36744 -14.34705 -14.28896
 Alpha  occ. eigenvalues --  -10.33146 -10.31516 -10.28856 -10.25839 -10.25421
 Alpha  occ. eigenvalues --  -10.25290 -10.24479 -10.23834 -10.23360 -10.23307
 Alpha  occ. eigenvalues --  -10.23118 -10.23088 -10.22858 -10.22808 -10.22328
 Alpha  occ. eigenvalues --  -10.22279 -10.22146 -10.22057 -10.21943 -10.21703
 Alpha  occ. eigenvalues --  -10.21592 -10.21483 -10.21300 -10.21297 -10.20285
 Alpha  occ. eigenvalues --  -10.20150 -10.19507 -10.19431 -10.19073 -10.18458
 Alpha  occ. eigenvalues --  -10.18437 -10.17723 -10.16840  -1.10067  -1.10042
 Alpha  occ. eigenvalues --   -1.02361  -1.01950  -0.98939  -0.98231  -0.98153
 Alpha  occ. eigenvalues --   -0.97734  -0.92093  -0.91704  -0.82127  -0.81787
 Alpha  occ. eigenvalues --   -0.81427  -0.81114  -0.80386  -0.79123  -0.77869
 Alpha  occ. eigenvalues --   -0.76930  -0.76619  -0.75802  -0.74432  -0.72780
 Alpha  occ. eigenvalues --   -0.71168  -0.71071  -0.69989  -0.68599  -0.68158
 Alpha  occ. eigenvalues --   -0.67412  -0.65846  -0.63587  -0.61543  -0.60700
 Alpha  occ. eigenvalues --   -0.59247  -0.59104  -0.58861  -0.57903  -0.56437
 Alpha  occ. eigenvalues --   -0.56114  -0.55760  -0.54841  -0.53759  -0.53040
 Alpha  occ. eigenvalues --   -0.52542  -0.51674  -0.50938  -0.50538  -0.49840
 Alpha  occ. eigenvalues --   -0.49521  -0.48923  -0.48556  -0.48237  -0.47586
 Alpha  occ. eigenvalues --   -0.47355  -0.46851  -0.46609  -0.45770  -0.45262
 Alpha  occ. eigenvalues --   -0.44872  -0.44589  -0.44448  -0.44031  -0.43905
 Alpha  occ. eigenvalues --   -0.43523  -0.42915  -0.42818  -0.42432  -0.42171
 Alpha  occ. eigenvalues --   -0.42046  -0.41870  -0.41616  -0.41493  -0.41216
 Alpha  occ. eigenvalues --   -0.40944  -0.40350  -0.40295  -0.39849  -0.39547
 Alpha  occ. eigenvalues --   -0.39119  -0.39025  -0.38854  -0.38670  -0.38483
 Alpha  occ. eigenvalues --   -0.38295  -0.38034  -0.37353  -0.37103  -0.36816
 Alpha  occ. eigenvalues --   -0.36270  -0.36164  -0.34704  -0.34248  -0.33889
 Alpha  occ. eigenvalues --   -0.33716  -0.33567  -0.32711  -0.31183  -0.31002
 Alpha  occ. eigenvalues --   -0.30665  -0.30178  -0.29515  -0.28196  -0.27485
 Alpha  occ. eigenvalues --   -0.26641  -0.26289  -0.25823  -0.25547  -0.25234
 Alpha  occ. eigenvalues --   -0.25043  -0.24362  -0.22861  -0.21567  -0.19655
 Alpha virt. eigenvalues --   -0.12253  -0.07619  -0.06010  -0.01494  -0.00979
 Alpha virt. eigenvalues --   -0.00262   0.00693   0.01292   0.02325   0.02562
 Alpha virt. eigenvalues --    0.03175   0.04213   0.05151   0.05605   0.05745

 Mulliken charges:
               1
     1  O   -0.218349
     2  O   -0.097565
     3  O   -0.281489
     4  O   -0.200221
     5  O   -0.195175
     6  O   -0.280602
     7  N   -0.076857
     8  N   -0.300515
     9  N   -0.103538
    10  N   -0.243174
    11  C    0.007945
    12  C    0.155925
    13  C   -0.032343
    14  C   -0.158079
    15  C    0.000488
    16  C   -0.002649
    17  C   -0.141615
    18  C    0.125942
    19  C   -0.023060
    20  C   -0.021411
    21  C    0.066079
    22  C    0.177357
    23  C   -0.088168
    24  C    0.026455
    25  C   -0.019211
    26  C   -0.186466
    27  C   -0.039304
    28  C    0.180527
    29  C    0.043380
    30  C   -0.020757
    31  C    0.051092
    32  C    0.030350
    33  C   -0.048071
    34  C    0.140414
    35  C    0.106824
    36  C   -0.007642
    37  C    0.122107
    38  C    0.039264
    39  C   -0.174607
    40  C    0.157578
    41  C   -0.055210
    42  C    0.171360
    43  C   -0.085311
    44  H    0.049806
    45  H    0.003093
    46  H    0.005686
    47  H    0.101123
    48  H    0.168554
    49  H   -0.037963
    50  H    0.023243
    51  H   -0.021343
    52  H    0.058632
    53  H    0.019055
    54  H    0.046759
    55  H    0.068742
    56  H    0.067388
    57  H    0.048163
    58  H    0.073800
    59  H    0.009354
    60  H    0.160896
    61  H    0.023520
    62  H    0.031723
    63  H    0.030637
    64  H    0.076177
    65  H    0.013939
    66  H    0.038292
    67  H    0.085322
    68  H    0.066320
    69  H   -0.120468
    70  H    0.026718
    71  H    0.011636
    72  H    0.104089
    73  H    0.022640
    74  H   -0.055217
    75  H    0.033693
    76  H    0.026380
    77  H    0.154706
    78  H    0.045012
    79  H    0.038194
 Sum of Mulliken charges =  -0.00000

 Dipole moment (field-independent basis, Debye):
    X=              0.2012    Y=              2.9642    Z=              2.6808  Tot=              4.0017
 Quadrupole moment (field-independent basis, Debye-Ang):
   XX=           -214.2643   YY=           -246.1757   ZZ=           -263.4818
   XY=            -14.4594   XZ=             28.6783   YZ=              2.2146

 Normal termination of Gaussian 16 at Thu Sep 19 23:34:00 2019.
