 Gaussian 16, Revision A.03,
 Gaussian 16:  ES64L-G16RevA.03 25-Dec-2016

 --------------------------
 # td=(NStates=1) B3LYP/SVP
 --------------------------

 --
 TD
 --
 Symbolic Z-matrix:
 Charge =  0 Multiplicity = 1

                         Standard orientation:
 ---------------------------------------------------------------------
 Center     Atomic      Atomic             Coordinates (Angstroms)
 Number     Number       Type             X           Y           Z
 ---------------------------------------------------------------------
      1          8           0       -3.390301   -1.534588   -2.846864
      2          8           0        2.666936    3.676811    2.711283
      3          8           0        3.362720    2.104589    4.135553
      4          8           0        7.630045   -2.002652   -0.052428
      5          8           0        6.698415   -3.247776   -1.747306
      6          8           0       -2.450503    1.784065    1.188925
      7          7           0       -0.349732   -2.270887    1.156457
      8          7           0       -2.706305   -1.355913   -0.666300
      9          7           0        1.096386   -0.087174   -0.734622
     10          7           0       -0.952875    1.327599   -0.562883
     11          6           0       -3.382265   -1.267239    0.679848
     12          6           0       -2.660333   -2.149600    1.719118
     13          6           0       -1.257436   -1.742161    2.001145
     14          6           0       -0.640257   -0.853986    2.891268
     15          6           0        0.773244   -0.751285    2.563415
     16          6           0        0.926671   -1.838320    1.490674
     17          6           0       -4.708402   -1.879767    0.483321
     18          6           0        1.846739    0.081596    3.093282
     19          6           0       -4.883650   -2.174709   -0.853244
     20          6           0        2.048109   -1.859498    0.558251
     21          6           0        2.122789   -1.015768   -0.487035
     22          6           0       -3.610155   -1.687943   -1.687937
     23          6           0        3.123180   -0.839473   -1.630812
     24          6           0       -1.430173    0.048679    3.749600
     25          6           0       -5.714350   -1.982397    1.580205
     26          6           0        2.680395    0.176446   -2.488494
     27          6           0        1.596796    1.532345    2.659587
     28          6           0        1.428981    0.611495   -1.924691
     29          6           0        4.284195   -1.848371   -1.689843
     30          6           0       -5.961276   -2.680909   -1.647070
     31          6           0        5.451065   -1.442429   -0.752781
     32          6           0        3.373798    0.605278   -3.612272
     33          6           0        0.588319    1.610994   -2.362231
     34          6           0        2.641157    2.550318    3.270827
     35          6           0       -0.492057    1.996612   -1.588254
     36          6           0       -7.047482   -3.326194   -1.261604
     37          6           0        6.634179   -2.329466   -0.983919
     38          6           0       -1.196317    3.353543   -1.629329
     39          6           0       -2.133174    3.323420   -0.626659
     40          6           0       -1.911119    2.043216    0.129091
     41          6           0       -0.985724    4.362374   -2.676144
     42          6           0       -3.128050    4.313321   -0.157734
     43          6           0       -1.462092    5.567185   -2.774671
     44          1           0       -3.643034   -0.306634    1.102522
     45          1           0       -2.669875   -3.131749    1.464890
     46          1           0       -3.397949   -2.212057    2.604450
     47          1           0       -0.620200   -2.585088    0.150970
     48          1           0       -1.932275   -0.695419   -0.555788
     49          1           0        2.176152    0.128357    4.222505
     50          1           0        2.871599   -0.490835    2.543334
     51          1           0        2.851338   -2.578412    0.587779
     52          1           0       -2.275243   -0.426257    4.346031
     53          1           0       -0.903631    0.422189    4.491542
     54          1           0       -1.960247    0.867403    3.218488
     55          1           0       -5.445988   -1.229076    2.214449
     56          1           0       -5.880763   -3.001697    1.745646
     57          1           0       -6.824942   -1.736571    1.263898
     58          1           0        1.615144    1.906778    1.488935
     59          1           0        0.569970    1.871451    3.101691
     60          1           0        0.139506    0.181249   -0.344079
     61          1           0        4.548856   -1.837549   -2.861998
     62          1           0        4.269358   -2.964344   -1.560750
     63          1           0       -6.013652   -2.311258   -2.635198
     64          1           0        5.220547   -1.242792    0.384763
     65          1           0        5.687150   -0.342475   -1.077152
     66          1           0        4.228197   -0.271846   -3.942845
     67          1           0        3.738495    1.596093   -3.626172
     68          1           0        2.656487    0.755222   -4.420884
     69          1           0        0.978332    2.274881   -3.079375
     70          1           0       -6.947542   -3.713007   -0.023399
     71          1           0       -8.108233   -3.206099   -1.936464
     72          1           0        3.463664    4.191910    2.971828
     73          1           0       -0.232123    4.082904   -3.418162
     74          1           0       -3.870844    4.563273   -0.980672
     75          1           0       -3.674070    3.932441    0.640938
     76          1           0       -2.594755    5.202604    0.257027
     77          1           0        8.228269   -2.609480   -0.320120
     78          1           0       -1.435170    6.311412   -3.712517
     79          1           0       -2.055183    6.021666   -1.977423
 ---------------------------------------------------------------------

 SCF Done:  E(RB3LYP) =  -1947.80368462     A.U. after   16 cycles

 Excitation energies and oscillator strengths:

 Excited State   1:      Singlet-A      1.1474 eV 1080.55 nm  f=0.0001  <S**2>=0.000
     155 ->156         0.70353
 This state for optimization and/or second-order correction.
 Total Energy, E(TD-HF/TD-DFT) =  -1947.76151779
 Copying the excited state density for this state as the 1-particle RhoCI density.

 The electronic state is 1-A.
 Alpha  occ. eigenvalues --  -19.20355 -19.18502 -19.15586 -19.12699 -19.11008
 Alpha  occ. eigenvalues --  -19.09765 -14.37154 -14.35930 -14.33150 -14.31118
 Alpha  occ. eigenvalues --  -10.33867 -10.31078 -10.28542 -10.27948 -10.26311
 Alpha  occ. eigenvalues --  -10.25205 -10.24625 -10.23913 -10.23440 -10.23270
 Alpha  occ. eigenvalues --  -10.22835 -10.22053 -10.22025 -10.21421 -10.21278
 Alpha  occ. eigenvalues --  -10.21103 -10.20901 -10.20775 -10.20772 -10.20638
 Alpha  occ. eigenvalues --  -10.20606 -10.20524 -10.20419 -10.19891 -10.19756
 Alpha  occ. eigenvalues --  -10.19490 -10.19353 -10.19117 -10.19015 -10.18549
 Alpha  occ. eigenvalues --  -10.17955 -10.16925 -10.15667  -1.13098  -1.11674
 Alpha  occ. eigenvalues --   -1.03846  -1.03710  -1.02640  -1.00714  -0.97629
 Alpha  occ. eigenvalues --   -0.96136  -0.94621  -0.91360  -0.84144  -0.82668
 Alpha  occ. eigenvalues --   -0.81557  -0.81016  -0.79562  -0.79179  -0.78587
 Alpha  occ. eigenvalues --   -0.77301  -0.76415  -0.75156  -0.74280  -0.73360
 Alpha  occ. eigenvalues --   -0.70702  -0.70224  -0.69914  -0.69418  -0.67492
 Alpha  occ. eigenvalues --   -0.66797  -0.66318  -0.63463  -0.61237  -0.60505
 Alpha  occ. eigenvalues --   -0.59791  -0.59536  -0.58949  -0.57264  -0.56518
 Alpha  occ. eigenvalues --   -0.56004  -0.55119  -0.54395  -0.53634  -0.52595
 Alpha  occ. eigenvalues --   -0.51941  -0.51504  -0.50741  -0.50550  -0.49798
 Alpha  occ. eigenvalues --   -0.49165  -0.49098  -0.48575  -0.48386  -0.48141
 Alpha  occ. eigenvalues --   -0.47609  -0.47164  -0.46907  -0.46355  -0.45875
 Alpha  occ. eigenvalues --   -0.45639  -0.45464  -0.45003  -0.44846  -0.44782
 Alpha  occ. eigenvalues --   -0.44338  -0.43696  -0.43338  -0.42960  -0.42051
 Alpha  occ. eigenvalues --   -0.41940  -0.41855  -0.41522  -0.41201  -0.41028
 Alpha  occ. eigenvalues --   -0.40687  -0.40494  -0.39963  -0.39811  -0.39529
 Alpha  occ. eigenvalues --   -0.39161  -0.39003  -0.38876  -0.38717  -0.38308
 Alpha  occ. eigenvalues --   -0.37693  -0.36942  -0.36609  -0.36478  -0.36199
 Alpha  occ. eigenvalues --   -0.35961  -0.35462  -0.35279  -0.34869  -0.34603
 Alpha  occ. eigenvalues --   -0.34191  -0.33151  -0.32404  -0.32251  -0.32123
 Alpha  occ. eigenvalues --   -0.31039  -0.30316  -0.29904  -0.29469  -0.29271
 Alpha  occ. eigenvalues --   -0.26719  -0.26302  -0.26170  -0.25895  -0.24488
 Alpha  occ. eigenvalues --   -0.23899  -0.22455  -0.22415  -0.22180  -0.18892
 Alpha virt. eigenvalues --   -0.12071  -0.07186  -0.04173  -0.02345  -0.01140
 Alpha virt. eigenvalues --    0.00387   0.01701   0.01956   0.02475   0.02655
 Alpha virt. eigenvalues --    0.03926   0.04041   0.04137   0.05117   0.05397

 Mulliken charges:
               1
     1  O   -0.182918
     2  O   -0.094620
     3  O   -0.245487
     4  O   -0.157637
     5  O   -0.197666
     6  O   -0.199622
     7  N   -0.097602
     8  N   -0.255539
     9  N   -0.158024
    10  N   -0.304949
    11  C    0.087766
    12  C    0.182749
    13  C   -0.047429
    14  C   -0.102553
    15  C   -0.068503
    16  C    0.029299
    17  C   -0.215813
    18  C   -0.003261
    19  C   -0.083925
    20  C   -0.098646
    21  C    0.132953
    22  C    0.183413
    23  C   -0.033329
    24  C    0.120691
    25  C    0.150584
    26  C   -0.066138
    27  C   -0.106071
    28  C    0.110145
    29  C   -0.010379
    30  C    0.025451
    31  C   -0.070123
    32  C    0.073362
    33  C   -0.078421
    34  C    0.090445
    35  C    0.119273
    36  C   -0.135373
    37  C    0.159281
    38  C    0.036881
    39  C   -0.226748
    40  C    0.187349
    41  C    0.019959
    42  C    0.124927
    43  C   -0.078174
    44  H    0.037507
    45  H   -0.055793
    46  H   -0.003049
    47  H    0.159651
    48  H    0.135486
    49  H    0.061769
    50  H    0.018230
    51  H   -0.016675
    52  H   -0.017723
    53  H   -0.046217
    54  H    0.044014
    55  H    0.005918
    56  H    0.030555
    57  H    0.029737
    58  H    0.050641
    59  H    0.060528
    60  H    0.203162
    61  H    0.034626
    62  H    0.050334
    63  H   -0.005246
    64  H    0.085912
    65  H    0.053777
    66  H    0.060153
    67  H    0.014703
    68  H    0.014094
    69  H   -0.048980
    70  H    0.025485
    71  H    0.064333
    72  H    0.189185
    73  H   -0.014229
    74  H    0.040862
    75  H   -0.007003
    76  H    0.039368
    77  H    0.124549
    78  H    0.050880
    79  H    0.013880
 Sum of Mulliken charges =  -0.00000

 Dipole moment (field-independent basis, Debye):
    X=              3.0714    Y=              4.4190    Z=             -1.5255  Tot=              5.5936
 Quadrupole moment (field-independent basis, Debye-Ang):
   XX=           -235.0116   YY=           -237.7051   ZZ=           -269.4176
   XY=              2.6178   XZ=            -23.7597   YZ=            -13.2346

 Normal termination of Gaussian 16 at Sat Jul 27 00:58:39 2019.
