 Gaussian 16, Revision A.03,
 Gaussian 16:  ES64L-G16RevA.03 25-Dec-2016

 --------------------------
 # td=(NStates=1) B3LYP/SVP
 --------------------------

 --
 TD
 --
 Symbolic Z-matrix:
 Charge =  0 Multiplicity = 1

                         Standard orientation:
 ---------------------------------------------------------------------
 Center     Atomic      Atomic             Coordinates (Angstroms)
 Number     Number       Type             X           Y           Z
 ---------------------------------------------------------------------
      1          8           0        5.500274    0.048894   -3.323072
      2          8           0       -3.031431   -3.050627    3.445109
      3          8           0       -3.303925   -0.903903    3.125746
      4          8           0       -1.448391    7.262616    1.537565
      5          8           0       -1.059346    7.204991   -0.670158
      6          8           0       -1.678655   -3.923891   -0.162158
      7          7           0        2.356798    0.890548    0.539780
      8          7           0        4.451889   -0.457154   -1.261824
      9          7           0       -1.830882    0.631851   -0.435271
     10          7           0       -2.578017   -1.785687   -0.465570
     11          6           0        4.793446   -1.160166   -0.041588
     12          6           0        4.356045   -0.306350    1.232643
     13          6           0        2.891756   -0.091447    1.400516
     14          6           0        1.895890   -0.690218    2.115137
     15          6           0        0.714913   -0.108606    1.845814
     16          6           0        0.973024    0.871068    0.799582
     17          6           0        6.328581   -1.295206   -0.133142
     18          6           0       -0.613406   -0.265748    2.499700
     19          6           0        6.786997   -0.883361   -1.379871
     20          6           0        0.119342    1.842381    0.242658
     21          6           0       -1.170259    1.760863   -0.202365
     22          6           0        5.469492   -0.393137   -2.177625
     23          6           0       -1.948984    2.919233   -0.678988
     24          6           0        2.152102   -1.781739    3.087615
     25          6           0        7.030942   -1.883733    0.993909
     26          6           0       -3.157479    2.340160   -1.223567
     27          6           0       -1.081513   -1.815167    2.586122
     28          6           0       -3.086530    0.921648   -1.090013
     29          6           0       -1.520246    4.296832   -0.768732
     30          6           0        7.961780   -0.830387   -2.054404
     31          6           0       -1.691871    5.049595    0.456604
     32          6           0       -4.397111    2.881521   -1.880756
     33          6           0       -3.987859   -0.032456   -1.429270
     34          6           0       -2.550559   -1.834260    3.100879
     35          6           0       -3.747816   -1.453911   -1.065333
     36          6           0        9.217667   -0.635386   -1.440144
     37          6           0       -1.335735    6.568473    0.373409
     38          6           0       -4.584198   -2.594795   -1.528170
     39          6           0       -3.856024   -3.769762   -1.252937
     40          6           0       -2.578198   -3.283813   -0.554143
     41          6           0       -5.933008   -2.345762   -2.116155
     42          6           0       -4.158441   -5.223177   -1.393883
     43          6           0       -6.730151   -3.275979   -2.519622
     44          1           0        4.430884   -2.184498    0.135836
     45          1           0        4.872540    0.866259    1.242663
     46          1           0        4.662537   -0.860068    2.187699
     47          1           0        2.868635    1.321279    0.035317
     48          1           0        3.551266   -0.320109   -1.698952
     49          1           0       -0.553782    0.265980    3.347888
     50          1           0       -1.217633    0.518339    2.006525
     51          1           0        0.520074    2.828180    0.158329
     52          1           0        3.235360   -1.399186    3.629770
     53          1           0        1.404512   -1.653027    3.916517
     54          1           0        2.021840   -2.822942    2.637576
     55          1           0        6.488570   -2.765673    1.376270
     56          1           0        7.285522   -1.178850    1.873875
     57          1           0        8.110988   -2.127469    0.606354
     58          1           0       -1.045438   -2.418394    1.670516
     59          1           0       -0.412093   -2.456089    3.242543
     60          1           0       -1.648163   -0.451189   -0.150002
     61          1           0       -1.960442    4.940866   -1.563687
     62          1           0       -0.379255    4.069094   -1.249065
     63          1           0        8.015658   -0.915737   -3.148192
     64          1           0       -1.203627    4.527108    1.285346
     65          1           0       -2.857261    5.191326    0.964107
     66          1           0       -4.414761    4.056172   -2.062871
     67          1           0       -5.442973    2.787082   -1.345407
     68          1           0       -4.359966    2.389132   -2.932143
     69          1           0       -5.025068    0.158829   -1.880741
     70          1           0        9.388021   -0.274796   -0.405959
     71          1           0       10.286637   -0.572809   -1.934223
     72          1           0       -4.088991   -2.979972    3.549625
     73          1           0       -6.263325   -1.279144   -2.176936
     74          1           0       -5.166493   -5.601702   -1.011246
     75          1           0       -4.201198   -5.764120   -2.446431
     76          1           0       -3.323324   -5.761948   -0.944215
     77          1           0       -1.183807    8.210104    1.278915
     78          1           0       -7.790429   -3.013005   -2.860441
     79          1           0       -6.607280   -4.373826   -2.422508
 ---------------------------------------------------------------------

 SCF Done:  E(RB3LYP) =  -1947.83256731     A.U. after   16 cycles

 Excitation energies and oscillator strengths:

 Excited State   1:      Singlet-A      1.8904 eV  655.85 nm  f=0.4288  <S**2>=0.000
     155 ->156         0.70755
     155 <-156        -0.12829
 This state for optimization and/or second-order correction.
 Total Energy, E(TD-HF/TD-DFT) =  -1947.76309552
 Copying the excited state density for this state as the 1-particle RhoCI density.

 The electronic state is 1-A.
 Alpha  occ. eigenvalues --  -19.19080 -19.16764 -19.13049 -19.12302 -19.10995
 Alpha  occ. eigenvalues --  -19.10866 -14.36759 -14.36630 -14.34464 -14.30188
 Alpha  occ. eigenvalues --  -10.33209 -10.30643 -10.29163 -10.27946 -10.26045
 Alpha  occ. eigenvalues --  -10.23917 -10.23539 -10.23456 -10.23376 -10.23140
 Alpha  occ. eigenvalues --  -10.23008 -10.22314 -10.22163 -10.21777 -10.21762
 Alpha  occ. eigenvalues --  -10.21699 -10.21526 -10.21414 -10.21396 -10.21372
 Alpha  occ. eigenvalues --  -10.21080 -10.21007 -10.20839 -10.20748 -10.20558
 Alpha  occ. eigenvalues --  -10.20545 -10.20317 -10.20131 -10.20073 -10.19615
 Alpha  occ. eigenvalues --  -10.18971 -10.18933 -10.18198  -1.09054  -1.07818
 Alpha  occ. eigenvalues --   -1.05202  -1.02276  -0.98799  -0.98720  -0.98096
 Alpha  occ. eigenvalues --   -0.96210  -0.94493  -0.90637  -0.83665  -0.82939
 Alpha  occ. eigenvalues --   -0.82526  -0.81442  -0.80641  -0.79322  -0.77503
 Alpha  occ. eigenvalues --   -0.76998  -0.76257  -0.75475  -0.74220  -0.72046
 Alpha  occ. eigenvalues --   -0.70894  -0.70096  -0.69906  -0.69227  -0.68079
 Alpha  occ. eigenvalues --   -0.66765  -0.65516  -0.63336  -0.61496  -0.59866
 Alpha  occ. eigenvalues --   -0.59706  -0.59173  -0.57821  -0.57573  -0.57254
 Alpha  occ. eigenvalues --   -0.55785  -0.55326  -0.54771  -0.53846  -0.53163
 Alpha  occ. eigenvalues --   -0.51972  -0.51454  -0.51267  -0.50696  -0.49197
 Alpha  occ. eigenvalues --   -0.48387  -0.48318  -0.47805  -0.47391  -0.47305
 Alpha  occ. eigenvalues --   -0.47042  -0.46533  -0.46419  -0.45756  -0.45313
 Alpha  occ. eigenvalues --   -0.45171  -0.44797  -0.44431  -0.44156  -0.43819
 Alpha  occ. eigenvalues --   -0.43527  -0.43317  -0.42847  -0.42708  -0.42528
 Alpha  occ. eigenvalues --   -0.42331  -0.42180  -0.42115  -0.41328  -0.40892
 Alpha  occ. eigenvalues --   -0.40743  -0.40491  -0.40145  -0.39714  -0.39327
 Alpha  occ. eigenvalues --   -0.38923  -0.38775  -0.38546  -0.38330  -0.37945
 Alpha  occ. eigenvalues --   -0.37817  -0.37544  -0.37272  -0.36803  -0.36645
 Alpha  occ. eigenvalues --   -0.36314  -0.35662  -0.35594  -0.35357  -0.35026
 Alpha  occ. eigenvalues --   -0.34413  -0.33000  -0.32393  -0.32033  -0.31466
 Alpha  occ. eigenvalues --   -0.31365  -0.30692  -0.29406  -0.28775  -0.28250
 Alpha  occ. eigenvalues --   -0.27608  -0.26683  -0.26060  -0.25494  -0.24981
 Alpha  occ. eigenvalues --   -0.24435  -0.23875  -0.22990  -0.22663  -0.18157
 Alpha virt. eigenvalues --   -0.10910  -0.06791  -0.06269  -0.01540  -0.00405
 Alpha virt. eigenvalues --    0.00364   0.00599   0.01855   0.02705   0.03228
 Alpha virt. eigenvalues --    0.03811   0.04014   0.04431   0.05069   0.05257

 Mulliken charges:
               1
     1  O   -0.227009
     2  O   -0.243220
     3  O   -0.225013
     4  O   -0.207457
     5  O   -0.271839
     6  O   -0.145661
     7  N    0.022201
     8  N   -0.178371
     9  N   -0.152739
    10  N   -0.356559
    11  C    0.156810
    12  C    0.061406
    13  C   -0.098902
    14  C   -0.117826
    15  C   -0.124842
    16  C    0.112751
    17  C   -0.148803
    18  C    0.225345
    19  C    0.017393
    20  C   -0.146445
    21  C    0.100949
    22  C    0.130971
    23  C   -0.071279
    24  C    0.015749
    25  C    0.037006
    26  C   -0.073228
    27  C   -0.003818
    28  C    0.171222
    29  C    0.028778
    30  C   -0.049322
    31  C   -0.046849
    32  C   -0.016710
    33  C   -0.152480
    34  C    0.138799
    35  C    0.073263
    36  C   -0.105636
    37  C    0.167452
    38  C    0.036603
    39  C   -0.158397
    40  C    0.167037
    41  C    0.015321
    42  C    0.015480
    43  C   -0.049935
    44  H    0.026581
    45  H    0.036195
    46  H    0.001939
    47  H   -0.011859
    48  H    0.128361
    49  H   -0.037092
    50  H   -0.011671
    51  H   -0.031114
    52  H    0.040603
    53  H    0.029217
    54  H    0.060698
    55  H    0.028390
    56  H    0.050828
    57  H    0.035826
    58  H    0.062718
    59  H    0.025400
    60  H    0.217847
    61  H    0.024911
    62  H    0.063402
    63  H    0.029479
    64  H    0.034963
    65  H    0.078469
    66  H    0.023337
    67  H    0.056498
    68  H    0.050845
    69  H    0.003950
    70  H    0.026544
    71  H    0.045019
    72  H    0.220745
    73  H    0.004753
    74  H    0.040174
    75  H    0.037669
    76  H    0.024633
    77  H    0.206763
    78  H    0.030312
    79  H    0.022471
 Sum of Mulliken charges =  -0.00000

 Dipole moment (field-independent basis, Debye):
    X=             -0.8954    Y=             -0.0843    Z=              3.4055  Tot=              3.5222
 Quadrupole moment (field-independent basis, Debye-Ang):
   XX=           -221.4454   YY=           -247.1201   ZZ=           -266.6718
   XY=              0.5910   XZ=             31.0369   YZ=              9.6921

 Normal termination of Gaussian 16 at Sun Sep 29 21:19:25 2019.
