 Gaussian 16, Revision A.03,
 Gaussian 16:  ES64L-G16RevA.03 25-Dec-2016

 --------------------------
 # td=(NStates=1) B3LYP/SVP
 --------------------------

 --
 TD
 --
 Symbolic Z-matrix:
 Charge =  0 Multiplicity = 1

                         Standard orientation:
 ---------------------------------------------------------------------
 Center     Atomic      Atomic             Coordinates (Angstroms)
 Number     Number       Type             X           Y           Z
 ---------------------------------------------------------------------
      1          8           0       -3.361242   -1.738254   -2.712926
      2          8           0        3.224823    3.339382    2.652880
      3          8           0        3.703238    1.803031    4.259978
      4          8           0        7.596641   -1.860684   -0.456472
      5          8           0        6.568731   -3.226857   -1.974257
      6          8           0       -2.611770    1.707193    1.161507
      7          7           0       -0.363207   -2.197856    1.094405
      8          7           0       -2.770238   -1.153928   -0.525609
      9          7           0        1.203996    0.017863   -0.707855
     10          7           0       -0.968374    1.374911   -0.362950
     11          6           0       -3.455821   -1.272714    0.687502
     12          6           0       -2.663417   -2.203886    1.736606
     13          6           0       -1.298907   -1.748045    2.030443
     14          6           0       -0.715995   -0.796399    2.876098
     15          6           0        0.701189   -0.847023    2.480000
     16          6           0        0.880235   -1.666813    1.347319
     17          6           0       -4.812393   -1.782051    0.398779
     18          6           0        1.761014   -0.046745    3.168371
     19          6           0       -4.944198   -1.983903   -0.955791
     20          6           0        2.095165   -1.924924    0.570076
     21          6           0        2.177714   -0.966446   -0.445753
     22          6           0       -3.683527   -1.642664   -1.558150
     23          6           0        3.037682   -0.901110   -1.654770
     24          6           0       -1.391120    0.122857    3.770303
     25          6           0       -5.852934   -2.030243    1.558875
     26          6           0        2.696092    0.167351   -2.456719
     27          6           0        2.063724    1.386144    2.610965
     28          6           0        1.490605    0.783687   -1.902078
     29          6           0        4.272048   -1.751972   -1.788364
     30          6           0       -5.993300   -2.606054   -1.749518
     31          6           0        5.389903   -1.357459   -0.845405
     32          6           0        3.243968    0.655891   -3.726490
     33          6           0        0.665731    1.918463   -2.073884
     34          6           0        3.027691    2.143432    3.288309
     35          6           0       -0.492064    2.198482   -1.402714
     36          6           0       -7.005543   -3.411593   -1.347865
     37          6           0        6.644327   -2.216562   -1.220175
     38          6           0       -1.268366    3.447589   -1.519504
     39          6           0       -2.174514    3.403359   -0.470745
     40          6           0       -1.891229    2.131090    0.281452
     41          6           0       -1.168128    4.318725   -2.592826
     42          6           0       -3.401771    4.343238   -0.125887
     43          6           0       -1.771622    5.524627   -2.703368
     44          1           0       -3.252946   -0.313584    1.112657
     45          1           0       -2.690597   -3.106990    1.416890
     46          1           0       -3.169134   -2.184444    2.788315
     47          1           0       -0.494195   -2.779213    0.288547
     48          1           0       -2.185291   -0.430263   -0.489682
     49          1           0        1.598547   -0.003484    4.170119
     50          1           0        2.562196   -0.653445    3.203762
     51          1           0        2.788115   -2.696757    0.539740
     52          1           0       -1.813449   -0.525539    4.750150
     53          1           0       -0.730458    0.498542    4.359636
     54          1           0       -1.981578    0.891834    3.003324
     55          1           0       -5.364895   -1.352523    2.376931
     56          1           0       -5.794107   -3.045298    1.819966
     57          1           0       -6.970375   -1.748541    1.248997
     58          1           0        2.272219    1.016284    1.585183
     59          1           0        1.235933    1.922440    2.508996
     60          1           0        0.505385    0.206217   -0.178790
     61          1           0        4.614358   -1.632366   -2.830118
     62          1           0        4.034411   -2.821738   -1.625612
     63          1           0       -6.150659   -2.260528   -2.824122
     64          1           0        5.265912   -1.591024    0.278641
     65          1           0        5.746100   -0.285861   -1.012906
     66          1           0        4.146267    0.017058   -4.104280
     67          1           0        3.601443    1.739143   -3.832385
     68          1           0        2.413700    0.724051   -4.442931
     69          1           0        0.991121    2.431176   -3.106140
     70          1           0       -7.205782   -3.968883   -0.446910
     71          1           0       -7.734207   -3.635580   -1.967228
     72          1           0        4.144876    3.617974    3.151346
     73          1           0       -0.583406    3.981703   -3.412824
     74          1           0       -4.295108    4.110933   -0.928491
     75          1           0       -3.965465    4.106952    0.911000
     76          1           0       -3.250854    5.526425    0.082687
     77          1           0        8.335131   -2.528014   -0.531727
     78          1           0       -1.803904    6.205298   -3.518512
     79          1           0       -2.471325    5.760653   -1.866385
 ---------------------------------------------------------------------

 SCF Done:  E(RB3LYP) =  -1947.77780685     A.U. after   19 cycles

 Excitation energies and oscillator strengths:

 Excited State   1:      Singlet-A      0.9033 eV 1372.61 nm  f=0.0057  <S**2>=0.000
     155 ->156         0.70268
 This state for optimization and/or second-order correction.
 Total Energy, E(TD-HF/TD-DFT) =  -1947.74461224
 Copying the excited state density for this state as the 1-particle RhoCI density.

 The electronic state is 1-A.
 Alpha  occ. eigenvalues --  -19.22339 -19.18055 -19.13676 -19.12258 -19.11531
 Alpha  occ. eigenvalues --  -19.07764 -14.36441 -14.35833 -14.30364 -14.29963
 Alpha  occ. eigenvalues --  -10.33816 -10.31118 -10.27883 -10.27378 -10.26067
 Alpha  occ. eigenvalues --  -10.26028 -10.25496 -10.23543 -10.23392 -10.23269
 Alpha  occ. eigenvalues --  -10.23095 -10.22960 -10.22688 -10.22334 -10.21816
 Alpha  occ. eigenvalues --  -10.21811 -10.21121 -10.20868 -10.20757 -10.20424
 Alpha  occ. eigenvalues --  -10.20248 -10.20045 -10.19886 -10.19612 -10.19525
 Alpha  occ. eigenvalues --  -10.18312 -10.18218 -10.17720 -10.17391 -10.17208
 Alpha  occ. eigenvalues --  -10.16914 -10.16505 -10.16404  -1.14203  -1.07853
 Alpha  occ. eigenvalues --   -1.03417  -1.00617  -1.00456  -0.98557  -0.98493
 Alpha  occ. eigenvalues --   -0.95641  -0.92826  -0.92010  -0.84449  -0.82814
 Alpha  occ. eigenvalues --   -0.81983  -0.80698  -0.80176  -0.79392  -0.78421
 Alpha  occ. eigenvalues --   -0.76988  -0.75855  -0.74703  -0.74430  -0.73557
 Alpha  occ. eigenvalues --   -0.71200  -0.70782  -0.70002  -0.69941  -0.67494
 Alpha  occ. eigenvalues --   -0.66940  -0.65524  -0.63103  -0.62770  -0.61600
 Alpha  occ. eigenvalues --   -0.60907  -0.59882  -0.57963  -0.57124  -0.56574
 Alpha  occ. eigenvalues --   -0.55240  -0.55195  -0.54500  -0.53885  -0.52900
 Alpha  occ. eigenvalues --   -0.52769  -0.52453  -0.51236  -0.51015  -0.50795
 Alpha  occ. eigenvalues --   -0.49529  -0.49333  -0.49097  -0.48413  -0.48284
 Alpha  occ. eigenvalues --   -0.48029  -0.47376  -0.46430  -0.46044  -0.45761
 Alpha  occ. eigenvalues --   -0.45650  -0.45320  -0.44824  -0.44196  -0.43968
 Alpha  occ. eigenvalues --   -0.43805  -0.43341  -0.42835  -0.42179  -0.41898
 Alpha  occ. eigenvalues --   -0.41784  -0.41506  -0.41125  -0.40916  -0.40843
 Alpha  occ. eigenvalues --   -0.40549  -0.40165  -0.39801  -0.39527  -0.39301
 Alpha  occ. eigenvalues --   -0.38688  -0.38559  -0.38404  -0.38143  -0.37761
 Alpha  occ. eigenvalues --   -0.37526  -0.37286  -0.36907  -0.36705  -0.36320
 Alpha  occ. eigenvalues --   -0.35997  -0.35795  -0.35118  -0.34776  -0.33864
 Alpha  occ. eigenvalues --   -0.33862  -0.33552  -0.33241  -0.32450  -0.31549
 Alpha  occ. eigenvalues --   -0.30643  -0.29376  -0.29154  -0.29087  -0.28508
 Alpha  occ. eigenvalues --   -0.27881  -0.27074  -0.25741  -0.23610  -0.23403
 Alpha  occ. eigenvalues --   -0.23191  -0.22867  -0.22495  -0.21487  -0.19153
 Alpha virt. eigenvalues --   -0.13372  -0.08018  -0.04223  -0.02389  -0.01810
 Alpha virt. eigenvalues --   -0.00412   0.01815   0.02111   0.02481   0.02776
 Alpha virt. eigenvalues --    0.03080   0.03609   0.04164   0.04573   0.05191

 Mulliken charges:
               1
     1  O   -0.203659
     2  O   -0.250360
     3  O   -0.254023
     4  O   -0.107063
     5  O   -0.283375
     6  O   -0.216623
     7  N   -0.065002
     8  N   -0.186577
     9  N   -0.055136
    10  N   -0.308016
    11  C    0.034196
    12  C    0.258617
    13  C   -0.089723
    14  C   -0.147218
    15  C   -0.179224
    16  C    0.004826
    17  C   -0.116907
    18  C    0.211886
    19  C   -0.022653
    20  C   -0.012827
    21  C    0.072481
    22  C    0.141053
    23  C   -0.083058
    24  C    0.143752
    25  C    0.056469
    26  C   -0.057128
    27  C    0.073127
    28  C    0.091902
    29  C    0.122930
    30  C   -0.021128
    31  C   -0.067730
    32  C    0.027412
    33  C   -0.097797
    34  C    0.164817
    35  C    0.126857
    36  C   -0.008326
    37  C    0.127179
    38  C    0.105781
    39  C   -0.142686
    40  C    0.169090
    41  C   -0.047917
    42  C   -0.065664
    43  C    0.007058
    44  H    0.012606
    45  H   -0.100213
    46  H    0.002730
    47  H    0.106944
    48  H    0.077578
    49  H   -0.046611
    50  H   -0.054788
    51  H   -0.027211
    52  H    0.002791
    53  H   -0.084780
    54  H    0.117567
    55  H    0.050756
    56  H    0.027389
    57  H    0.058084
    58  H    0.043786
    59  H   -0.010150
    60  H    0.075657
    61  H    0.012342
    62  H    0.028351
    63  H    0.026870
    64  H    0.066778
    65  H    0.045629
    66  H    0.041664
    67  H    0.039023
    68  H    0.038483
    69  H    0.021942
    70  H   -0.000123
    71  H   -0.024546
    72  H    0.215832
    73  H   -0.033332
    74  H    0.067122
    75  H    0.049027
    76  H    0.068888
    77  H    0.200539
    78  H    0.020137
    79  H    0.013622
 Sum of Mulliken charges =  -0.00000

 Dipole moment (field-independent basis, Debye):
    X=              5.1874    Y=              2.0757    Z=             -1.6701  Tot=              5.8316
 Quadrupole moment (field-independent basis, Debye-Ang):
   XX=           -215.2579   YY=           -240.4478   ZZ=           -268.8738
   XY=             -3.1047   XZ=            -16.9123   YZ=            -22.0556

 Normal termination of Gaussian 16 at Sat Jul 27 02:44:47 2019.
