 Gaussian 16, Revision A.03,
 Gaussian 16:  ES64L-G16RevA.03 25-Dec-2016

 --------------------------
 # td=(NStates=1) B3LYP/SVP
 --------------------------

 --
 TD
 --
 Symbolic Z-matrix:
 Charge =  0 Multiplicity = 1

                         Standard orientation:
 ---------------------------------------------------------------------
 Center     Atomic      Atomic             Coordinates (Angstroms)
 Number     Number       Type             X           Y           Z
 ---------------------------------------------------------------------
      1          8           0        5.558083    0.313203   -3.241623
      2          8           0       -2.943058   -3.062456    3.204741
      3          8           0       -3.160327   -0.812487    3.256731
      4          8           0       -1.740430    7.069808    1.698026
      5          8           0       -1.444537    7.278527   -0.708261
      6          8           0       -1.772766   -4.188637   -0.145352
      7          7           0        2.345987    0.919610    0.595480
      8          7           0        4.405056   -0.419019   -1.230792
      9          7           0       -1.836946    0.678148   -0.339013
     10          7           0       -2.485475   -1.996917   -0.498022
     11          6           0        4.880814   -1.090174   -0.055210
     12          6           0        4.404786   -0.343670    1.203159
     13          6           0        2.974684   -0.089106    1.361632
     14          6           0        1.991864   -0.742127    2.149724
     15          6           0        0.747902   -0.177809    1.852316
     16          6           0        0.992310    0.938255    0.781666
     17          6           0        6.359677   -1.286551   -0.197823
     18          6           0       -0.612831   -0.301823    2.527243
     19          6           0        6.669232   -0.797524   -1.441111
     20          6           0        0.212370    1.930925    0.218541
     21          6           0       -1.108021    1.817073   -0.181921
     22          6           0        5.561733   -0.248801   -2.185114
     23          6           0       -1.902452    2.891677   -0.821048
     24          6           0        2.128254   -1.926284    3.147020
     25          6           0        7.179476   -1.935730    0.862715
     26          6           0       -3.025554    2.279553   -1.242811
     27          6           0       -1.132597   -1.758533    2.563163
     28          6           0       -3.032071    0.817437   -0.961754
     29          6           0       -1.553247    4.366100   -0.810792
     30          6           0        8.037586   -0.602511   -2.032727
     31          6           0       -1.853415    5.070650    0.545091
     32          6           0       -4.185233    2.988599   -1.890434
     33          6           0       -3.810152   -0.172833   -1.429715
     34          6           0       -2.468228   -1.776768    3.111554
     35          6           0       -3.611290   -1.516203   -1.173733
     36          6           0        9.111751   -0.537801   -1.402426
     37          6           0       -1.680414    6.658011    0.428269
     38          6           0       -4.516526   -2.678990   -1.615989
     39          6           0       -3.870699   -3.784955   -1.161001
     40          6           0       -2.598049   -3.411559   -0.479002
     41          6           0       -5.827102   -2.378252   -2.264735
     42          6           0       -4.259625   -5.162374   -1.289220
     43          6           0       -6.882444   -3.306310   -2.607640
     44          1           0        4.533808   -2.080743   -0.008636
     45          1           0        4.838621    0.513759    1.065481
     46          1           0        4.523708   -0.733250    2.325265
     47          1           0        2.646482    1.441109   -0.239218
     48          1           0        3.399701   -0.631112   -1.472836
     49          1           0       -0.432705    0.041033    3.600091
     50          1           0       -1.328142    0.401863    2.098270
     51          1           0        0.726478    2.867707   -0.189652
     52          1           0        3.182080   -1.932519    3.135801
     53          1           0        1.707109   -1.843756    4.111117
     54          1           0        1.537370   -2.839211    2.760865
     55          1           0        6.627996   -2.952481    1.325050
     56          1           0        7.354215   -1.276848    1.513456
     57          1           0        8.123798   -2.328489    0.554233
     58          1           0       -1.175308   -2.160634    1.569676
     59          1           0       -0.859847   -2.455744    3.367794
     60          1           0       -1.500166   -0.193923    0.155925
     61          1           0       -1.948831    4.971983   -1.632412
     62          1           0       -0.427716    4.450931   -0.970047
     63          1           0        7.892225   -0.435103   -3.201467
     64          1           0       -1.047923    4.776327    1.286314
     65          1           0       -2.726963    4.767728    1.107814
     66          1           0       -4.118479    4.107663   -2.276655
     67          1           0       -5.365390    2.930658   -1.334749
     68          1           0       -4.278789    2.244623   -2.686665
     69          1           0       -4.689734    0.170046   -1.922896
     70          1           0        9.114705   -0.712892   -0.205456
     71          1           0       10.179899   -0.174711   -1.942969
     72          1           0       -3.935966   -3.081389    3.227864
     73          1           0       -6.367334   -1.371569   -2.387127
     74          1           0       -5.316557   -5.355480   -0.913285
     75          1           0       -4.490673   -5.391135   -2.369475
     76          1           0       -3.616954   -5.948505   -1.050869
     77          1           0       -1.350289    8.021649    1.754552
     78          1           0       -7.668465   -2.935690   -2.878257
     79          1           0       -6.652991   -4.317868   -2.531875
 ---------------------------------------------------------------------

 SCF Done:  E(RB3LYP) =  -1947.76794738     A.U. after   18 cycles

 Excitation energies and oscillator strengths:

 Excited State   1:      Singlet-A      1.9968 eV  620.91 nm  f=0.4717  <S**2>=0.000
     154 ->156         0.12246
     155 ->156         0.69503
     155 <-156        -0.12748
 This state for optimization and/or second-order correction.
 Total Energy, E(TD-HF/TD-DFT) =  -1947.69456566
 Copying the excited state density for this state as the 1-particle RhoCI density.

 The electronic state is 1-A.
 Alpha  occ. eigenvalues --  -19.21893 -19.16380 -19.14228 -19.12452 -19.11168
 Alpha  occ. eigenvalues --  -19.09972 -14.38801 -14.36922 -14.35380 -14.28276
 Alpha  occ. eigenvalues --  -10.34594 -10.30047 -10.30044 -10.25487 -10.24336
 Alpha  occ. eigenvalues --  -10.24147 -10.24075 -10.23647 -10.23238 -10.23125
 Alpha  occ. eigenvalues --  -10.23048 -10.21778 -10.21719 -10.21672 -10.21616
 Alpha  occ. eigenvalues --  -10.21346 -10.21195 -10.21049 -10.20863 -10.20788
 Alpha  occ. eigenvalues --  -10.20479 -10.20422 -10.20391 -10.20251 -10.20207
 Alpha  occ. eigenvalues --  -10.20124 -10.19992 -10.19964 -10.19046 -10.18488
 Alpha  occ. eigenvalues --  -10.18139 -10.18126 -10.18075  -1.10106  -1.07688
 Alpha  occ. eigenvalues --   -1.04571  -1.02794  -0.99317  -0.98878  -0.97989
 Alpha  occ. eigenvalues --   -0.97846  -0.94056  -0.89609  -0.82892  -0.82422
 Alpha  occ. eigenvalues --   -0.81727  -0.81490  -0.80298  -0.79055  -0.78353
 Alpha  occ. eigenvalues --   -0.77408  -0.76855  -0.76445  -0.74878  -0.73392
 Alpha  occ. eigenvalues --   -0.72023  -0.71092  -0.69651  -0.69463  -0.67979
 Alpha  occ. eigenvalues --   -0.67614  -0.66686  -0.63851  -0.61064  -0.60773
 Alpha  occ. eigenvalues --   -0.59760  -0.59157  -0.58538  -0.58044  -0.57201
 Alpha  occ. eigenvalues --   -0.56594  -0.55883  -0.54748  -0.54101  -0.52602
 Alpha  occ. eigenvalues --   -0.51906  -0.51176  -0.50635  -0.49874  -0.49824
 Alpha  occ. eigenvalues --   -0.49412  -0.48783  -0.48387  -0.48288  -0.47828
 Alpha  occ. eigenvalues --   -0.47618  -0.47512  -0.46754  -0.46530  -0.46036
 Alpha  occ. eigenvalues --   -0.45653  -0.45068  -0.44794  -0.44124  -0.44026
 Alpha  occ. eigenvalues --   -0.43666  -0.43312  -0.43080  -0.42866  -0.42835
 Alpha  occ. eigenvalues --   -0.42519  -0.42354  -0.41567  -0.41491  -0.41242
 Alpha  occ. eigenvalues --   -0.40819  -0.40600  -0.40308  -0.39828  -0.39524
 Alpha  occ. eigenvalues --   -0.39334  -0.39122  -0.39033  -0.38611  -0.38264
 Alpha  occ. eigenvalues --   -0.37866  -0.37698  -0.37281  -0.37052  -0.36363
 Alpha  occ. eigenvalues --   -0.36188  -0.35708  -0.35101  -0.34553  -0.34277
 Alpha  occ. eigenvalues --   -0.33867  -0.33596  -0.33352  -0.32609  -0.31881
 Alpha  occ. eigenvalues --   -0.31298  -0.30653  -0.28610  -0.28122  -0.27855
 Alpha  occ. eigenvalues --   -0.26991  -0.26782  -0.26435  -0.25632  -0.25381
 Alpha  occ. eigenvalues --   -0.25322  -0.23780  -0.23256  -0.21395  -0.18016
 Alpha virt. eigenvalues --   -0.10413  -0.06486  -0.06061  -0.02969  -0.01503
 Alpha virt. eigenvalues --    0.00926   0.01215   0.01580   0.01918   0.02516
 Alpha virt. eigenvalues --    0.03340   0.03844   0.03986   0.04648   0.05556

 Mulliken charges:
               1
     1  O   -0.169121
     2  O   -0.235899
     3  O   -0.214824
     4  O   -0.182528
     5  O   -0.304754
     6  O   -0.168689
     7  N   -0.087601
     8  N   -0.314733
     9  N   -0.068617
    10  N   -0.342140
    11  C    0.109671
    12  C    0.281929
    13  C   -0.138417
    14  C   -0.136337
    15  C   -0.086310
    16  C    0.046111
    17  C   -0.164104
    18  C    0.069327
    19  C   -0.125007
    20  C   -0.110910
    21  C    0.023177
    22  C    0.212279
    23  C   -0.065146
    24  C    0.135746
    25  C    0.168216
    26  C   -0.097099
    27  C    0.021833
    28  C    0.144991
    29  C    0.105678
    30  C    0.044135
    31  C   -0.036827
    32  C   -0.047600
    33  C   -0.090068
    34  C    0.109160
    35  C    0.074804
    36  C   -0.117732
    37  C    0.211291
    38  C    0.125799
    39  C   -0.191709
    40  C    0.151496
    41  C   -0.134317
    42  C    0.095313
    43  C    0.104416
    44  H   -0.004216
    45  H   -0.080287
    46  H    0.034618
    47  H    0.130594
    48  H    0.152483
    49  H    0.017692
    50  H    0.021183
    51  H    0.009196
    52  H   -0.018816
    53  H    0.007725
    54  H    0.059678
    55  H    0.048163
    56  H   -0.021882
    57  H    0.026812
    58  H    0.079449
    59  H    0.022746
    60  H    0.170720
    61  H    0.025937
    62  H    0.006633
    63  H    0.039961
    64  H    0.035898
    65  H    0.043121
    66  H    0.055188
    67  H    0.045328
    68  H    0.035298
    69  H   -0.043330
    70  H    0.030872
    71  H    0.058438
    72  H    0.194374
    73  H    0.024127
    74  H    0.022984
    75  H    0.015387
    76  H    0.005307
    77  H    0.216334
    78  H   -0.065708
    79  H   -0.006887
 Sum of Mulliken charges =  -0.00000

 Dipole moment (field-independent basis, Debye):
    X=              2.1014    Y=              1.8313    Z=              4.3105  Tot=              5.1332
 Quadrupole moment (field-independent basis, Debye-Ang):
   XX=           -221.7094   YY=           -246.8308   ZZ=           -262.0503
   XY=             -6.2718   XZ=             26.4035   YZ=             13.2048

 Normal termination of Gaussian 16 at Sun Sep 22 20:35:23 2019.
