 Gaussian 16, Revision A.03,
 Gaussian 16:  ES64L-G16RevA.03 25-Dec-2016

 --------------------------
 # td=(NStates=1) B3LYP/SVP
 --------------------------

 --
 TD
 --
 Symbolic Z-matrix:
 Charge =  0 Multiplicity = 1

                         Standard orientation:
 ---------------------------------------------------------------------
 Center     Atomic      Atomic             Coordinates (Angstroms)
 Number     Number       Type             X           Y           Z
 ---------------------------------------------------------------------
      1          8           0       -3.336612   -1.238165   -2.842199
      2          8           0        2.906213    3.171261    3.024835
      3          8           0        3.615091    1.606547    4.330179
      4          8           0        7.673317   -1.423608   -0.551928
      5          8           0        6.857572   -2.790234   -2.230231
      6          8           0       -2.440628    1.625918    1.533331
      7          7           0       -0.297011   -2.428156    0.930666
      8          7           0       -2.685709   -1.217259   -0.580559
      9          7           0        1.269909    0.094031   -0.662149
     10          7           0       -1.029858    1.377957   -0.336454
     11          6           0       -3.371937   -1.350240    0.714531
     12          6           0       -2.635590   -2.341850    1.750885
     13          6           0       -1.190104   -2.007700    1.884789
     14          6           0       -0.505176   -1.162805    2.789844
     15          6           0        0.850863   -1.144964    2.438341
     16          6           0        0.951606   -1.955567    1.208010
     17          6           0       -4.736828   -1.956528    0.294516
     18          6           0        1.883679   -0.386808    3.044430
     19          6           0       -4.689238   -2.011010   -1.049791
     20          6           0        2.061628   -1.982621    0.323975
     21          6           0        2.114070   -0.970613   -0.664914
     22          6           0       -3.499582   -1.459766   -1.691226
     23          6           0        2.996141   -0.674310   -1.784392
     24          6           0       -1.084647   -0.477893    3.961361
     25          6           0       -5.858146   -2.209751    1.274983
     26          6           0        2.515665    0.381660   -2.468785
     27          6           0        1.947832    1.121139    2.571338
     28          6           0        1.371051    0.848565   -1.761883
     29          6           0        4.212769   -1.550003   -1.970455
     30          6           0       -5.829656   -2.401843   -2.004903
     31          6           0        5.292048   -1.318460   -0.995495
     32          6           0        3.121294    1.016478   -3.667510
     33          6           0        0.525577    1.919189   -2.069259
     34          6           0        2.894608    1.989785    3.452634
     35          6           0       -0.611530    2.286237   -1.252455
     36          6           0       -6.917449   -3.217971   -1.669763
     37          6           0        6.684515   -1.909287   -1.390356
     38          6           0       -1.456459    3.445686   -1.322510
     39          6           0       -2.362761    3.313888   -0.216764
     40          6           0       -2.069710    2.000346    0.458405
     41          6           0       -1.348745    4.516229   -2.347153
     42          6           0       -3.358742    4.326945    0.365989
     43          6           0       -2.046640    5.657864   -2.278624
     44          1           0       -3.481412   -0.369743    1.156561
     45          1           0       -2.675653   -3.295942    1.426504
     46          1           0       -3.092436   -1.904405    2.751508
     47          1           0       -0.398958   -2.965258   -0.017499
     48          1           0       -1.812779   -0.616988   -0.781424
     49          1           0        1.855894   -0.438557    4.154914
     50          1           0        2.847669   -0.778932    2.723093
     51          1           0        2.849815   -2.633793    0.489090
     52          1           0       -1.878225   -1.163384    4.113393
     53          1           0       -0.390293   -0.313630    4.669079
     54          1           0       -1.629597    0.500579    3.590959
     55          1           0       -5.886421   -1.452994    2.086788
     56          1           0       -5.691766   -3.285720    1.717548
     57          1           0       -6.915944   -2.017467    1.128974
     58          1           0        2.157933    1.375001    1.498340
     59          1           0        1.112427    1.708572    2.763369
     60          1           0        0.263862    0.141258   -0.166093
     61          1           0        4.597942   -1.522653   -3.052047
     62          1           0        3.962623   -2.593904   -1.847995
     63          1           0       -5.982382   -1.872421   -3.088446
     64          1           0        4.907780   -1.788889    0.057360
     65          1           0        5.475044   -0.060307   -0.831818
     66          1           0        3.905998    0.418027   -4.082963
     67          1           0        3.711924    2.029622   -3.301179
     68          1           0        2.445405    1.135962   -4.454021
     69          1           0        0.811366    2.352710   -3.069166
     70          1           0       -6.949556   -3.868498   -0.799764
     71          1           0       -7.772470   -3.476068   -2.270449
     72          1           0        3.454663    3.645220    3.821183
     73          1           0       -0.555100    4.278188   -3.183773
     74          1           0       -4.458445    4.463982   -0.315194
     75          1           0       -3.605936    4.186096    1.521974
     76          1           0       -2.933741    5.443845    0.237331
     77          1           0        8.345711   -1.899360   -0.833229
     78          1           0       -1.850018    6.275547   -3.220599
     79          1           0       -2.848308    5.960391   -1.731459
 ---------------------------------------------------------------------

 SCF Done:  E(RB3LYP) =  -1947.83342480     A.U. after   17 cycles

 Excitation energies and oscillator strengths:

 Excited State   1:      Singlet-A      0.8853 eV 1400.54 nm  f=0.0076  <S**2>=0.000
     155 ->156         0.70221
 This state for optimization and/or second-order correction.
 Total Energy, E(TD-HF/TD-DFT) =  -1947.80089206
 Copying the excited state density for this state as the 1-particle RhoCI density.

 The electronic state is 1-A.
 Alpha  occ. eigenvalues --  -19.19127 -19.19108 -19.15044 -19.13588 -19.10936
 Alpha  occ. eigenvalues --  -19.08867 -14.37708 -14.36477 -14.32824 -14.30917
 Alpha  occ. eigenvalues --  -10.34294 -10.30258 -10.29132 -10.26250 -10.25537
 Alpha  occ. eigenvalues --  -10.25286 -10.24840 -10.24396 -10.23680 -10.22885
 Alpha  occ. eigenvalues --  -10.22737 -10.22588 -10.22349 -10.21882 -10.21653
 Alpha  occ. eigenvalues --  -10.21614 -10.21388 -10.21323 -10.21289 -10.20806
 Alpha  occ. eigenvalues --  -10.20558 -10.20410 -10.20367 -10.20299 -10.20046
 Alpha  occ. eigenvalues --  -10.19964 -10.18998 -10.18561 -10.18436 -10.18072
 Alpha  occ. eigenvalues --  -10.16572 -10.16537 -10.16350  -1.12470  -1.11772
 Alpha  occ. eigenvalues --   -1.05101  -1.02488  -1.02473  -1.00549  -1.00012
 Alpha  occ. eigenvalues --   -0.96477  -0.93078  -0.91512  -0.83729  -0.82401
 Alpha  occ. eigenvalues --   -0.80860  -0.80474  -0.79103  -0.78957  -0.78323
 Alpha  occ. eigenvalues --   -0.76117  -0.75494  -0.74944  -0.73138  -0.72556
 Alpha  occ. eigenvalues --   -0.70854  -0.70389  -0.69568  -0.69044  -0.67604
 Alpha  occ. eigenvalues --   -0.66699  -0.65844  -0.63448  -0.60983  -0.60390
 Alpha  occ. eigenvalues --   -0.59623  -0.58421  -0.58003  -0.56951  -0.56447
 Alpha  occ. eigenvalues --   -0.56099  -0.55255  -0.54609  -0.53572  -0.53424
 Alpha  occ. eigenvalues --   -0.51724  -0.51049  -0.50427  -0.50124  -0.49598
 Alpha  occ. eigenvalues --   -0.49476  -0.49346  -0.48901  -0.48712  -0.48062
 Alpha  occ. eigenvalues --   -0.47177  -0.47005  -0.46593  -0.46255  -0.45936
 Alpha  occ. eigenvalues --   -0.45192  -0.45046  -0.44826  -0.44065  -0.43874
 Alpha  occ. eigenvalues --   -0.43783  -0.43402  -0.43262  -0.42749  -0.42487
 Alpha  occ. eigenvalues --   -0.42177  -0.41919  -0.41429  -0.41327  -0.41092
 Alpha  occ. eigenvalues --   -0.40679  -0.40501  -0.40192  -0.39784  -0.39391
 Alpha  occ. eigenvalues --   -0.38937  -0.38823  -0.38362  -0.38121  -0.38061
 Alpha  occ. eigenvalues --   -0.37927  -0.37338  -0.37034  -0.36824  -0.36398
 Alpha  occ. eigenvalues --   -0.36106  -0.35764  -0.35675  -0.35367  -0.35049
 Alpha  occ. eigenvalues --   -0.34651  -0.34127  -0.32681  -0.31747  -0.31657
 Alpha  occ. eigenvalues --   -0.31581  -0.30067  -0.29980  -0.28936  -0.28790
 Alpha  occ. eigenvalues --   -0.27491  -0.26860  -0.25987  -0.24969  -0.24210
 Alpha  occ. eigenvalues --   -0.23584  -0.22589  -0.22371  -0.21651  -0.18484
 Alpha virt. eigenvalues --   -0.12915  -0.08034  -0.03887  -0.02793  -0.01961
 Alpha virt. eigenvalues --    0.01618   0.01987   0.02217   0.02691   0.03183
 Alpha virt. eigenvalues --    0.03669   0.03980   0.04337   0.04531   0.05285

 Mulliken charges:
               1
     1  O   -0.187490
     2  O   -0.149210
     3  O   -0.242151
     4  O   -0.120697
     5  O   -0.230134
     6  O   -0.169635
     7  N   -0.079002
     8  N   -0.289541
     9  N   -0.098357
    10  N   -0.377962
    11  C    0.089774
    12  C    0.282903
    13  C   -0.134805
    14  C   -0.148043
    15  C   -0.077564
    16  C   -0.036054
    17  C   -0.120894
    18  C    0.143336
    19  C   -0.074523
    20  C   -0.094404
    21  C    0.078598
    22  C    0.140428
    23  C   -0.047263
    24  C    0.166664
    25  C    0.054820
    26  C   -0.138664
    27  C   -0.005390
    28  C    0.034431
    29  C    0.127387
    30  C   -0.042796
    31  C   -0.131603
    32  C    0.114625
    33  C   -0.098175
    34  C    0.064449
    35  C    0.137527
    36  C   -0.058868
    37  C    0.168107
    38  C    0.042556
    39  C   -0.157776
    40  C    0.214555
    41  C   -0.024746
    42  C   -0.076001
    43  C    0.011169
    44  H    0.033085
    45  H   -0.062881
    46  H    0.018106
    47  H    0.153166
    48  H    0.154125
    49  H    0.016818
    50  H   -0.017264
    51  H   -0.019691
    52  H   -0.010194
    53  H   -0.025586
    54  H    0.046229
    55  H    0.009123
    56  H    0.050078
    57  H    0.023417
    58  H    0.041711
    59  H   -0.000803
    60  H    0.237386
    61  H    0.024505
    62  H    0.008176
    63  H    0.052645
    64  H    0.083017
    65  H    0.065238
    66  H   -0.003871
    67  H    0.053631
    68  H    0.022231
    69  H   -0.007728
    70  H    0.007119
    71  H    0.013189
    72  H    0.208671
    73  H    0.033671
    74  H    0.064062
    75  H    0.068305
    76  H    0.052044
    77  H    0.117072
    78  H    0.032787
    79  H   -0.001166
 Sum of Mulliken charges =  -0.00000

 Dipole moment (field-independent basis, Debye):
    X=              1.6510    Y=              3.1990    Z=             -0.6823  Tot=              3.6640
 Quadrupole moment (field-independent basis, Debye-Ang):
   XX=           -242.7489   YY=           -233.2883   ZZ=           -267.6375
   XY=              0.5470   XZ=            -21.3804   YZ=            -11.8733

 Normal termination of Gaussian 16 at Sat Jul 27 14:24:27 2019.
