 Gaussian 16, Revision A.03,
 Gaussian 16:  ES64L-G16RevA.03 25-Dec-2016

 --------------------------
 # td=(NStates=1) B3LYP/SVP
 --------------------------

 --
 TD
 --
 Symbolic Z-matrix:
 Charge =  0 Multiplicity = 1

                         Standard orientation:
 ---------------------------------------------------------------------
 Center     Atomic      Atomic             Coordinates (Angstroms)
 Number     Number       Type             X           Y           Z
 ---------------------------------------------------------------------
      1          8           0       -3.015154   -2.092313   -2.650829
      2          8           0        2.830679    3.859000    2.366817
      3          8           0        3.301331    2.515204    4.128176
      4          8           0        7.799955   -1.732594   -0.271395
      5          8           0        6.784381   -3.240068   -1.517022
      6          8           0       -2.636270    1.912216    1.109179
      7          7           0       -0.296350   -2.237588    1.454333
      8          7           0       -2.610986   -1.374660   -0.452512
      9          7           0        1.173238   -0.058369   -0.671350
     10          7           0       -1.006054    1.396246   -0.404399
     11          6           0       -3.351882   -1.114184    0.782237
     12          6           0       -2.744721   -1.916619    1.987927
     13          6           0       -1.301782   -1.612849    2.174217
     14          6           0       -0.674012   -0.614247    3.055367
     15          6           0        0.671839   -0.623245    2.733401
     16          6           0        0.857675   -1.601726    1.735312
     17          6           0       -4.730195   -1.762163    0.444214
     18          6           0        1.774703    0.368013    3.227420
     19          6           0       -4.732896   -2.206783   -0.863562
     20          6           0        2.101611   -1.847837    0.812600
     21          6           0        2.092536   -1.022734   -0.372373
     22          6           0       -3.377669   -1.906584   -1.461145
     23          6           0        3.101378   -1.081951   -1.452667
     24          6           0       -1.513382    0.166906    3.964086
     25          6           0       -5.822649   -1.811567    1.536410
     26          6           0        2.616060   -0.149251   -2.394927
     27          6           0        1.711479    1.768424    2.586236
     28          6           0        1.413728    0.435013   -1.889588
     29          6           0        4.337214   -1.818558   -1.592341
     30          6           0       -5.757028   -2.954622   -1.643435
     31          6           0        5.572997   -1.332487   -0.889270
     32          6           0        3.302793    0.259442   -3.713247
     33          6           0        0.545001    1.473736   -2.318164
     34          6           0        2.689173    2.757196    3.111061
     35          6           0       -0.493339    1.943609   -1.618838
     36          6           0       -6.846900   -3.560927   -1.195950
     37          6           0        6.795713   -2.235800   -0.986683
     38          6           0       -1.440451    3.122356   -1.889024
     39          6           0       -2.306165    3.324824   -0.938278
     40          6           0       -2.002322    2.125735    0.083342
     41          6           0       -1.194288    3.984170   -3.102753
     42          6           0       -3.533788    4.291981   -0.703432
     43          6           0       -1.689926    5.197075   -3.402937
     44          1           0       -3.445645   -0.243577    0.833788
     45          1           0       -2.850272   -3.007276    1.657102
     46          1           0       -3.248492   -1.753033    2.911457
     47          1           0       -0.470595   -2.710254    0.655243
     48          1           0       -2.038340   -0.723721   -0.839696
     49          1           0        1.607048    0.367490    4.330951
     50          1           0        2.808615   -0.094795    3.119800
     51          1           0        2.841460   -2.758548    0.956380
     52          1           0       -2.376499   -0.235346    4.692757
     53          1           0       -0.630913    0.708203    4.409795
     54          1           0       -1.946710    0.867119    3.162502
     55          1           0       -5.372346   -0.967043    2.262042
     56          1           0       -5.805614   -2.864720    2.006797
     57          1           0       -6.835602   -1.905153    1.399273
     58          1           0        1.687357    1.650972    1.430872
     59          1           0        0.813172    2.209666    2.668989
     60          1           0        0.192502    0.302604   -0.268184
     61          1           0        4.467642   -2.037881   -2.661677
     62          1           0        4.000161   -2.832128   -1.095271
     63          1           0       -5.508487   -2.910026   -2.748889
     64          1           0        5.309894   -1.084938    0.197897
     65          1           0        6.061172   -0.280744   -1.200861
     66          1           0        3.822287   -0.844623   -4.165811
     67          1           0        4.073989    1.278488   -3.570312
     68          1           0        2.458414    0.469101   -4.480947
     69          1           0        1.115545    2.059024   -3.127950
     70          1           0       -7.237788   -3.528569   -0.131425
     71          1           0       -7.580010   -4.102039   -1.850107
     72          1           0        3.508761    4.567977    2.854685
     73          1           0       -0.563335    3.500859   -3.817324
     74          1           0       -4.212718    4.421892   -1.601828
     75          1           0       -4.137993    3.958215    0.045270
     76          1           0       -3.044242    5.378351   -0.295892
     77          1           0        8.491214   -2.465053   -0.344114
     78          1           0       -1.229246    5.702268   -4.213124
     79          1           0       -2.485722    5.790198   -2.815403
 ---------------------------------------------------------------------

 SCF Done:  E(RB3LYP) =  -1947.79187965     A.U. after   22 cycles

 Excitation energies and oscillator strengths:

 Excited State   1:      Singlet-A      0.7907 eV 1567.94 nm  f=0.0066  <S**2>=0.000
     155 ->156         0.70516
 This state for optimization and/or second-order correction.
 Total Energy, E(TD-HF/TD-DFT) =  -1947.76282018
 Copying the excited state density for this state as the 1-particle RhoCI density.

 The electronic state is 1-A.
 Alpha  occ. eigenvalues --  -19.19761 -19.18890 -19.14419 -19.11431 -19.10655
 Alpha  occ. eigenvalues --  -19.08674 -14.37733 -14.36695 -14.32946 -14.30922
 Alpha  occ. eigenvalues --  -10.32785 -10.31143 -10.27418 -10.27105 -10.27000
 Alpha  occ. eigenvalues --  -10.26699 -10.25799 -10.25534 -10.25410 -10.23639
 Alpha  occ. eigenvalues --  -10.23282 -10.22896 -10.22892 -10.21540 -10.21427
 Alpha  occ. eigenvalues --  -10.21308 -10.21244 -10.20965 -10.20938 -10.20409
 Alpha  occ. eigenvalues --  -10.20226 -10.20094 -10.20019 -10.19898 -10.19666
 Alpha  occ. eigenvalues --  -10.19638 -10.19373 -10.19158 -10.19096 -10.18914
 Alpha  occ. eigenvalues --  -10.18318 -10.17642 -10.17184  -1.13706  -1.08288
 Alpha  occ. eigenvalues --   -1.04732  -1.01862  -1.01081  -0.99613  -0.99458
 Alpha  occ. eigenvalues --   -0.97563  -0.92469  -0.92275  -0.84761  -0.81934
 Alpha  occ. eigenvalues --   -0.80455  -0.80284  -0.80137  -0.79007  -0.78399
 Alpha  occ. eigenvalues --   -0.76533  -0.76440  -0.74579  -0.74177  -0.72381
 Alpha  occ. eigenvalues --   -0.70749  -0.70263  -0.69750  -0.68927  -0.67976
 Alpha  occ. eigenvalues --   -0.66913  -0.66630  -0.63084  -0.61237  -0.60289
 Alpha  occ. eigenvalues --   -0.59406  -0.59349  -0.59011  -0.56840  -0.56572
 Alpha  occ. eigenvalues --   -0.56302  -0.55781  -0.54540  -0.53129  -0.52435
 Alpha  occ. eigenvalues --   -0.52341  -0.51815  -0.51431  -0.50562  -0.50536
 Alpha  occ. eigenvalues --   -0.50141  -0.49677  -0.49307  -0.48072  -0.47395
 Alpha  occ. eigenvalues --   -0.47232  -0.46932  -0.46704  -0.46438  -0.45633
 Alpha  occ. eigenvalues --   -0.45458  -0.44990  -0.44249  -0.43795  -0.43648
 Alpha  occ. eigenvalues --   -0.43304  -0.42720  -0.42522  -0.42302  -0.42006
 Alpha  occ. eigenvalues --   -0.41664  -0.41511  -0.41196  -0.40966  -0.40718
 Alpha  occ. eigenvalues --   -0.40567  -0.39983  -0.39822  -0.39616  -0.39457
 Alpha  occ. eigenvalues --   -0.39206  -0.39033  -0.38607  -0.38198  -0.37917
 Alpha  occ. eigenvalues --   -0.37668  -0.37268  -0.37061  -0.36748  -0.36517
 Alpha  occ. eigenvalues --   -0.36027  -0.35773  -0.35503  -0.35293  -0.34756
 Alpha  occ. eigenvalues --   -0.34551  -0.33130  -0.32927  -0.31734  -0.31500
 Alpha  occ. eigenvalues --   -0.31157  -0.30124  -0.30088  -0.28718  -0.28187
 Alpha  occ. eigenvalues --   -0.27488  -0.27103  -0.25618  -0.24703  -0.24060
 Alpha  occ. eigenvalues --   -0.23956  -0.23477  -0.23002  -0.22842  -0.18475
 Alpha virt. eigenvalues --   -0.12973  -0.06530  -0.04300  -0.01268   0.00514
 Alpha virt. eigenvalues --    0.00878   0.01216   0.01526   0.01721   0.02257
 Alpha virt. eigenvalues --    0.02302   0.03569   0.03850   0.04416   0.04493

 Mulliken charges:
               1
     1  O   -0.277521
     2  O   -0.236737
     3  O   -0.232940
     4  O   -0.187006
     5  O   -0.141327
     6  O   -0.232486
     7  N    0.029182
     8  N   -0.165823
     9  N   -0.099736
    10  N   -0.328953
    11  C    0.270212
    12  C    0.229928
    13  C   -0.152262
    14  C   -0.096694
    15  C   -0.118721
    16  C   -0.065904
    17  C   -0.202887
    18  C    0.102065
    19  C   -0.047862
    20  C   -0.099359
    21  C    0.092015
    22  C    0.126873
    23  C   -0.057564
    24  C    0.009227
    25  C    0.073413
    26  C   -0.114277
    27  C    0.047885
    28  C    0.041452
    29  C    0.112054
    30  C    0.024526
    31  C   -0.070752
    32  C   -0.054482
    33  C   -0.109341
    34  C    0.136385
    35  C    0.153665
    36  C   -0.069638
    37  C    0.102001
    38  C    0.068888
    39  C   -0.226371
    40  C    0.140513
    41  C   -0.011670
    42  C    0.077422
    43  C   -0.022097
    44  H   -0.124789
    45  H   -0.006607
    46  H   -0.013449
    47  H    0.077746
    48  H    0.097703
    49  H    0.020891
    50  H    0.001823
    51  H    0.064451
    52  H    0.051719
    53  H    0.002351
    54  H    0.063212
    55  H    0.058925
    56  H    0.031289
    57  H    0.004781
    58  H    0.029081
    59  H   -0.003861
    60  H    0.232005
    61  H    0.016027
    62  H    0.029623
    63  H    0.024177
    64  H    0.053363
    65  H    0.052009
    66  H    0.061215
    67  H    0.085240
    68  H    0.056126
    69  H    0.022717
    70  H    0.010000
    71  H    0.029810
    72  H    0.236540
    73  H   -0.016769
    74  H    0.046499
    75  H   -0.000314
    76  H    0.050940
    77  H    0.191310
    78  H    0.012542
    79  H    0.036382
 Sum of Mulliken charges =  -0.00000

 Dipole moment (field-independent basis, Debye):
    X=              4.2764    Y=              1.4684    Z=             -1.2018  Tot=              4.6784
 Quadrupole moment (field-independent basis, Debye-Ang):
   XX=           -221.6394   YY=           -241.9605   ZZ=           -270.4704
   XY=              0.2568   XZ=            -22.2890   YZ=            -17.3587

 Normal termination of Gaussian 16 at Thu Jul 25 22:17:27 2019.
