 Gaussian 16, Revision A.03,
 Gaussian 16:  ES64L-G16RevA.03 25-Dec-2016

 --------------------------
 # td=(NStates=1) B3LYP/SVP
 --------------------------

 --
 TD
 --
 Symbolic Z-matrix:
 Charge =  0 Multiplicity = 1

                         Standard orientation:
 ---------------------------------------------------------------------
 Center     Atomic      Atomic             Coordinates (Angstroms)
 Number     Number       Type             X           Y           Z
 ---------------------------------------------------------------------
      1          8           0        5.443087   -0.127108   -3.341269
      2          8           0       -2.877873   -3.054741    3.285083
      3          8           0       -3.250212   -0.836683    3.238679
      4          8           0       -1.918025    7.129484    1.527734
      5          8           0       -1.214703    7.100867   -0.696729
      6          8           0       -1.613236   -4.063189   -0.065731
      7          7           0        2.304660    1.024751    0.617113
      8          7           0        4.492903   -0.481727   -1.207351
      9          7           0       -1.904806    0.665820   -0.427356
     10          7           0       -2.636026   -1.900071   -0.476964
     11          6           0        4.874989   -1.068471   -0.019481
     12          6           0        4.452462   -0.053308    1.141747
     13          6           0        2.992237    0.121603    1.344914
     14          6           0        2.020530   -0.473646    2.082391
     15          6           0        0.688181    0.067986    1.761702
     16          6           0        0.908913    1.004306    0.746140
     17          6           0        6.359974   -1.180070   -0.104462
     18          6           0       -0.507613   -0.270186    2.547134
     19          6           0        6.788596   -0.806815   -1.355593
     20          6           0        0.152118    1.982858    0.103771
     21          6           0       -1.195364    1.787051   -0.319185
     22          6           0        5.483633   -0.426442   -2.151275
     23          6           0       -2.066979    2.871659   -0.835388
     24          6           0        2.286614   -1.446459    3.083917
     25          6           0        7.253778   -1.577842    1.036399
     26          6           0       -3.223195    2.225931   -1.267047
     27          6           0       -1.110027   -1.805052    2.516534
     28          6           0       -3.115582    0.795715   -0.951826
     29          6           0       -1.539442    4.272226   -0.980767
     30          6           0        8.146003   -0.753959   -2.069308
     31          6           0       -2.048517    4.992969    0.351532
     32          6           0       -4.503165    2.942903   -1.992099
     33          6           0       -4.048616   -0.147452   -1.315804
     34          6           0       -2.499143   -1.809026    3.068226
     35          6           0       -3.746702   -1.551719   -0.986210
     36          6           0        9.363404   -0.711661   -1.393408
     37          6           0       -1.633415    6.555774    0.376372
     38          6           0       -4.457370   -2.729476   -1.453534
     39          6           0       -3.854853   -3.878089   -1.095225
     40          6           0       -2.556510   -3.422995   -0.448999
     41          6           0       -5.810822   -2.546123   -2.147757
     42          6           0       -4.134104   -5.279698   -1.131038
     43          6           0       -6.560971   -3.605389   -2.463601
     44          1           0        4.587251   -2.097208    0.233469
     45          1           0        4.770443    0.907453    1.077551
     46          1           0        4.844913   -0.481728    2.085714
     47          1           0        2.624521    1.484575   -0.119309
     48          1           0        3.406297   -0.534834   -1.430656
     49          1           0       -0.406674   -0.026818    3.527185
     50          1           0       -1.382202    0.422417    2.189854
     51          1           0        0.636329    2.976122   -0.234396
     52          1           0        3.350823   -1.698678    3.339150
     53          1           0        1.930446   -1.431008    4.085853
     54          1           0        2.056444   -2.579999    2.684269
     55          1           0        6.453222   -2.165014    1.737149
     56          1           0        7.382935   -0.595657    1.746336
     57          1           0        8.322028   -2.256575    0.977210
     58          1           0       -1.040695   -2.049380    1.460533
     59          1           0       -0.629753   -2.339177    3.206995
     60          1           0       -1.705635   -0.441953   -0.670836
     61          1           0       -2.025908    4.650273   -1.832014
     62          1           0       -0.437509    4.460358   -1.126993
     63          1           0        7.998887   -0.875191   -3.268709
     64          1           0       -1.384838    4.624693    1.162606
     65          1           0       -3.277656    4.793751    0.440464
     66          1           0       -4.234535    4.021934   -2.115520
     67          1           0       -5.165629    2.939062   -1.244101
     68          1           0       -4.533387    2.242326   -2.815556
     69          1           0       -5.028132    0.081251   -1.904059
     70          1           0        9.445578   -0.528480   -0.324108
     71          1           0       10.319042   -0.530420   -1.951429
     72          1           0       -3.886039   -3.125925    3.120724
     73          1           0       -6.120419   -1.490863   -2.379196
     74          1           0       -5.036743   -5.585610   -0.425357
     75          1           0       -4.412127   -5.588701   -2.094613
     76          1           0       -3.253896   -5.660506   -0.690327
     77          1           0       -1.535939    8.074467    1.685276
     78          1           0       -7.599935   -3.648400   -2.974912
     79          1           0       -6.335169   -4.759628   -2.351104
 ---------------------------------------------------------------------

 SCF Done:  E(RB3LYP) =  -1947.79668527     A.U. after   16 cycles

 Excitation energies and oscillator strengths:

 Excited State   1:      Singlet-A      1.9840 eV  624.92 nm  f=0.4334  <S**2>=0.000
     155 ->156         0.70576
     155 <-156        -0.11883
 This state for optimization and/or second-order correction.
 Total Energy, E(TD-HF/TD-DFT) =  -1947.72377449
 Copying the excited state density for this state as the 1-particle RhoCI density.

 The electronic state is 1-A.
 Alpha  occ. eigenvalues --  -19.20818 -19.17452 -19.13476 -19.12660 -19.10665
 Alpha  occ. eigenvalues --  -19.10423 -14.36982 -14.36512 -14.35478 -14.29926
 Alpha  occ. eigenvalues --  -10.33336 -10.30306 -10.29197 -10.28687 -10.25443
 Alpha  occ. eigenvalues --  -10.24252 -10.23708 -10.23703 -10.23169 -10.23057
 Alpha  occ. eigenvalues --  -10.22467 -10.22354 -10.22249 -10.22209 -10.21961
 Alpha  occ. eigenvalues --  -10.21682 -10.21373 -10.21314 -10.20846 -10.20744
 Alpha  occ. eigenvalues --  -10.20560 -10.20402 -10.20313 -10.20266 -10.20139
 Alpha  occ. eigenvalues --  -10.19841 -10.19697 -10.19151 -10.19042 -10.18990
 Alpha  occ. eigenvalues --  -10.17895 -10.17852 -10.17729  -1.09735  -1.08318
 Alpha  occ. eigenvalues --   -1.04205  -1.02281  -0.99412  -0.99066  -0.98509
 Alpha  occ. eigenvalues --   -0.97563  -0.96072  -0.93586  -0.82274  -0.81494
 Alpha  occ. eigenvalues --   -0.81091  -0.80965  -0.80744  -0.79044  -0.77043
 Alpha  occ. eigenvalues --   -0.76449  -0.75849  -0.75244  -0.74284  -0.71951
 Alpha  occ. eigenvalues --   -0.70815  -0.70404  -0.70082  -0.69043  -0.67831
 Alpha  occ. eigenvalues --   -0.67671  -0.67082  -0.64336  -0.61321  -0.60946
 Alpha  occ. eigenvalues --   -0.60862  -0.58910  -0.57747  -0.57077  -0.56469
 Alpha  occ. eigenvalues --   -0.56197  -0.55803  -0.54449  -0.54266  -0.53581
 Alpha  occ. eigenvalues --   -0.52647  -0.51832  -0.50496  -0.49370  -0.48972
 Alpha  occ. eigenvalues --   -0.48409  -0.48108  -0.47957  -0.47663  -0.47305
 Alpha  occ. eigenvalues --   -0.46762  -0.46436  -0.46287  -0.45944  -0.45534
 Alpha  occ. eigenvalues --   -0.45032  -0.44891  -0.44667  -0.44400  -0.43860
 Alpha  occ. eigenvalues --   -0.43711  -0.43252  -0.42862  -0.42848  -0.42500
 Alpha  occ. eigenvalues --   -0.42376  -0.41844  -0.41636  -0.41350  -0.41087
 Alpha  occ. eigenvalues --   -0.40819  -0.40648  -0.40315  -0.40068  -0.39593
 Alpha  occ. eigenvalues --   -0.39220  -0.39058  -0.38580  -0.38557  -0.37937
 Alpha  occ. eigenvalues --   -0.37830  -0.37516  -0.37086  -0.36495  -0.36372
 Alpha  occ. eigenvalues --   -0.36163  -0.35975  -0.35388  -0.34267  -0.34095
 Alpha  occ. eigenvalues --   -0.33792  -0.33469  -0.32093  -0.31668  -0.31188
 Alpha  occ. eigenvalues --   -0.30554  -0.30542  -0.29553  -0.28749  -0.27428
 Alpha  occ. eigenvalues --   -0.27279  -0.26049  -0.25359  -0.25223  -0.24892
 Alpha  occ. eigenvalues --   -0.24519  -0.23938  -0.23436  -0.23006  -0.18417
 Alpha virt. eigenvalues --   -0.10744  -0.06486  -0.05508  -0.01559  -0.00278
 Alpha virt. eigenvalues --    0.00051   0.00740   0.01376   0.01724   0.02757
 Alpha virt. eigenvalues --    0.03359   0.03827   0.03978   0.04582   0.05080

 Mulliken charges:
               1
     1  O   -0.226428
     2  O   -0.195529
     3  O   -0.258375
     4  O   -0.182357
     5  O   -0.284097
     6  O   -0.165537
     7  N   -0.020459
     8  N   -0.192046
     9  N   -0.047390
    10  N   -0.331200
    11  C    0.112019
    12  C    0.260552
    13  C   -0.110432
    14  C   -0.084293
    15  C   -0.037339
    16  C    0.073514
    17  C   -0.164307
    18  C    0.043874
    19  C   -0.087173
    20  C   -0.135725
    21  C    0.040921
    22  C    0.153979
    23  C   -0.104089
    24  C    0.015764
    25  C   -0.048644
    26  C   -0.220018
    27  C    0.086242
    28  C    0.110515
    29  C    0.133295
    30  C   -0.023842
    31  C   -0.080112
    32  C    0.159967
    33  C   -0.175647
    34  C    0.110883
    35  C    0.073841
    36  C   -0.052378
    37  C    0.168978
    38  C    0.000878
    39  C   -0.216710
    40  C    0.173137
    41  C    0.040468
    42  C    0.125034
    43  C   -0.102356
    44  H    0.028263
    45  H   -0.035801
    46  H   -0.013505
    47  H    0.050506
    48  H    0.167816
    49  H   -0.027410
    50  H    0.034483
    51  H    0.017224
    52  H   -0.019461
    53  H    0.009308
    54  H    0.023914
    55  H    0.021179
    56  H    0.060855
    57  H    0.093671
    58  H    0.083913
    59  H   -0.016943
    60  H    0.205445
    61  H    0.000082
    62  H    0.029553
    63  H    0.067062
    64  H    0.043372
    65  H    0.085371
    66  H    0.016457
    67  H    0.003232
    68  H    0.051451
    69  H    0.019850
    70  H    0.029785
    71  H    0.040296
    72  H    0.210580
    73  H    0.010622
    74  H    0.036759
    75  H    0.025626
    76  H    0.012459
    77  H    0.225280
    78  H    0.035731
    79  H    0.035597
 Sum of Mulliken charges =  -0.00000

 Dipole moment (field-independent basis, Debye):
    X=             -0.3216    Y=              0.9179    Z=              2.9187  Tot=              3.0765
 Quadrupole moment (field-independent basis, Debye-Ang):
   XX=           -223.4309   YY=           -238.2011   ZZ=           -267.8436
   XY=              3.6658   XZ=             35.2166   YZ=             15.0180

 Normal termination of Gaussian 16 at Sat Sep 28 00:08:56 2019.
