 Gaussian 16, Revision A.03,
 Gaussian 16:  ES64L-G16RevA.03 25-Dec-2016

 --------------------------
 # td=(NStates=1) B3LYP/SVP
 --------------------------

 --
 TD
 --
 Symbolic Z-matrix:
 Charge =  0 Multiplicity = 1

                         Standard orientation:
 ---------------------------------------------------------------------
 Center     Atomic      Atomic             Coordinates (Angstroms)
 Number     Number       Type             X           Y           Z
 ---------------------------------------------------------------------
      1          8           0       -3.141629   -1.187921   -2.890499
      2          8           0        3.004729    3.005378    3.242962
      3          8           0        3.602983    1.304857    4.409297
      4          8           0        7.702196   -1.608895   -0.780134
      5          8           0        6.582088   -2.910977   -2.173916
      6          8           0       -2.628978    1.505137    1.471453
      7          7           0       -0.306421   -2.453828    0.859833
      8          7           0       -2.677818   -1.068281   -0.630654
      9          7           0        1.149559    0.095943   -0.674548
     10          7           0       -0.995551    1.467359   -0.213478
     11          6           0       -3.372794   -1.243064    0.545669
     12          6           0       -2.590227   -2.350692    1.561424
     13          6           0       -1.256538   -2.096675    1.788553
     14          6           0       -0.542394   -1.296996    2.786168
     15          6           0        0.804625   -1.360698    2.404002
     16          6           0        0.997163   -2.093431    1.107572
     17          6           0       -4.625238   -1.913512    0.145368
     18          6           0        1.804445   -0.634360    3.077990
     19          6           0       -4.723153   -2.101302   -1.200007
     20          6           0        2.048507   -2.006860    0.245637
     21          6           0        2.038215   -0.978663   -0.725648
     22          6           0       -3.458456   -1.362223   -1.703977
     23          6           0        3.051307   -0.603069   -1.881040
     24          6           0       -1.228021   -0.720435    3.853113
     25          6           0       -5.669584   -2.281091    1.091571
     26          6           0        2.510065    0.617401   -2.386816
     27          6           0        1.877620    0.953315    2.738725
     28          6           0        1.349167    1.009459   -1.697721
     29          6           0        4.203138   -1.358744   -2.162850
     30          6           0       -5.820998   -2.410119   -2.131609
     31          6           0        5.450054   -1.016615   -1.235599
     32          6           0        3.112647    1.348347   -3.541641
     33          6           0        0.542090    2.131635   -1.976197
     34          6           0        2.853061    1.752733    3.551874
     35          6           0       -0.533561    2.398561   -1.104848
     36          6           0       -6.957183   -3.226950   -1.797572
     37          6           0        6.517097   -1.913882   -1.388420
     38          6           0       -1.403603    3.639061   -1.091661
     39          6           0       -2.328447    3.346900   -0.044248
     40          6           0       -1.956560    2.047669    0.633627
     41          6           0       -1.306507    4.718639   -2.047973
     42          6           0       -3.309601    4.304650    0.384523
     43          6           0       -1.981334    5.855242   -2.017911
     44          1           0       -3.610871   -0.450856    1.153699
     45          1           0       -2.836215   -3.270202    1.187660
     46          1           0       -3.131302   -2.392747    2.616575
     47          1           0       -0.502266   -2.791493   -0.057431
     48          1           0       -2.081489   -0.230985   -0.647970
     49          1           0        1.596544   -0.631114    4.249270
     50          1           0        2.723508   -1.146452    3.189421
     51          1           0        2.807146   -2.914290    0.390615
     52          1           0       -1.875577   -1.445524    4.356374
     53          1           0       -0.450540   -0.299908    4.446481
     54          1           0       -1.874086    0.275885    3.482566
     55          1           0       -5.594427   -1.602154    2.111692
     56          1           0       -5.723586   -3.225732    1.467875
     57          1           0       -6.666182   -2.014710    0.829273
     58          1           0        2.037675    1.050829    1.563847
     59          1           0        0.795266    1.301727    2.946488
     60          1           0        0.191051    0.295506   -0.173534
     61          1           0        4.490174   -1.397536   -3.071872
     62          1           0        4.085614   -2.351758   -1.954582
     63          1           0       -5.785830   -2.217725   -3.196023
     64          1           0        5.230088   -1.124135   -0.262590
     65          1           0        5.751054    0.120906   -1.249572
     66          1           0        4.234373    0.887040   -3.541886
     67          1           0        3.253209    2.313759   -2.997298
     68          1           0        2.630087    1.247171   -4.491966
     69          1           0        0.761267    2.730932   -2.872831
     70          1           0       -7.172475   -3.627152   -0.779221
     71          1           0       -7.673123   -3.431097   -2.497731
     72          1           0        3.736032    3.496457    3.687825
     73          1           0       -0.633230    4.388785   -2.773795
     74          1           0       -3.808273    4.687789   -0.551785
     75          1           0       -4.020015    3.910175    1.346171
     76          1           0       -2.472788    5.208420    0.881116
     77          1           0        8.303101   -2.343301   -1.092340
     78          1           0       -1.805261    6.649313   -2.831246
     79          1           0       -2.638157    6.269824   -1.165104
 ---------------------------------------------------------------------

 SCF Done:  E(RB3LYP) =  -1947.78073642     A.U. after   19 cycles

 Excitation energies and oscillator strengths:

 Excited State   1:      Singlet-A      0.7671 eV 1616.22 nm  f=0.0088  <S**2>=0.000
     155 ->156         0.70454
 This state for optimization and/or second-order correction.
 Total Energy, E(TD-HF/TD-DFT) =  -1947.75254510
 Copying the excited state density for this state as the 1-particle RhoCI density.

 The electronic state is 1-A.
 Alpha  occ. eigenvalues --  -19.18946 -19.17656 -19.13179 -19.13167 -19.10468
 Alpha  occ. eigenvalues --  -19.07889 -14.37238 -14.37095 -14.33240 -14.31408
 Alpha  occ. eigenvalues --  -10.33356 -10.31241 -10.29168 -10.26841 -10.26626
 Alpha  occ. eigenvalues --  -10.26373 -10.25986 -10.23766 -10.23566 -10.23017
 Alpha  occ. eigenvalues --  -10.22883 -10.22363 -10.22209 -10.21636 -10.21554
 Alpha  occ. eigenvalues --  -10.21530 -10.21513 -10.21480 -10.21291 -10.21136
 Alpha  occ. eigenvalues --  -10.20752 -10.20368 -10.20300 -10.20034 -10.20008
 Alpha  occ. eigenvalues --  -10.19141 -10.18940 -10.18810 -10.18803 -10.18545
 Alpha  occ. eigenvalues --  -10.17632 -10.17404 -10.16759  -1.10229  -1.09639
 Alpha  occ. eigenvalues --   -1.04835  -1.00128  -0.98442  -0.98301  -0.98197
 Alpha  occ. eigenvalues --   -0.96682  -0.93522  -0.93124  -0.85253  -0.83024
 Alpha  occ. eigenvalues --   -0.82097  -0.80966  -0.80822  -0.80470  -0.79434
 Alpha  occ. eigenvalues --   -0.77221  -0.76035  -0.75537  -0.75061  -0.73907
 Alpha  occ. eigenvalues --   -0.71248  -0.70536  -0.69997  -0.69858  -0.68067
 Alpha  occ. eigenvalues --   -0.67170  -0.66541  -0.63858  -0.61533  -0.61054
 Alpha  occ. eigenvalues --   -0.60426  -0.60171  -0.59754  -0.58683  -0.56581
 Alpha  occ. eigenvalues --   -0.55881  -0.55090  -0.55034  -0.53737  -0.53336
 Alpha  occ. eigenvalues --   -0.52836  -0.52435  -0.51341  -0.51126  -0.50473
 Alpha  occ. eigenvalues --   -0.49355  -0.49040  -0.48719  -0.48396  -0.47965
 Alpha  occ. eigenvalues --   -0.47454  -0.47158  -0.46683  -0.46550  -0.46399
 Alpha  occ. eigenvalues --   -0.45850  -0.45495  -0.45321  -0.45213  -0.44864
 Alpha  occ. eigenvalues --   -0.44337  -0.43842  -0.43608  -0.43174  -0.42921
 Alpha  occ. eigenvalues --   -0.42383  -0.42029  -0.41866  -0.41350  -0.41159
 Alpha  occ. eigenvalues --   -0.40504  -0.40163  -0.40037  -0.39900  -0.39607
 Alpha  occ. eigenvalues --   -0.39178  -0.38877  -0.38595  -0.38202  -0.38134
 Alpha  occ. eigenvalues --   -0.37511  -0.37422  -0.37340  -0.37039  -0.36567
 Alpha  occ. eigenvalues --   -0.36247  -0.36068  -0.35656  -0.34882  -0.34617
 Alpha  occ. eigenvalues --   -0.33775  -0.32791  -0.32130  -0.31976  -0.31351
 Alpha  occ. eigenvalues --   -0.30775  -0.30131  -0.29970  -0.29293  -0.28617
 Alpha  occ. eigenvalues --   -0.26680  -0.26317  -0.26055  -0.25190  -0.23206
 Alpha  occ. eigenvalues --   -0.23114  -0.22763  -0.22372  -0.22257  -0.18225
 Alpha virt. eigenvalues --   -0.13056  -0.08157  -0.04739  -0.02968  -0.01918
 Alpha virt. eigenvalues --    0.00267   0.00703   0.01761   0.02055   0.02581
 Alpha virt. eigenvalues --    0.03089   0.03604   0.03959   0.04974   0.05083

 Mulliken charges:
               1
     1  O   -0.261544
     2  O   -0.157274
     3  O   -0.255970
     4  O   -0.204633
     5  O   -0.298733
     6  O   -0.192849
     7  N   -0.038495
     8  N   -0.127732
     9  N   -0.148948
    10  N   -0.390475
    11  C    0.129357
    12  C    0.184421
    13  C   -0.062233
    14  C   -0.082592
    15  C   -0.102401
    16  C   -0.002713
    17  C   -0.184655
    18  C    0.048534
    19  C   -0.005967
    20  C   -0.127272
    21  C    0.128956
    22  C    0.100167
    23  C   -0.057487
    24  C    0.065411
    25  C    0.091053
    26  C   -0.190186
    27  C   -0.070341
    28  C    0.134574
    29  C    0.258801
    30  C   -0.032327
    31  C    0.047376
    32  C    0.080979
    33  C   -0.129255
    34  C    0.129402
    35  C    0.147486
    36  C   -0.037123
    37  C    0.140001
    38  C    0.007979
    39  C   -0.188317
    40  C    0.230536
    41  C    0.072275
    42  C   -0.068604
    43  C   -0.079054
    44  H    0.004728
    45  H   -0.056167
    46  H    0.001597
    47  H    0.099192
    48  H    0.149409
    49  H    0.010469
    50  H   -0.019208
    51  H    0.055544
    52  H    0.024568
    53  H   -0.022617
    54  H    0.057097
    55  H    0.005524
    56  H    0.009490
    57  H    0.017412
    58  H    0.063868
    59  H    0.054507
    60  H    0.218795
    61  H   -0.048731
    62  H   -0.023053
    63  H    0.015954
    64  H    0.001354
    65  H    0.066555
    66  H    0.027290
    67  H    0.036789
    68  H    0.060601
    69  H    0.005744
    70  H    0.021456
    71  H    0.001041
    72  H    0.197663
    73  H   -0.039680
    74  H    0.069670
    75  H    0.071478
    76  H    0.070268
    77  H    0.199682
    78  H    0.036753
    79  H    0.054837
 Sum of Mulliken charges =  -0.00000

 Dipole moment (field-independent basis, Debye):
    X=              2.1902    Y=              3.6744    Z=             -0.8104  Tot=              4.3537
 Quadrupole moment (field-independent basis, Debye-Ang):
   XX=           -240.2591   YY=           -233.8697   ZZ=           -272.7252
   XY=              7.7405   XZ=            -20.7042   YZ=            -12.2319

 Normal termination of Gaussian 16 at Tue Jul 30 15:27:22 2019.
