 Gaussian 16, Revision A.03,
 Gaussian 16:  ES64L-G16RevA.03 25-Dec-2016

 --------------------------
 # td=(NStates=1) B3LYP/SVP
 --------------------------

 --
 TD
 --
 Symbolic Z-matrix:
 Charge =  0 Multiplicity = 1

                         Standard orientation:
 ---------------------------------------------------------------------
 Center     Atomic      Atomic             Coordinates (Angstroms)
 Number     Number       Type             X           Y           Z
 ---------------------------------------------------------------------
      1          8           0        5.326260   -0.120909   -3.335168
      2          8           0       -2.915225   -3.057056    3.189694
      3          8           0       -3.380528   -0.805112    3.097640
      4          8           0       -1.830064    7.175993    1.506838
      5          8           0       -0.979148    7.157634   -0.556869
      6          8           0       -1.670161   -3.981228    0.092773
      7          7           0        2.364406    1.036589    0.671299
      8          7           0        4.349367   -0.632964   -1.204575
      9          7           0       -1.804743    0.580667   -0.600635
     10          7           0       -2.437178   -1.917263   -0.757648
     11          6           0        4.790707   -1.182854    0.093159
     12          6           0        4.415645   -0.223973    1.281134
     13          6           0        3.014646    0.015655    1.426823
     14          6           0        2.091524   -0.605215    2.168624
     15          6           0        0.760456    0.001979    1.877388
     16          6           0        0.985634    1.017347    0.876484
     17          6           0        6.381726   -1.225333   -0.143950
     18          6           0       -0.530976   -0.268051    2.515532
     19          6           0        6.660734   -0.699475   -1.386909
     20          6           0        0.148614    1.996866    0.294515
     21          6           0       -1.126818    1.800100   -0.292747
     22          6           0        5.400379   -0.416765   -2.145847
     23          6           0       -1.969143    2.950928   -0.766105
     24          6           0        2.144151   -1.654590    3.232623
     25          6           0        7.283650   -1.824402    0.912259
     26          6           0       -3.132798    2.337471   -1.264137
     27          6           0       -1.140712   -1.613437    2.373392
     28          6           0       -3.016980    0.880523   -1.081309
     29          6           0       -1.676824    4.337869   -0.963809
     30          6           0        7.919022   -0.619584   -2.053265
     31          6           0       -1.878262    5.085790    0.426306
     32          6           0       -4.353033    2.987754   -1.865618
     33          6           0       -3.869745   -0.179926   -1.533699
     34          6           0       -2.557812   -1.714901    2.896150
     35          6           0       -3.580986   -1.588254   -1.298658
     36          6           0        9.150621   -0.620730   -1.554019
     37          6           0       -1.515883    6.530050    0.331375
     38          6           0       -4.434325   -2.662662   -1.400241
     39          6           0       -3.844302   -3.850919   -1.003759
     40          6           0       -2.531785   -3.423181   -0.461365
     41          6           0       -5.734246   -2.597436   -2.104576
     42          6           0       -4.263906   -5.252657   -1.085444
     43          6           0       -6.708141   -3.506484   -2.353234
     44          1           0        4.121330   -2.102779    0.131533
     45          1           0        4.996376    0.625017    1.073190
     46          1           0        4.769665   -0.659723    2.250961
     47          1           0        2.911324    1.545104    0.099395
     48          1           0        3.255441   -0.553774   -1.382965
     49          1           0       -0.480012   -0.049282    3.641112
     50          1           0       -1.347426    0.458452    2.448487
     51          1           0        0.673547    2.926626   -0.114118
     52          1           0        3.200066   -2.045361    3.692206
     53          1           0        1.738247   -1.197993    4.171590
     54          1           0        1.553990   -2.633161    2.985999
     55          1           0        6.783139   -2.498763    1.676001
     56          1           0        7.563758   -1.016786    1.515821
     57          1           0        8.074461   -2.444411    0.429995
     58          1           0       -1.504640   -1.953572    1.255418
     59          1           0       -0.338293   -2.390990    2.654484
     60          1           0       -1.437005   -0.297278   -0.351737
     61          1           0       -2.217612    4.949758   -1.675997
     62          1           0       -0.797851    4.469602   -1.238856
     63          1           0        7.766833   -0.922482   -3.200578
     64          1           0       -1.158716    4.557776    1.201417
     65          1           0       -2.975475    4.903187    0.756204
     66          1           0       -4.140149    4.014027   -1.987195
     67          1           0       -5.125294    2.749286   -1.440441
     68          1           0       -4.422730    2.638442   -2.985914
     69          1           0       -4.767746    0.186365   -2.027321
     70          1           0        9.412384   -0.603653   -0.390105
     71          1           0       10.027400   -1.070761   -2.322148
     72          1           0       -3.793342   -2.929790    3.604695
     73          1           0       -6.201017   -1.716294   -2.337488
     74          1           0       -5.336722   -5.539423   -0.744214
     75          1           0       -4.252093   -5.413184   -2.169414
     76          1           0       -3.828445   -5.898313   -0.279152
     77          1           0       -1.641127    8.125657    1.450933
     78          1           0       -7.714845   -3.253758   -2.658378
     79          1           0       -6.764462   -4.650574   -2.134223
 ---------------------------------------------------------------------

 SCF Done:  E(RB3LYP) =  -1947.82194648     A.U. after   17 cycles

 Excitation energies and oscillator strengths:

 Excited State   1:      Singlet-A      1.8593 eV  666.82 nm  f=0.3433  <S**2>=0.000
     155 ->156         0.69655
     155 <-156        -0.11632
 This state for optimization and/or second-order correction.
 Total Energy, E(TD-HF/TD-DFT) =  -1947.75361673
 Copying the excited state density for this state as the 1-particle RhoCI density.

 The electronic state is 1-A.
 Alpha  occ. eigenvalues --  -19.17616 -19.16263 -19.13683 -19.12660 -19.12237
 Alpha  occ. eigenvalues --  -19.10388 -14.37313 -14.36811 -14.35653 -14.28563
 Alpha  occ. eigenvalues --  -10.32942 -10.31652 -10.29064 -10.27477 -10.25649
 Alpha  occ. eigenvalues --  -10.25424 -10.24727 -10.23644 -10.23361 -10.23052
 Alpha  occ. eigenvalues --  -10.22608 -10.22495 -10.22216 -10.21614 -10.21501
 Alpha  occ. eigenvalues --  -10.21362 -10.21287 -10.21277 -10.21221 -10.20752
 Alpha  occ. eigenvalues --  -10.20626 -10.20495 -10.20419 -10.20331 -10.20184
 Alpha  occ. eigenvalues --  -10.20164 -10.20055 -10.20015 -10.19640 -10.19631
 Alpha  occ. eigenvalues --  -10.19453 -10.19178 -10.19055  -1.09273  -1.06087
 Alpha  occ. eigenvalues --   -1.05551  -1.01455  -1.00400  -0.98179  -0.97705
 Alpha  occ. eigenvalues --   -0.97588  -0.92436  -0.92228  -0.84070  -0.81986
 Alpha  occ. eigenvalues --   -0.81728  -0.81557  -0.80552  -0.79478  -0.78068
 Alpha  occ. eigenvalues --   -0.77111  -0.76833  -0.75897  -0.74336  -0.72963
 Alpha  occ. eigenvalues --   -0.71383  -0.70977  -0.70607  -0.70015  -0.68865
 Alpha  occ. eigenvalues --   -0.67401  -0.66129  -0.63997  -0.60748  -0.60366
 Alpha  occ. eigenvalues --   -0.60044  -0.58717  -0.58238  -0.57629  -0.57103
 Alpha  occ. eigenvalues --   -0.56582  -0.55529  -0.55304  -0.54048  -0.52911
 Alpha  occ. eigenvalues --   -0.52870  -0.51142  -0.50808  -0.50503  -0.49680
 Alpha  occ. eigenvalues --   -0.49420  -0.48402  -0.47952  -0.47719  -0.47355
 Alpha  occ. eigenvalues --   -0.46987  -0.46638  -0.46570  -0.46485  -0.46050
 Alpha  occ. eigenvalues --   -0.45556  -0.45357  -0.44787  -0.44287  -0.44141
 Alpha  occ. eigenvalues --   -0.43884  -0.43700  -0.43082  -0.42890  -0.42809
 Alpha  occ. eigenvalues --   -0.42389  -0.42293  -0.41835  -0.41767  -0.41346
 Alpha  occ. eigenvalues --   -0.40924  -0.40726  -0.40392  -0.40292  -0.40203
 Alpha  occ. eigenvalues --   -0.39888  -0.39581  -0.39215  -0.39017  -0.38797
 Alpha  occ. eigenvalues --   -0.38158  -0.38042  -0.37712  -0.37240  -0.37105
 Alpha  occ. eigenvalues --   -0.36690  -0.36486  -0.36067  -0.35462  -0.34318
 Alpha  occ. eigenvalues --   -0.33240  -0.33139  -0.32658  -0.31285  -0.30877
 Alpha  occ. eigenvalues --   -0.30638  -0.30323  -0.29133  -0.28861  -0.28575
 Alpha  occ. eigenvalues --   -0.27045  -0.26023  -0.25969  -0.25777  -0.24464
 Alpha  occ. eigenvalues --   -0.24338  -0.24111  -0.23711  -0.22353  -0.18702
 Alpha virt. eigenvalues --   -0.11240  -0.07327  -0.06017  -0.01374  -0.00361
 Alpha virt. eigenvalues --    0.00551   0.00682   0.00907   0.02498   0.03623
 Alpha virt. eigenvalues --    0.04141   0.04397   0.04941   0.05166   0.05748

 Mulliken charges:
               1
     1  O   -0.222607
     2  O   -0.232676
     3  O   -0.261691
     4  O   -0.211224
     5  O   -0.220113
     6  O   -0.118061
     7  N   -0.071897
     8  N   -0.315513
     9  N   -0.024056
    10  N   -0.357751
    11  C    0.061031
    12  C    0.250539
    13  C   -0.117539
    14  C   -0.051723
    15  C   -0.054443
    16  C    0.085315
    17  C   -0.159309
    18  C    0.055732
    19  C   -0.057545
    20  C   -0.116813
    21  C    0.088602
    22  C    0.207952
    23  C   -0.084100
    24  C   -0.015258
    25  C    0.098770
    26  C   -0.187865
    27  C   -0.069557
    28  C    0.084193
    29  C    0.237899
    30  C   -0.029403
    31  C   -0.114430
    32  C    0.252709
    33  C   -0.096530
    34  C    0.157795
    35  C    0.126780
    36  C   -0.117506
    37  C    0.158039
    38  C    0.072741
    39  C   -0.182241
    40  C    0.148645
    41  C    0.034005
    42  C    0.065351
    43  C   -0.108261
    44  H    0.033139
    45  H   -0.039323
    46  H    0.007671
    47  H    0.067640
    48  H    0.164634
    49  H    0.002600
    50  H    0.002961
    51  H    0.019072
    52  H    0.016931
    53  H    0.033542
    54  H    0.065779
    55  H    0.018983
    56  H    0.024278
    57  H    0.055181
    58  H    0.116550
    59  H    0.035883
    60  H    0.128444
    61  H    0.012978
    62  H   -0.080531
    63  H    0.056057
    64  H    0.079952
    65  H    0.068105
    66  H   -0.012567
    67  H   -0.041864
    68  H    0.027061
    69  H   -0.035136
    70  H    0.046894
    71  H    0.055114
    72  H    0.173402
    73  H   -0.032832
    74  H    0.027073
    75  H    0.050905
    76  H    0.039022
    77  H    0.181137
    78  H    0.021018
    79  H    0.022265
 Sum of Mulliken charges =  -0.00000

 Dipole moment (field-independent basis, Debye):
    X=             -0.6571    Y=              0.8108    Z=              3.3315  Tot=              3.4911
 Quadrupole moment (field-independent basis, Debye-Ang):
   XX=           -222.3880   YY=           -243.9405   ZZ=           -266.0659
   XY=             -9.0435   XZ=             35.7566   YZ=              4.2221

 Normal termination of Gaussian 16 at Fri Sep 27 16:13:08 2019.
