 Gaussian 16, Revision A.03,
 Gaussian 16:  ES64L-G16RevA.03 25-Dec-2016

 --------------------------
 # td=(NStates=1) B3LYP/SVP
 --------------------------

 --
 TD
 --
 Symbolic Z-matrix:
 Charge =  0 Multiplicity = 1

                         Standard orientation:
 ---------------------------------------------------------------------
 Center     Atomic      Atomic             Coordinates (Angstroms)
 Number     Number       Type             X           Y           Z
 ---------------------------------------------------------------------
      1          8           0       -3.403754   -1.244121   -2.882307
      2          8           0        3.018183    3.187362    2.783965
      3          8           0        3.605377    1.569591    4.205847
      4          8           0        7.696185   -1.710527   -0.457002
      5          8           0        6.670265   -3.117022   -1.919447
      6          8           0       -2.756714    1.567508    1.301713
      7          7           0       -0.239339   -2.428576    0.905602
      8          7           0       -2.706374   -1.140042   -0.550727
      9          7           0        1.169350   -0.021845   -0.710874
     10          7           0       -1.090480    1.417712   -0.203923
     11          6           0       -3.493188   -1.278805    0.669350
     12          6           0       -2.604517   -2.336687    1.562552
     13          6           0       -1.229570   -2.047814    1.698952
     14          6           0       -0.605335   -1.246859    2.863167
     15          6           0        0.703198   -1.045616    2.465054
     16          6           0        0.906221   -1.798673    1.295610
     17          6           0       -4.790862   -1.876361    0.221924
     18          6           0        1.744432   -0.346704    3.272072
     19          6           0       -4.753629   -1.992835   -1.098149
     20          6           0        2.127192   -1.807680    0.416728
     21          6           0        2.069812   -0.985694   -0.637261
     22          6           0       -3.568005   -1.392789   -1.682580
     23          6           0        3.114716   -0.680740   -1.742509
     24          6           0       -1.519439   -0.541301    3.917754
     25          6           0       -5.946901   -2.395185    1.177546
     26          6           0        2.679489    0.392505   -2.402753
     27          6           0        1.810700    1.122435    2.726793
     28          6           0        1.393538    0.881932   -1.797851
     29          6           0        4.353473   -1.529026   -1.920348
     30          6           0       -5.783861   -2.432467   -1.999944
     31          6           0        5.547258   -1.235754   -1.130736
     32          6           0        3.306991    1.039604   -3.604407
     33          6           0        0.540084    1.992221   -2.063616
     34          6           0        2.925142    1.936403    3.311027
     35          6           0       -0.564467    2.278565   -1.175708
     36          6           0       -6.786799   -3.245075   -1.896431
     37          6           0        6.672694   -2.105199   -1.321607
     38          6           0       -1.338482    3.558997   -1.261920
     39          6           0       -2.217903    3.450405   -0.171240
     40          6           0       -2.108091    2.053745    0.454538
     41          6           0       -1.124559    4.702044   -2.181695
     42          6           0       -3.281734    4.416166    0.279440
     43          6           0       -1.723825    5.820649   -2.152702
     44          1           0       -3.583412   -0.422049    1.228920
     45          1           0       -2.737035   -3.364532    1.188854
     46          1           0       -3.043126   -2.365556    2.699615
     47          1           0       -0.382188   -2.881220   -0.054777
     48          1           0       -2.012707   -0.383279   -0.694217
     49          1           0        1.651150   -0.284197    4.409601
     50          1           0        2.743864   -0.771396    3.013476
     51          1           0        2.832524   -2.689616    0.155786
     52          1           0       -2.359967   -1.115331    4.296106
     53          1           0       -0.867885   -0.173242    4.892069
     54          1           0       -1.981608    0.349734    3.298158
     55          1           0       -5.874573   -1.764571    1.941456
     56          1           0       -5.836680   -3.487993    1.632490
     57          1           0       -7.030490   -2.170033    0.798733
     58          1           0        1.860670    1.135935    1.514962
     59          1           0        0.752657    1.483363    3.008038
     60          1           0        0.415833   -0.019607    0.015894
     61          1           0        4.746894   -1.514934   -2.924395
     62          1           0        4.079321   -2.716663   -1.826252
     63          1           0       -5.702953   -2.099430   -2.981311
     64          1           0        5.276122   -1.298014    0.038066
     65          1           0        5.764697    0.038105   -1.090207
     66          1           0        4.210441    0.468799   -3.866225
     67          1           0        3.585286    2.068001   -3.233756
     68          1           0        2.684742    1.101261   -4.480117
     69          1           0        0.822059    2.694771   -2.818686
     70          1           0       -7.225283   -3.728777   -0.887555
     71          1           0       -7.481218   -3.534570   -2.804641
     72          1           0        3.980973    3.640098    3.018947
     73          1           0       -0.227644    4.647322   -2.592903
     74          1           0       -4.105803    4.368661   -0.338735
     75          1           0       -3.764047    4.130809    1.356760
     76          1           0       -2.937691    5.492575    0.306957
     77          1           0        8.440977   -2.222243   -0.579777
     78          1           0       -1.328956    6.683116   -2.825068
     79          1           0       -2.656011    5.945174   -1.705266
 ---------------------------------------------------------------------

 SCF Done:  E(RB3LYP) =  -1947.84229385     A.U. after   18 cycles

 Excitation energies and oscillator strengths:

 Excited State   1:      Singlet-A      0.8828 eV 1404.51 nm  f=0.0077  <S**2>=0.000
     155 ->156         0.70508
 This state for optimization and/or second-order correction.
 Total Energy, E(TD-HF/TD-DFT) =  -1947.80985312
 Copying the excited state density for this state as the 1-particle RhoCI density.

 The electronic state is 1-A.
 Alpha  occ. eigenvalues --  -19.17599 -19.17571 -19.14857 -19.12635 -19.12000
 Alpha  occ. eigenvalues --  -19.09003 -14.38486 -14.37947 -14.32569 -14.30422
 Alpha  occ. eigenvalues --  -10.33301 -10.30980 -10.28357 -10.27966 -10.26505
 Alpha  occ. eigenvalues --  -10.26424 -10.24601 -10.23730 -10.23344 -10.23193
 Alpha  occ. eigenvalues --  -10.22704 -10.22077 -10.21879 -10.21804 -10.21682
 Alpha  occ. eigenvalues --  -10.21544 -10.21508 -10.20961 -10.20689 -10.20442
 Alpha  occ. eigenvalues --  -10.20267 -10.20198 -10.20062 -10.19901 -10.19793
 Alpha  occ. eigenvalues --  -10.19704 -10.19659 -10.19254 -10.18672 -10.17788
 Alpha  occ. eigenvalues --  -10.17587 -10.17312 -10.16790  -1.11087  -1.08363
 Alpha  occ. eigenvalues --   -1.06040  -1.03251  -1.00554  -0.99880  -0.99556
 Alpha  occ. eigenvalues --   -0.98003  -0.92330  -0.91516  -0.84668  -0.82669
 Alpha  occ. eigenvalues --   -0.82107  -0.80457  -0.80273  -0.79808  -0.77789
 Alpha  occ. eigenvalues --   -0.76496  -0.75821  -0.74902  -0.74446  -0.73362
 Alpha  occ. eigenvalues --   -0.71003  -0.70124  -0.70053  -0.68937  -0.66926
 Alpha  occ. eigenvalues --   -0.65993  -0.65635  -0.63143  -0.61430  -0.60494
 Alpha  occ. eigenvalues --   -0.59769  -0.58427  -0.58102  -0.57600  -0.56375
 Alpha  occ. eigenvalues --   -0.56184  -0.55538  -0.55269  -0.53167  -0.53081
 Alpha  occ. eigenvalues --   -0.52772  -0.51290  -0.50529  -0.50129  -0.49528
 Alpha  occ. eigenvalues --   -0.49356  -0.49110  -0.48755  -0.47958  -0.47363
 Alpha  occ. eigenvalues --   -0.47065  -0.46760  -0.46355  -0.46030  -0.45759
 Alpha  occ. eigenvalues --   -0.45537  -0.45095  -0.44873  -0.44616  -0.44196
 Alpha  occ. eigenvalues --   -0.43829  -0.43234  -0.42871  -0.42087  -0.41828
 Alpha  occ. eigenvalues --   -0.41603  -0.41295  -0.41249  -0.41157  -0.40878
 Alpha  occ. eigenvalues --   -0.40607  -0.40556  -0.40336  -0.39944  -0.39610
 Alpha  occ. eigenvalues --   -0.39180  -0.38875  -0.38509  -0.38055  -0.37620
 Alpha  occ. eigenvalues --   -0.37486  -0.37314  -0.37220  -0.36902  -0.36203
 Alpha  occ. eigenvalues --   -0.36066  -0.35466  -0.35313  -0.35096  -0.34284
 Alpha  occ. eigenvalues --   -0.33362  -0.33124  -0.32501  -0.32249  -0.31829
 Alpha  occ. eigenvalues --   -0.31193  -0.30519  -0.30129  -0.29726  -0.29250
 Alpha  occ. eigenvalues --   -0.28154  -0.27593  -0.25880  -0.25029  -0.24187
 Alpha  occ. eigenvalues --   -0.23733  -0.23635  -0.23229  -0.22535  -0.18071
 Alpha virt. eigenvalues --   -0.12542  -0.06900  -0.03772  -0.02519  -0.01470
 Alpha virt. eigenvalues --    0.00450   0.01330   0.02048   0.02474   0.03082
 Alpha virt. eigenvalues --    0.03418   0.04255   0.04450   0.04945   0.05068

 Mulliken charges:
               1
     1  O   -0.227433
     2  O   -0.261981
     3  O   -0.193875
     4  O   -0.192058
     5  O   -0.169595
     6  O   -0.147230
     7  N   -0.000696
     8  N   -0.275255
     9  N   -0.108120
    10  N   -0.324569
    11  C    0.150156
    12  C    0.106951
    13  C   -0.114380
    14  C   -0.103259
    15  C   -0.081813
    16  C   -0.096046
    17  C   -0.157645
    18  C    0.128739
    19  C   -0.011865
    20  C   -0.054274
    21  C    0.008190
    22  C    0.157554
    23  C   -0.020254
    24  C   -0.001583
    25  C    0.096693
    26  C   -0.142741
    27  C   -0.136594
    28  C    0.151487
    29  C    0.053111
    30  C    0.045817
    31  C   -0.117391
    32  C    0.115322
    33  C   -0.076493
    34  C    0.156934
    35  C    0.116496
    36  C   -0.125243
    37  C    0.159456
    38  C    0.003826
    39  C   -0.215475
    40  C    0.167109
    41  C    0.101441
    42  C    0.043483
    43  C   -0.021244
    44  H    0.005764
    45  H   -0.020908
    46  H    0.012821
    47  H    0.149111
    48  H    0.147774
    49  H    0.034325
    50  H   -0.001836
    51  H    0.010327
    52  H    0.008724
    53  H    0.029867
    54  H    0.072857
    55  H   -0.029939
    56  H    0.057801
    57  H    0.043250
    58  H    0.057605
    59  H    0.066345
    60  H    0.209295
    61  H    0.004554
    62  H    0.053385
    63  H   -0.021206
    64  H    0.076080
    65  H    0.066346
    66  H    0.015120
    67  H    0.036367
    68  H    0.039659
    69  H   -0.021935
    70  H    0.021511
    71  H    0.031727
    72  H    0.229166
    73  H   -0.065196
    74  H    0.023578
    75  H    0.043065
    76  H    0.041442
    77  H    0.147255
    78  H    0.037823
    79  H    0.002423
 Sum of Mulliken charges =  -0.00000

 Dipole moment (field-independent basis, Debye):
    X=              3.8458    Y=              3.4580    Z=             -1.7214  Tot=              5.4508
 Quadrupole moment (field-independent basis, Debye-Ang):
   XX=           -233.1113   YY=           -236.9680   ZZ=           -269.7199
   XY=              4.5871   XZ=            -25.8822   YZ=            -14.4102

 Normal termination of Gaussian 16 at Wed Jul 24 07:19:56 2019.
