 Gaussian 16, Revision A.03,
 Gaussian 16:  ES64L-G16RevA.03 25-Dec-2016

 --------------------------
 # td=(NStates=1) B3LYP/SVP
 --------------------------

 --
 TD
 --
 Symbolic Z-matrix:
 Charge =  0 Multiplicity = 1

                         Standard orientation:
 ---------------------------------------------------------------------
 Center     Atomic      Atomic             Coordinates (Angstroms)
 Number     Number       Type             X           Y           Z
 ---------------------------------------------------------------------
      1          8           0        5.329691    0.098021   -3.184387
      2          8           0       -3.237957   -2.791343    3.042568
      3          8           0       -3.436438   -0.604731    2.912729
      4          8           0       -1.417701    7.132518    1.565413
      5          8           0       -0.581018    7.091360   -0.579324
      6          8           0       -1.758823   -3.992624    0.011705
      7          7           0        2.323876    0.882596    0.639239
      8          7           0        4.357092   -0.486414   -1.190489
      9          7           0       -1.897938    0.640825   -0.283893
     10          7           0       -2.554362   -1.880686   -0.575022
     11          6           0        4.728690   -1.236019    0.029896
     12          6           0        4.476304   -0.405526    1.312165
     13          6           0        2.980880   -0.123844    1.397900
     14          6           0        1.965592   -0.758743    2.157829
     15          6           0        0.663601   -0.124987    1.849811
     16          6           0        0.985556    0.944580    0.868544
     17          6           0        6.187064   -1.568323   -0.160929
     18          6           0       -0.631749   -0.240622    2.590347
     19          6           0        6.616572   -0.865144   -1.338340
     20          6           0        0.256001    1.927514    0.197359
     21          6           0       -1.081769    1.856452   -0.363277
     22          6           0        5.436238   -0.332357   -2.091495
     23          6           0       -1.845158    2.835286   -0.877761
     24          6           0        2.170343   -1.843880    3.037891
     25          6           0        7.167896   -2.261127    0.783293
     26          6           0       -3.061530    2.306993   -1.353001
     27          6           0       -1.247038   -1.656096    2.619807
     28          6           0       -3.032082    0.926631   -0.983347
     29          6           0       -1.372881    4.405414   -0.913846
     30          6           0        7.908092   -0.738085   -2.023782
     31          6           0       -1.602204    5.119818    0.463927
     32          6           0       -4.325265    3.042083   -1.825859
     33          6           0       -3.926965   -0.046442   -1.348262
     34          6           0       -2.714890   -1.628629    2.859901
     35          6           0       -3.741268   -1.407516   -1.079635
     36          6           0        9.159860   -0.826297   -1.501570
     37          6           0       -1.070978    6.493778    0.353505
     38          6           0       -4.637779   -2.529825   -1.417295
     39          6           0       -3.958380   -3.729611   -1.019867
     40          6           0       -2.608601   -3.302917   -0.485279
     41          6           0       -5.918948   -2.370966   -2.125352
     42          6           0       -4.341212   -5.148048   -1.172973
     43          6           0       -6.728916   -3.320302   -2.627386
     44          1           0        4.246542   -2.295314    0.054208
     45          1           0        5.125342    0.561922    1.161321
     46          1           0        4.522926   -0.910294    2.361047
     47          1           0        2.851233    1.595847   -0.040824
     48          1           0        3.350886   -0.566541   -1.499515
     49          1           0       -0.636232    0.051193    3.551885
     50          1           0       -1.239604    0.393412    2.145369
     51          1           0        0.812676    2.785973   -0.291179
     52          1           0        3.343666   -2.253314    3.160581
     53          1           0        1.926878   -1.574870    4.145100
     54          1           0        1.517367   -2.769556    2.742472
     55          1           0        6.656247   -2.922223    1.390692
     56          1           0        7.673048   -1.702357    1.462635
     57          1           0        7.999244   -2.865838    0.259102
     58          1           0       -0.994352   -2.120584    1.684154
     59          1           0       -0.814671   -2.277917    3.495023
     60          1           0       -1.481038   -0.313817   -0.163897
     61          1           0       -2.057107    4.951486   -1.585358
     62          1           0       -0.320127    4.407169   -1.232703
     63          1           0        7.745177   -0.620821   -3.069883
     64          1           0       -0.843297    4.753068    1.274948
     65          1           0       -2.725842    5.094538    0.823303
     66          1           0       -4.096652    4.101814   -2.113162
     67          1           0       -5.243105    2.757096   -1.127071
     68          1           0       -4.711206    2.582229   -2.898776
     69          1           0       -4.879562    0.256287   -1.798423
     70          1           0        9.281932   -0.817941   -0.383271
     71          1           0        9.970390   -0.701580   -2.254784
     72          1           0       -4.124306   -2.537675    3.356919
     73          1           0       -6.377855   -1.405752   -2.173575
     74          1           0       -5.517732   -5.275046   -0.838966
     75          1           0       -4.424461   -5.530259   -2.095489
     76          1           0       -3.472758   -5.436174   -0.525846
     77          1           0       -1.079710    7.987357    1.493330
     78          1           0       -7.514100   -3.082279   -3.146463
     79          1           0       -6.382983   -4.218541   -2.478869
 ---------------------------------------------------------------------

 SCF Done:  E(RB3LYP) =  -1947.86502763     A.U. after   18 cycles

 Excitation energies and oscillator strengths:

 Excited State   1:      Singlet-A      1.8540 eV  668.75 nm  f=0.2968  <S**2>=0.000
     154 ->156         0.31255
     155 ->156         0.63268
     155 <-156        -0.12454
 This state for optimization and/or second-order correction.
 Total Energy, E(TD-HF/TD-DFT) =  -1947.79689524
 Copying the excited state density for this state as the 1-particle RhoCI density.

 The electronic state is 1-A.
 Alpha  occ. eigenvalues --  -19.17901 -19.17327 -19.14532 -19.11181 -19.10580
 Alpha  occ. eigenvalues --  -19.10302 -14.39576 -14.35669 -14.35622 -14.27759
 Alpha  occ. eigenvalues --  -10.32998 -10.30415 -10.28963 -10.26346 -10.25991
 Alpha  occ. eigenvalues --  -10.24472 -10.24228 -10.24154 -10.23923 -10.23565
 Alpha  occ. eigenvalues --  -10.23564 -10.23120 -10.23073 -10.22688 -10.22412
 Alpha  occ. eigenvalues --  -10.22380 -10.22005 -10.21119 -10.21074 -10.21054
 Alpha  occ. eigenvalues --  -10.20980 -10.20585 -10.20450 -10.20341 -10.20061
 Alpha  occ. eigenvalues --  -10.19828 -10.19549 -10.19309 -10.19126 -10.18521
 Alpha  occ. eigenvalues --  -10.18328 -10.17134 -10.16621  -1.11068  -1.09275
 Alpha  occ. eigenvalues --   -1.04990  -1.02033  -1.01482  -0.97834  -0.97102
 Alpha  occ. eigenvalues --   -0.96844  -0.93519  -0.89639  -0.82291  -0.81682
 Alpha  occ. eigenvalues --   -0.81269  -0.81204  -0.79464  -0.79166  -0.78357
 Alpha  occ. eigenvalues --   -0.77696  -0.76562  -0.75767  -0.74737  -0.72339
 Alpha  occ. eigenvalues --   -0.71837  -0.71132  -0.69286  -0.68751  -0.68176
 Alpha  occ. eigenvalues --   -0.67486  -0.66145  -0.63516  -0.61009  -0.60329
 Alpha  occ. eigenvalues --   -0.59138  -0.58401  -0.58193  -0.57302  -0.56469
 Alpha  occ. eigenvalues --   -0.55892  -0.55252  -0.54436  -0.54084  -0.53158
 Alpha  occ. eigenvalues --   -0.52217  -0.51332  -0.50594  -0.50401  -0.49840
 Alpha  occ. eigenvalues --   -0.49010  -0.48895  -0.48439  -0.48257  -0.48035
 Alpha  occ. eigenvalues --   -0.47693  -0.47595  -0.46453  -0.46234  -0.45641
 Alpha  occ. eigenvalues --   -0.45251  -0.44875  -0.44477  -0.44405  -0.43838
 Alpha  occ. eigenvalues --   -0.43633  -0.43447  -0.42692  -0.42489  -0.42362
 Alpha  occ. eigenvalues --   -0.41898  -0.41864  -0.41834  -0.41403  -0.41182
 Alpha  occ. eigenvalues --   -0.40923  -0.40437  -0.40136  -0.40032  -0.39808
 Alpha  occ. eigenvalues --   -0.39568  -0.39445  -0.39297  -0.38758  -0.38662
 Alpha  occ. eigenvalues --   -0.38498  -0.38308  -0.37393  -0.37148  -0.36884
 Alpha  occ. eigenvalues --   -0.36594  -0.36425  -0.35805  -0.35626  -0.35011
 Alpha  occ. eigenvalues --   -0.34233  -0.33294  -0.33232  -0.33149  -0.31308
 Alpha  occ. eigenvalues --   -0.30604  -0.30122  -0.29474  -0.28223  -0.27548
 Alpha  occ. eigenvalues --   -0.26847  -0.26566  -0.26244  -0.25864  -0.24523
 Alpha  occ. eigenvalues --   -0.24215  -0.23782  -0.23328  -0.21020  -0.18559
 Alpha virt. eigenvalues --   -0.11347  -0.07182  -0.06770  -0.01547  -0.00434
 Alpha virt. eigenvalues --    0.00628   0.00795   0.01441   0.01802   0.02435
 Alpha virt. eigenvalues --    0.03178   0.03303   0.04835   0.04898   0.05530

 Mulliken charges:
               1
     1  O   -0.168647
     2  O   -0.110691
     3  O   -0.297108
     4  O   -0.206028
     5  O   -0.211093
     6  O   -0.195313
     7  N   -0.137427
     8  N   -0.258001
     9  N   -0.119326
    10  N   -0.347748
    11  C    0.071810
    12  C    0.170020
    13  C   -0.069769
    14  C   -0.077092
    15  C   -0.116458
    16  C    0.099228
    17  C   -0.160663
    18  C    0.260720
    19  C   -0.117614
    20  C   -0.093600
    21  C    0.032591
    22  C    0.165032
    23  C   -0.068358
    24  C   -0.057347
    25  C    0.132263
    26  C   -0.120524
    27  C   -0.036970
    28  C    0.139320
    29  C    0.113152
    30  C   -0.010824
    31  C   -0.050551
    32  C    0.009464
    33  C   -0.109927
    34  C    0.116521
    35  C    0.109799
    36  C   -0.023725
    37  C    0.144000
    38  C    0.091408
    39  C   -0.227812
    40  C    0.173228
    41  C   -0.088777
    42  C    0.064058
    43  C    0.152236
    44  H    0.042757
    45  H    0.021610
    46  H    0.036108
    47  H    0.165188
    48  H    0.148415
    49  H   -0.029105
    50  H   -0.051078
    51  H   -0.002916
    52  H    0.023827
    53  H    0.039841
    54  H    0.070340
    55  H   -0.018476
    56  H    0.009060
    57  H    0.046547
    58  H    0.062322
    59  H    0.038261
    60  H    0.167195
    61  H    0.016759
    62  H    0.028576
    63  H    0.006274
    64  H    0.061999
    65  H    0.090924
    66  H    0.032275
    67  H    0.067656
    68  H    0.038604
    69  H   -0.036016
    70  H    0.031853
    71  H    0.038783
    72  H    0.172112
    73  H   -0.026005
    74  H    0.035677
    75  H    0.010486
    76  H    0.053915
    77  H    0.146318
    78  H   -0.032448
    79  H   -0.071098
 Sum of Mulliken charges =  -0.00000

 Dipole moment (field-independent basis, Debye):
    X=              2.2485    Y=              1.8886    Z=              3.5228  Tot=              4.5861
 Quadrupole moment (field-independent basis, Debye-Ang):
   XX=           -220.6686   YY=           -255.1083   ZZ=           -258.6603
   XY=            -12.4984   XZ=             30.2696   YZ=              1.5423

 Normal termination of Gaussian 16 at Tue Oct  8 23:04:50 2019.
