 Gaussian 16, Revision A.03,
 Gaussian 16:  ES64L-G16RevA.03 25-Dec-2016

 --------------------------
 # td=(NStates=1) B3LYP/SVP
 --------------------------

 --
 TD
 --
 Symbolic Z-matrix:
 Charge =  0 Multiplicity = 1

                         Standard orientation:
 ---------------------------------------------------------------------
 Center     Atomic      Atomic             Coordinates (Angstroms)
 Number     Number       Type             X           Y           Z
 ---------------------------------------------------------------------
      1          8           0       -3.186023   -1.562999   -2.892779
      2          8           0        2.913663    3.250791    2.937617
      3          8           0        3.439304    1.602279    4.519628
      4          8           0        7.732209   -1.512150   -0.573922
      5          8           0        6.783855   -3.108615   -1.864683
      6          8           0       -2.651888    1.617968    1.381695
      7          7           0       -0.337588   -2.317248    0.959879
      8          7           0       -2.673585   -1.156159   -0.607664
      9          7           0        1.222037   -0.028915   -0.685234
     10          7           0       -1.002077    1.447195   -0.261385
     11          6           0       -3.394110   -1.212866    0.634496
     12          6           0       -2.745845   -2.259842    1.615685
     13          6           0       -1.308584   -1.863899    1.779916
     14          6           0       -0.556473   -1.177467    2.876778
     15          6           0        0.786598   -1.208669    2.614385
     16          6           0        0.918120   -1.836284    1.312170
     17          6           0       -4.726339   -1.638890    0.265102
     18          6           0        1.733535   -0.384432    3.239730
     19          6           0       -4.783773   -2.122277   -1.109603
     20          6           0        2.100073   -1.885323    0.424160
     21          6           0        2.199369   -0.944022   -0.636166
     22          6           0       -3.423775   -1.693981   -1.700381
     23          6           0        3.132916   -0.659278   -1.729416
     24          6           0       -1.298669   -0.526891    3.902754
     25          6           0       -5.869583   -1.943744    1.260441
     26          6           0        2.644542    0.354059   -2.430323
     27          6           0        1.891666    1.062370    2.688812
     28          6           0        1.410571    0.847247   -1.839547
     29          6           0        4.321857   -1.591633   -2.072140
     30          6           0       -5.883254   -2.533375   -1.940337
     31          6           0        5.592644   -1.106466   -1.127458
     32          6           0        3.130552    1.028691   -3.711700
     33          6           0        0.569428    1.955213   -2.068040
     34          6           0        2.783280    1.985025    3.513844
     35          6           0       -0.559533    2.254035   -1.248806
     36          6           0       -7.034629   -3.274306   -1.631652
     37          6           0        6.714835   -2.051027   -1.265521
     38          6           0       -1.281403    3.551917   -1.218482
     39          6           0       -2.277068    3.392066   -0.261333
     40          6           0       -2.138790    2.136926    0.378977
     41          6           0       -1.134926    4.554665   -2.324108
     42          6           0       -3.298573    4.275165    0.242200
     43          6           0       -1.993108    5.540903   -2.610397
     44          1           0       -3.408845   -0.226310    0.986461
     45          1           0       -2.634977   -3.396840    1.201216
     46          1           0       -3.220919   -2.162117    2.550256
     47          1           0       -0.469990   -3.164121    0.247430
     48          1           0       -1.953492   -0.384868   -0.593952
     49          1           0        1.308538   -0.359758    4.260306
     50          1           0        2.831361   -0.575609    3.023193
     51          1           0        2.686494   -3.006668    0.378471
     52          1           0       -1.996991   -0.942939    4.595865
     53          1           0       -0.624826   -0.163393    4.648693
     54          1           0       -1.829812    0.398471    3.583612
     55          1           0       -5.514336   -1.127359    1.908014
     56          1           0       -6.005706   -3.091221    1.684592
     57          1           0       -6.859694   -1.884754    0.785558
     58          1           0        2.279009    1.059050    1.753963
     59          1           0        0.920681    1.576197    2.859031
     60          1           0        0.271208    0.094450   -0.126416
     61          1           0        4.451241   -1.406025   -3.005285
     62          1           0        4.219317   -2.728842   -2.118262
     63          1           0       -5.780145   -2.343639   -3.075551
     64          1           0        5.356656   -1.041603   -0.003202
     65          1           0        5.904230   -0.012931   -1.437557
     66          1           0        4.013208    0.664562   -4.303871
     67          1           0        3.488294    2.180783   -3.634677
     68          1           0        2.336607    1.293693   -4.449580
     69          1           0        0.739220    2.505873   -2.941407
     70          1           0       -7.509179   -3.731593   -0.763261
     71          1           0       -7.589187   -3.680764   -2.427348
     72          1           0        3.448171    3.686538    3.699880
     73          1           0        0.034950    4.302682   -2.747153
     74          1           0       -4.278985    4.272510   -0.451270
     75          1           0       -3.729154    3.989985    1.088848
     76          1           0       -3.016819    5.294751    0.129981
     77          1           0        8.616881   -1.919759   -0.688923
     78          1           0       -1.596322    6.253109   -3.335201
     79          1           0       -2.926466    5.724494   -2.126316
 ---------------------------------------------------------------------

 SCF Done:  E(RB3LYP) =  -1947.77497740     A.U. after   21 cycles

 Excitation energies and oscillator strengths:

 Excited State   1:      Singlet-A      0.5647 eV 2195.46 nm  f=0.0008  <S**2>=0.000
     155 ->156         0.70281
 This state for optimization and/or second-order correction.
 Total Energy, E(TD-HF/TD-DFT) =  -1947.75422395
 Copying the excited state density for this state as the 1-particle RhoCI density.

 The electronic state is 1-A.
 Alpha  occ. eigenvalues --  -19.18758 -19.18594 -19.13737 -19.13538 -19.12654
 Alpha  occ. eigenvalues --  -19.08217 -14.37888 -14.37150 -14.32081 -14.31275
 Alpha  occ. eigenvalues --  -10.32919 -10.32059 -10.29032 -10.26971 -10.26906
 Alpha  occ. eigenvalues --  -10.25447 -10.25339 -10.23655 -10.23434 -10.23362
 Alpha  occ. eigenvalues --  -10.23126 -10.22853 -10.22845 -10.22593 -10.21540
 Alpha  occ. eigenvalues --  -10.21461 -10.21448 -10.21379 -10.21062 -10.20683
 Alpha  occ. eigenvalues --  -10.20546 -10.20419 -10.20314 -10.20303 -10.20165
 Alpha  occ. eigenvalues --  -10.19613 -10.19255 -10.19064 -10.18524 -10.18257
 Alpha  occ. eigenvalues --  -10.16796 -10.16641 -10.16196  -1.09955  -1.07061
 Alpha  occ. eigenvalues --   -1.03351  -1.01089  -0.99601  -0.98539  -0.98185
 Alpha  occ. eigenvalues --   -0.96048  -0.93112  -0.91269  -0.83404  -0.82358
 Alpha  occ. eigenvalues --   -0.81692  -0.80950  -0.78784  -0.78600  -0.77752
 Alpha  occ. eigenvalues --   -0.77319  -0.76193  -0.75149  -0.73635  -0.72602
 Alpha  occ. eigenvalues --   -0.71671  -0.70772  -0.69839  -0.68483  -0.67863
 Alpha  occ. eigenvalues --   -0.66347  -0.66189  -0.64001  -0.61567  -0.60691
 Alpha  occ. eigenvalues --   -0.60307  -0.59044  -0.58071  -0.57328  -0.57123
 Alpha  occ. eigenvalues --   -0.55513  -0.54932  -0.53410  -0.52981  -0.52440
 Alpha  occ. eigenvalues --   -0.51890  -0.51578  -0.50728  -0.50188  -0.49368
 Alpha  occ. eigenvalues --   -0.49226  -0.48902  -0.48245  -0.48027  -0.47827
 Alpha  occ. eigenvalues --   -0.47490  -0.47174  -0.46358  -0.45963  -0.45711
 Alpha  occ. eigenvalues --   -0.45312  -0.44832  -0.44540  -0.44224  -0.44063
 Alpha  occ. eigenvalues --   -0.43726  -0.43091  -0.42723  -0.42353  -0.42331
 Alpha  occ. eigenvalues --   -0.41825  -0.41308  -0.40994  -0.40626  -0.40514
 Alpha  occ. eigenvalues --   -0.40390  -0.40219  -0.39963  -0.39813  -0.39554
 Alpha  occ. eigenvalues --   -0.39116  -0.38980  -0.38677  -0.38355  -0.38029
 Alpha  occ. eigenvalues --   -0.37755  -0.37450  -0.37215  -0.36892  -0.36360
 Alpha  occ. eigenvalues --   -0.36105  -0.35781  -0.35379  -0.35079  -0.33737
 Alpha  occ. eigenvalues --   -0.33215  -0.33161  -0.33049  -0.32037  -0.31993
 Alpha  occ. eigenvalues --   -0.31575  -0.29726  -0.29279  -0.29108  -0.28827
 Alpha  occ. eigenvalues --   -0.27487  -0.27184  -0.26714  -0.24317  -0.23966
 Alpha  occ. eigenvalues --   -0.23157  -0.22533  -0.21752  -0.21184  -0.17992
 Alpha virt. eigenvalues --   -0.13450  -0.08591  -0.05288  -0.02098  -0.01127
 Alpha virt. eigenvalues --   -0.00485   0.00138   0.01331   0.02228   0.02624
 Alpha virt. eigenvalues --    0.03418   0.03920   0.04554   0.04753   0.04876

 Mulliken charges:
               1
     1  O   -0.239138
     2  O   -0.234131
     3  O   -0.268787
     4  O   -0.201414
     5  O   -0.222137
     6  O   -0.207842
     7  N   -0.082797
     8  N   -0.270483
     9  N   -0.180575
    10  N   -0.366711
    11  C    0.105094
    12  C    0.239329
    13  C   -0.128633
    14  C   -0.107074
    15  C    0.000195
    16  C   -0.085009
    17  C   -0.170405
    18  C    0.078243
    19  C   -0.046174
    20  C   -0.152162
    21  C    0.123892
    22  C    0.178996
    23  C   -0.124374
    24  C    0.101431
    25  C    0.022716
    26  C   -0.011964
    27  C    0.057213
    28  C    0.112555
    29  C    0.188016
    30  C   -0.037194
    31  C   -0.081427
    32  C    0.002722
    33  C   -0.056769
    34  C    0.142371
    35  C    0.125365
    36  C   -0.056142
    37  C    0.157372
    38  C    0.004868
    39  C   -0.189941
    40  C    0.197674
    41  C   -0.038571
    42  C    0.165970
    43  C    0.002380
    44  H    0.024221
    45  H    0.018945
    46  H   -0.024496
    47  H    0.160342
    48  H    0.153760
    49  H    0.017939
    50  H   -0.000101
    51  H    0.053994
    52  H   -0.009401
    53  H   -0.050664
    54  H    0.023428
    55  H    0.032987
    56  H    0.055537
    57  H    0.030904
    58  H    0.007516
    59  H    0.036809
    60  H    0.243488
    61  H   -0.060014
    62  H    0.052810
    63  H    0.041077
    64  H    0.075547
    65  H    0.067165
    66  H    0.035298
    67  H    0.028239
    68  H    0.034459
    69  H   -0.037313
    70  H    0.007031
    71  H    0.004006
    72  H    0.199605
    73  H    0.049464
    74  H    0.030464
    75  H   -0.018241
    76  H    0.013469
    77  H    0.190875
    78  H    0.036969
    79  H    0.027336
 Sum of Mulliken charges =  -0.00000

 Dipole moment (field-independent basis, Debye):
    X=              2.7390    Y=              4.2311    Z=             -1.6647  Tot=              5.3081
 Quadrupole moment (field-independent basis, Debye-Ang):
   XX=           -230.5166   YY=           -232.9088   ZZ=           -269.4367
   XY=              3.4377   XZ=            -24.3677   YZ=            -15.6975

 Normal termination of Gaussian 16 at Mon Jul 29 15:07:43 2019.
