 Gaussian 16, Revision A.03,
 Gaussian 16:  ES64L-G16RevA.03 25-Dec-2016

 --------------------------
 # td=(NStates=1) B3LYP/SVP
 --------------------------

 --
 TD
 --
 Symbolic Z-matrix:
 Charge =  0 Multiplicity = 1

                         Standard orientation:
 ---------------------------------------------------------------------
 Center     Atomic      Atomic             Coordinates (Angstroms)
 Number     Number       Type             X           Y           Z
 ---------------------------------------------------------------------
      1          8           0        5.298819   -0.139031   -3.321774
      2          8           0       -3.135835   -2.819468    2.991680
      3          8           0       -3.358291   -0.598727    3.026356
      4          8           0       -1.057943    7.115357    1.545593
      5          8           0       -0.458982    7.025292   -0.657283
      6          8           0       -1.869928   -3.943325    0.066212
      7          7           0        2.428763    1.012434    0.634403
      8          7           0        4.420494   -0.644296   -1.194528
      9          7           0       -1.947786    0.751032   -0.305298
     10          7           0       -2.710816   -1.921223   -0.413801
     11          6           0        4.810241   -1.252928    0.077082
     12          6           0        4.482511   -0.217673    1.245599
     13          6           0        3.091749   -0.005551    1.376105
     14          6           0        2.052424   -0.615246    2.139035
     15          6           0        0.753519   -0.011087    1.796213
     16          6           0        1.052209    0.913082    0.794566
     17          6           0        6.308116   -1.424999   -0.185942
     18          6           0       -0.641188   -0.295936    2.503683
     19          6           0        6.623230   -0.939894   -1.427021
     20          6           0        0.173352    1.874970    0.155115
     21          6           0       -1.203689    1.823903   -0.269311
     22          6           0        5.432644   -0.571474   -2.157870
     23          6           0       -1.963659    2.921763   -0.863785
     24          6           0        2.262999   -1.580776    3.139975
     25          6           0        7.078885   -2.036530    0.904474
     26          6           0       -3.196405    2.424332   -1.169740
     27          6           0       -1.234188   -1.771799    2.435888
     28          6           0       -3.069028    0.850515   -0.948061
     29          6           0       -1.511582    4.390649   -1.052516
     30          6           0        7.956395   -0.917277   -2.063370
     31          6           0       -1.559618    5.070190    0.357923
     32          6           0       -4.344137    3.024907   -1.831856
     33          6           0       -3.970179   -0.025366   -1.257192
     34          6           0       -2.679798   -1.589853    2.863005
     35          6           0       -3.802625   -1.450102   -1.070750
     36          6           0        9.228384   -1.228239   -1.518731
     37          6           0       -1.006668    6.472700    0.321817
     38          6           0       -4.633350   -2.595255   -1.408887
     39          6           0       -3.990265   -3.700094   -1.063565
     40          6           0       -2.759537   -3.340228   -0.466662
     41          6           0       -5.963830   -2.324847   -2.071100
     42          6           0       -4.493813   -5.093417   -1.214658
     43          6           0       -6.929450   -3.240418   -2.264938
     44          1           0        4.511870   -2.296409    0.323292
     45          1           0        5.139676    0.773463    1.384109
     46          1           0        4.750500   -0.802288    2.256788
     47          1           0        2.827044    1.699271   -0.021685
     48          1           0        3.490870   -0.606543   -1.409314
     49          1           0       -0.376973    0.162972    3.445147
     50          1           0       -1.333441    0.455432    2.104868
     51          1           0        0.624454    2.994797   -0.296672
     52          1           0        3.496316   -1.869261    3.151400
     53          1           0        1.761627   -1.550959    4.027973
     54          1           0        2.140480   -2.727010    2.753151
     55          1           0        6.380652   -2.780899    1.430610
     56          1           0        7.314813   -1.275978    1.766492
     57          1           0        7.905372   -2.688576    0.488514
     58          1           0       -0.929083   -2.059488    1.476829
     59          1           0       -0.631669   -2.256227    3.241178
     60          1           0       -1.518262   -0.250475   -0.298875
     61          1           0       -2.207355    4.896386   -1.859032
     62          1           0       -0.359665    4.393338   -1.413533
     63          1           0        7.829385   -0.603016   -3.144465
     64          1           0       -1.255794    4.560012    1.123730
     65          1           0       -2.667091    5.245787    0.607202
     66          1           0       -4.368671    4.080953   -2.077234
     67          1           0       -5.360069    2.801892   -1.228233
     68          1           0       -4.640206    2.859590   -2.886063
     69          1           0       -4.845072    0.281641   -1.634113
     70          1           0        9.296268   -1.482140   -0.300309
     71          1           0       10.055786   -1.307486   -2.004945
     72          1           0       -4.257482   -2.714429    3.036427
     73          1           0       -6.236752   -1.218302   -2.232516
     74          1           0       -5.469109   -5.220221   -0.521316
     75          1           0       -4.823733   -5.416637   -2.284774
     76          1           0       -3.777255   -5.822250   -0.779171
     77          1           0       -0.599297    8.012399    1.415092
     78          1           0       -7.830812   -2.843084   -2.487958
     79          1           0       -6.836518   -4.160783   -2.231429
 ---------------------------------------------------------------------

 SCF Done:  E(RB3LYP) =  -1947.77044720     A.U. after   18 cycles

 Excitation energies and oscillator strengths:

 Excited State   1:      Singlet-A      1.9044 eV  651.05 nm  f=0.3846  <S**2>=0.000
     155 ->156         0.70197
     155 <-156        -0.11459
 This state for optimization and/or second-order correction.
 Total Energy, E(TD-HF/TD-DFT) =  -1947.70046237
 Copying the excited state density for this state as the 1-particle RhoCI density.

 The electronic state is 1-A.
 Alpha  occ. eigenvalues --  -19.18737 -19.17813 -19.13162 -19.11616 -19.10947
 Alpha  occ. eigenvalues --  -19.10227 -14.37937 -14.36982 -14.34825 -14.28286
 Alpha  occ. eigenvalues --  -10.32958 -10.30750 -10.28786 -10.26094 -10.25637
 Alpha  occ. eigenvalues --  -10.24419 -10.23826 -10.23494 -10.23395 -10.23280
 Alpha  occ. eigenvalues --  -10.23208 -10.23159 -10.23048 -10.22315 -10.22229
 Alpha  occ. eigenvalues --  -10.21638 -10.21422 -10.21329 -10.21298 -10.21188
 Alpha  occ. eigenvalues --  -10.20927 -10.20719 -10.20530 -10.20506 -10.20429
 Alpha  occ. eigenvalues --  -10.20423 -10.19510 -10.19316 -10.19298 -10.18860
 Alpha  occ. eigenvalues --  -10.18783 -10.18094 -10.17876  -1.08267  -1.07985
 Alpha  occ. eigenvalues --   -1.03007  -1.01370  -1.01147  -0.98885  -0.98789
 Alpha  occ. eigenvalues --   -0.96881  -0.93897  -0.92337  -0.82738  -0.82151
 Alpha  occ. eigenvalues --   -0.81789  -0.81063  -0.80400  -0.79860  -0.78345
 Alpha  occ. eigenvalues --   -0.77096  -0.76483  -0.75683  -0.74490  -0.72573
 Alpha  occ. eigenvalues --   -0.71896  -0.71022  -0.70272  -0.68887  -0.67628
 Alpha  occ. eigenvalues --   -0.66648  -0.65884  -0.64538  -0.62048  -0.60987
 Alpha  occ. eigenvalues --   -0.59761  -0.59137  -0.58353  -0.57744  -0.57224
 Alpha  occ. eigenvalues --   -0.56418  -0.55927  -0.55561  -0.54457  -0.53218
 Alpha  occ. eigenvalues --   -0.52451  -0.51892  -0.51485  -0.50862  -0.49433
 Alpha  occ. eigenvalues --   -0.48960  -0.48808  -0.48513  -0.47926  -0.47831
 Alpha  occ. eigenvalues --   -0.47762  -0.47109  -0.46997  -0.46227  -0.45916
 Alpha  occ. eigenvalues --   -0.45681  -0.45133  -0.44339  -0.44225  -0.44038
 Alpha  occ. eigenvalues --   -0.43777  -0.43438  -0.42691  -0.42445  -0.42243
 Alpha  occ. eigenvalues --   -0.41838  -0.41564  -0.41279  -0.41228  -0.41150
 Alpha  occ. eigenvalues --   -0.40705  -0.40573  -0.40346  -0.40111  -0.39621
 Alpha  occ. eigenvalues --   -0.39427  -0.39156  -0.38964  -0.38749  -0.38288
 Alpha  occ. eigenvalues --   -0.38013  -0.37576  -0.37290  -0.36854  -0.36636
 Alpha  occ. eigenvalues --   -0.35555  -0.35355  -0.35237  -0.34782  -0.33919
 Alpha  occ. eigenvalues --   -0.33775  -0.33096  -0.32159  -0.32126  -0.31313
 Alpha  occ. eigenvalues --   -0.31136  -0.30982  -0.28579  -0.28349  -0.27508
 Alpha  occ. eigenvalues --   -0.26766  -0.26675  -0.26187  -0.25715  -0.24949
 Alpha  occ. eigenvalues --   -0.24526  -0.23500  -0.23388  -0.22675  -0.18463
 Alpha virt. eigenvalues --   -0.11016  -0.07009  -0.06326  -0.01273  -0.00993
 Alpha virt. eigenvalues --   -0.00283   0.00429   0.00925   0.02162   0.02522
 Alpha virt. eigenvalues --    0.02730   0.03378   0.04206   0.04592   0.04783

 Mulliken charges:
               1
     1  O   -0.248627
     2  O   -0.223924
     3  O   -0.234639
     4  O   -0.230365
     5  O   -0.262294
     6  O   -0.154294
     7  N   -0.119721
     8  N   -0.179116
     9  N    0.051203
    10  N   -0.324714
    11  C    0.113248
    12  C    0.061361
    13  C   -0.008960
    14  C   -0.086492
    15  C   -0.123102
    16  C    0.053315
    17  C   -0.189416
    18  C    0.052420
    19  C   -0.038422
    20  C   -0.107833
    21  C   -0.019128
    22  C    0.178633
    23  C   -0.092025
    24  C    0.020516
    25  C    0.046065
    26  C   -0.058764
    27  C    0.073097
    28  C    0.102525
    29  C    0.029564
    30  C   -0.023272
    31  C    0.079742
    32  C    0.009714
    33  C   -0.053262
    34  C    0.163915
    35  C    0.042955
    36  C   -0.008030
    37  C    0.161388
    38  C    0.090559
    39  C   -0.193442
    40  C    0.126433
    41  C   -0.071360
    42  C    0.019546
    43  C    0.143960
    44  H    0.036579
    45  H    0.046312
    46  H    0.012041
    47  H    0.124266
    48  H    0.093108
    49  H    0.004209
    50  H    0.009376
    51  H    0.021848
    52  H   -0.003059
    53  H    0.014834
    54  H    0.025632
    55  H    0.012663
    56  H    0.065033
    57  H    0.056016
    58  H    0.064213
    59  H    0.030538
    60  H    0.180671
    61  H    0.048824
    62  H    0.055757
    63  H    0.026538
    64  H   -0.011244
    65  H    0.047943
    66  H   -0.005242
    67  H    0.041171
    68  H    0.026737
    69  H   -0.103343
    70  H    0.041272
    71  H   -0.021267
    72  H    0.227095
    73  H    0.020257
    74  H    0.038047
    75  H    0.052018
    76  H    0.029592
    77  H    0.206006
    78  H   -0.005709
    79  H   -0.077693
 Sum of Mulliken charges =  -0.00000

 Dipole moment (field-independent basis, Debye):
    X=             -1.5013    Y=              0.6481    Z=              2.7715  Tot=              3.2179
 Quadrupole moment (field-independent basis, Debye-Ang):
   XX=           -215.5621   YY=           -247.3595   ZZ=           -267.1157
   XY=             -6.5760   XZ=             36.8966   YZ=              3.9924

 Normal termination of Gaussian 16 at Wed Sep 25 09:05:17 2019.
