 Gaussian 16, Revision A.03,
 Gaussian 16:  ES64L-G16RevA.03 25-Dec-2016

 --------------------------
 # td=(NStates=1) B3LYP/SVP
 --------------------------

 --
 TD
 --
 Symbolic Z-matrix:
 Charge =  0 Multiplicity = 1

                         Standard orientation:
 ---------------------------------------------------------------------
 Center     Atomic      Atomic             Coordinates (Angstroms)
 Number     Number       Type             X           Y           Z
 ---------------------------------------------------------------------
      1          8           0        5.539322   -0.100413   -3.206494
      2          8           0       -3.137485   -3.120304    3.051797
      3          8           0       -3.471939   -0.779558    2.843653
      4          8           0       -1.393815    7.197671    1.566157
      5          8           0       -0.203223    7.007746   -0.271535
      6          8           0       -2.071542   -3.875618   -0.036937
      7          7           0        2.472473    0.853869    0.683213
      8          7           0        4.343802   -0.813048   -1.221243
      9          7           0       -1.857613    0.702355   -0.408982
     10          7           0       -2.689520   -1.738646   -0.769579
     11          6           0        4.815138   -1.438133    0.086543
     12          6           0        4.379204   -0.512287    1.287148
     13          6           0        2.906096   -0.232300    1.405337
     14          6           0        1.877668   -0.879750    2.066994
     15          6           0        0.747450   -0.179415    1.694168
     16          6           0        1.016962    0.894231    0.808853
     17          6           0        6.308578   -1.511452   -0.161496
     18          6           0       -0.544691   -0.283533    2.445288
     19          6           0        6.688586   -0.892422   -1.321577
     20          6           0        0.258572    1.798979    0.158866
     21          6           0       -0.986351    1.803365   -0.392672
     22          6           0        5.493907   -0.561671   -2.093739
     23          6           0       -1.749043    2.911955   -0.779535
     24          6           0        2.037865   -1.995602    3.050677
     25          6           0        7.187063   -2.175048    0.881087
     26          6           0       -2.963104    2.513409   -1.217538
     27          6           0       -1.238453   -1.687405    2.476579
     28          6           0       -3.047177    1.115828   -1.031468
     29          6           0       -1.304929    4.321618   -0.835714
     30          6           0        7.974773   -0.701149   -2.023273
     31          6           0       -1.479275    5.069954    0.582131
     32          6           0       -4.157114    3.329896   -1.788711
     33          6           0       -3.966533    0.161265   -1.412688
     34          6           0       -2.753771   -1.760028    2.850347
     35          6           0       -3.833951   -1.243161   -1.171137
     36          6           0        9.268299   -0.889050   -1.520172
     37          6           0       -0.972618    6.537479    0.588260
     38          6           0       -4.807560   -2.419892   -1.446333
     39          6           0       -4.143154   -3.506099   -1.206309
     40          6           0       -2.942358   -3.147275   -0.576633
     41          6           0       -5.984725   -2.187249   -2.086798
     42          6           0       -4.710136   -4.967470   -1.044797
     43          6           0       -6.988471   -3.031880   -2.504458
     44          1           0        4.275288   -2.358668    0.193440
     45          1           0        4.986664    0.266259    1.155198
     46          1           0        4.801005   -0.897428    2.366830
     47          1           0        3.027336    1.298372   -0.169495
     48          1           0        3.394125   -0.758420   -1.573727
     49          1           0       -0.429281    0.071760    3.494655
     50          1           0       -1.197176    0.406088    2.074686
     51          1           0        0.853274    2.617397   -0.374968
     52          1           0        3.289022   -2.057817    3.207184
     53          1           0        1.520410   -1.706133    3.999122
     54          1           0        1.520500   -2.934513    2.828328
     55          1           0        6.461759   -2.900832    1.494234
     56          1           0        7.587621   -1.341069    1.543603
     57          1           0        7.907020   -2.692418    0.575663
     58          1           0       -1.079947   -2.113484    1.463246
     59          1           0       -0.844924   -2.387096    3.265964
     60          1           0       -1.659158   -0.240618   -0.230040
     61          1           0       -1.712974    4.900201   -1.739102
     62          1           0       -0.116349    4.193413   -1.108485
     63          1           0        7.904946   -0.555365   -3.010822
     64          1           0       -0.979591    4.603431    1.379328
     65          1           0       -2.582875    5.157534    0.668879
     66          1           0       -4.158701    4.496482   -1.548062
     67          1           0       -4.896895    2.679716   -1.102478
     68          1           0       -4.284654    3.034032   -2.832896
     69          1           0       -4.860410    0.425591   -1.852463
     70          1           0        9.381061   -0.812286   -0.542213
     71          1           0       10.271748   -0.702402   -2.062051
     72          1           0       -4.061490   -3.084821    2.896763
     73          1           0       -6.161296   -1.187374   -2.179978
     74          1           0       -5.485442   -5.083719   -0.113362
     75          1           0       -5.153337   -5.504103   -1.887798
     76          1           0       -3.863007   -5.676894   -0.791490
     77          1           0       -1.227850    8.142813    1.479406
     78          1           0       -7.771574   -2.345604   -2.921197
     79          1           0       -6.949857   -4.154167   -2.206278
 ---------------------------------------------------------------------

 SCF Done:  E(RB3LYP) =  -1947.83068632     A.U. after   17 cycles

 Excitation energies and oscillator strengths:

 Excited State   1:      Singlet-A      1.8926 eV  655.10 nm  f=0.4680  <S**2>=0.000
     155 ->156         0.70181
     155 <-156        -0.12837
 This state for optimization and/or second-order correction.
 Total Energy, E(TD-HF/TD-DFT) =  -1947.76113405
 Copying the excited state density for this state as the 1-particle RhoCI density.

 The electronic state is 1-A.
 Alpha  occ. eigenvalues --  -19.20442 -19.16742 -19.12853 -19.11439 -19.11073
 Alpha  occ. eigenvalues --  -19.09863 -14.39102 -14.35436 -14.34802 -14.28534
 Alpha  occ. eigenvalues --  -10.32218 -10.31668 -10.29026 -10.25920 -10.25733
 Alpha  occ. eigenvalues --  -10.24113 -10.23513 -10.23220 -10.23135 -10.23030
 Alpha  occ. eigenvalues --  -10.22553 -10.22315 -10.22074 -10.22006 -10.21606
 Alpha  occ. eigenvalues --  -10.21507 -10.21101 -10.21007 -10.20993 -10.20819
 Alpha  occ. eigenvalues --  -10.20435 -10.20377 -10.19862 -10.19824 -10.19750
 Alpha  occ. eigenvalues --  -10.19637 -10.19562 -10.19440 -10.19314 -10.18857
 Alpha  occ. eigenvalues --  -10.18791 -10.18545 -10.18120  -1.14008  -1.06814
 Alpha  occ. eigenvalues --   -1.03292  -0.99987  -0.99395  -0.99050  -0.97655
 Alpha  occ. eigenvalues --   -0.97107  -0.92379  -0.91994  -0.82805  -0.82332
 Alpha  occ. eigenvalues --   -0.81866  -0.81665  -0.81518  -0.79408  -0.77508
 Alpha  occ. eigenvalues --   -0.77244  -0.76212  -0.75634  -0.74702  -0.72329
 Alpha  occ. eigenvalues --   -0.72182  -0.71143  -0.69248  -0.68838  -0.68603
 Alpha  occ. eigenvalues --   -0.67043  -0.66477  -0.64695  -0.63299  -0.61937
 Alpha  occ. eigenvalues --   -0.61057  -0.58995  -0.58198  -0.57374  -0.57048
 Alpha  occ. eigenvalues --   -0.56397  -0.55475  -0.54778  -0.54401  -0.53959
 Alpha  occ. eigenvalues --   -0.52305  -0.51200  -0.50849  -0.50386  -0.49860
 Alpha  occ. eigenvalues --   -0.49563  -0.48780  -0.48412  -0.48071  -0.47638
 Alpha  occ. eigenvalues --   -0.47513  -0.47080  -0.46656  -0.46130  -0.45988
 Alpha  occ. eigenvalues --   -0.45143  -0.44982  -0.44315  -0.43602  -0.43438
 Alpha  occ. eigenvalues --   -0.43349  -0.42982  -0.42732  -0.42579  -0.42391
 Alpha  occ. eigenvalues --   -0.42082  -0.41890  -0.41584  -0.41395  -0.41136
 Alpha  occ. eigenvalues --   -0.40403  -0.40162  -0.39867  -0.39665  -0.39435
 Alpha  occ. eigenvalues --   -0.39242  -0.39098  -0.38952  -0.38834  -0.38209
 Alpha  occ. eigenvalues --   -0.38020  -0.37577  -0.37167  -0.37079  -0.36469
 Alpha  occ. eigenvalues --   -0.36412  -0.36243  -0.35983  -0.35119  -0.34948
 Alpha  occ. eigenvalues --   -0.34014  -0.33746  -0.33629  -0.31970  -0.31932
 Alpha  occ. eigenvalues --   -0.31604  -0.31477  -0.29229  -0.27211  -0.27127
 Alpha  occ. eigenvalues --   -0.26975  -0.26716  -0.26445  -0.25698  -0.25204
 Alpha  occ. eigenvalues --   -0.24659  -0.24162  -0.23830  -0.22913  -0.18054
 Alpha virt. eigenvalues --   -0.10760  -0.07358  -0.06821  -0.00821  -0.00203
 Alpha virt. eigenvalues --    0.00452   0.00694   0.01348   0.02004   0.02841
 Alpha virt. eigenvalues --    0.03109   0.04186   0.04377   0.04697   0.05296

 Mulliken charges:
               1
     1  O   -0.200576
     2  O   -0.210841
     3  O   -0.214736
     4  O   -0.078864
     5  O   -0.275648
     6  O   -0.237210
     7  N   -0.161024
     8  N   -0.318538
     9  N   -0.089901
    10  N   -0.277532
    11  C    0.145859
    12  C    0.175357
    13  C   -0.059053
    14  C   -0.087982
    15  C   -0.113892
    16  C    0.138882
    17  C   -0.200390
    18  C    0.138392
    19  C   -0.017525
    20  C   -0.116252
    21  C    0.074409
    22  C    0.181067
    23  C   -0.057534
    24  C    0.066819
    25  C    0.148862
    26  C   -0.109297
    27  C   -0.054746
    28  C    0.129858
    29  C   -0.009374
    30  C    0.024371
    31  C    0.046686
    32  C    0.030482
    33  C   -0.070801
    34  C    0.165523
    35  C    0.037296
    36  C   -0.006683
    37  C    0.076532
    38  C    0.137628
    39  C   -0.164062
    40  C    0.152713
    41  C   -0.063151
    42  C   -0.000624
    43  C   -0.008358
    44  H    0.014913
    45  H   -0.062814
    46  H    0.029561
    47  H    0.168877
    48  H    0.130794
    49  H    0.009825
    50  H   -0.035100
    51  H    0.000243
    52  H    0.030659
    53  H    0.022743
    54  H    0.046774
    55  H    0.029949
    56  H    0.049395
    57  H   -0.030709
    58  H    0.084657
    59  H    0.025936
    60  H    0.111550
    61  H    0.037479
    62  H    0.031399
    63  H   -0.024999
    64  H    0.035547
    65  H    0.036442
    66  H    0.053577
    67  H    0.057991
    68  H    0.043405
    69  H   -0.076235
    70  H   -0.022911
    71  H    0.047433
    72  H    0.159245
    73  H   -0.050715
    74  H    0.043525
    75  H    0.024269
    76  H    0.034148
    77  H    0.185968
    78  H    0.039445
    79  H    0.051598
 Sum of Mulliken charges =  -0.00000

 Dipole moment (field-independent basis, Debye):
    X=              0.2734    Y=              2.4262    Z=              3.5401  Tot=              4.3004
 Quadrupole moment (field-independent basis, Debye-Ang):
   XX=           -217.5481   YY=           -241.6797   ZZ=           -263.0980
   XY=            -16.0625   XZ=             30.5681   YZ=              7.1238

 Normal termination of Gaussian 16 at Thu Oct 10 10:23:36 2019.
