 Gaussian 16, Revision A.03,
 Gaussian 16:  ES64L-G16RevA.03 25-Dec-2016

 --------------------------
 # td=(NStates=1) B3LYP/SVP
 --------------------------

 --
 TD
 --
 Symbolic Z-matrix:
 Charge =  0 Multiplicity = 1

                         Standard orientation:
 ---------------------------------------------------------------------
 Center     Atomic      Atomic             Coordinates (Angstroms)
 Number     Number       Type             X           Y           Z
 ---------------------------------------------------------------------
      1          8           0        5.340000    0.160077   -3.234382
      2          8           0       -2.999896   -3.048391    3.024701
      3          8           0       -3.341352   -0.773102    2.978933
      4          8           0       -1.714460    7.222719    1.524613
      5          8           0       -0.836250    7.084891   -0.574207
      6          8           0       -1.701714   -4.125224    0.100837
      7          7           0        2.377928    0.944257    0.610982
      8          7           0        4.338566   -0.473990   -1.251009
      9          7           0       -1.747940    0.592900   -0.447791
     10          7           0       -2.537397   -1.822896   -0.573078
     11          6           0        4.710163   -1.213945   -0.142812
     12          6           0        4.373965   -0.387379    1.194562
     13          6           0        2.972407   -0.154357    1.397959
     14          6           0        1.919779   -0.669088    2.221341
     15          6           0        0.664543   -0.073625    1.881456
     16          6           0        1.042066    0.947237    0.820225
     17          6           0        6.299563   -1.293910   -0.180153
     18          6           0       -0.621242   -0.170621    2.620425
     19          6           0        6.596539   -0.689032   -1.378212
     20          6           0        0.208415    1.896905    0.225478
     21          6           0       -1.052544    1.833949   -0.366479
     22          6           0        5.347168   -0.323432   -2.165487
     23          6           0       -1.885583    2.844931   -0.814317
     24          6           0        2.089168   -1.715948    3.316772
     25          6           0        7.138382   -1.922774    0.951872
     26          6           0       -3.097567    2.343955   -1.261631
     27          6           0       -1.122321   -1.585813    2.547269
     28          6           0       -2.952581    0.879498   -0.988529
     29          6           0       -1.604131    4.269162   -0.864934
     30          6           0        7.887727   -0.611350   -2.109359
     31          6           0       -1.931711    5.200681    0.385639
     32          6           0       -4.358825    2.931721   -1.801067
     33          6           0       -3.864763   -0.178256   -1.369188
     34          6           0       -2.576325   -1.739694    2.968732
     35          6           0       -3.616056   -1.460752   -1.159478
     36          6           0        9.156949   -0.817603   -1.491972
     37          6           0       -1.430683    6.613603    0.394279
     38          6           0       -4.506406   -2.684127   -1.524623
     39          6           0       -3.837122   -3.780379   -1.059030
     40          6           0       -2.480810   -3.301378   -0.470906
     41          6           0       -5.785526   -2.549455   -2.122672
     42          6           0       -4.193795   -5.179102   -1.078217
     43          6           0       -6.573553   -3.465626   -2.704527
     44          1           0        4.133107   -2.091998    0.054304
     45          1           0        4.906405    0.560669    1.101311
     46          1           0        4.642968   -0.910661    1.949778
     47          1           0        2.887308    1.626811    0.142842
     48          1           0        3.364335   -0.517038   -1.743590
     49          1           0       -0.284320    0.142372    3.617051
     50          1           0       -1.351074    0.415905    2.088009
     51          1           0        0.748608    2.960639    0.186618
     52          1           0        3.016164   -1.858675    3.592827
     53          1           0        1.586911   -1.347861    4.236531
     54          1           0        1.649531   -2.840106    3.168218
     55          1           0        6.458726   -2.546934    1.770985
     56          1           0        7.855188   -1.204069    1.551171
     57          1           0        7.864746   -2.694313    0.628900
     58          1           0       -0.903879   -2.257029    1.764451
     59          1           0       -0.443973   -2.287952    3.218403
     60          1           0       -1.595215   -0.391482   -0.166984
     61          1           0       -2.208593    4.871077   -1.654319
     62          1           0       -0.567934    4.536770   -1.204835
     63          1           0        7.706897    0.170053   -3.129335
     64          1           0       -1.364253    4.755930    1.268925
     65          1           0       -2.987089    5.137775    0.618900
     66          1           0       -4.251584    3.957192   -1.844917
     67          1           0       -5.213495    2.595171   -1.269472
     68          1           0       -4.557507    2.286964   -2.648233
     69          1           0       -4.872018    0.303923   -1.775100
     70          1           0        9.348271   -1.741507   -0.473870
     71          1           0        9.965246   -0.436254   -1.982874
     72          1           0       -4.036548   -2.889901    3.215296
     73          1           0       -6.017909   -1.567795   -2.466975
     74          1           0       -5.142650   -5.382160   -0.706490
     75          1           0       -4.164368   -5.514171   -2.241711
     76          1           0       -3.504942   -5.832975   -0.452657
     77          1           0       -1.610875    8.344938    1.302620
     78          1           0       -7.322209   -3.358028   -3.274152
     79          1           0       -6.214457   -4.608905   -2.613810
 ---------------------------------------------------------------------

 SCF Done:  E(RB3LYP) =  -1947.76206425     A.U. after   17 cycles

 Excitation energies and oscillator strengths:

 Excited State   1:      Singlet-A      2.0991 eV  590.65 nm  f=0.4832  <S**2>=0.000
     155 ->156         0.69706
     155 <-156        -0.10735
 This state for optimization and/or second-order correction.
 Total Energy, E(TD-HF/TD-DFT) =  -1947.68492334
 Copying the excited state density for this state as the 1-particle RhoCI density.

 The electronic state is 1-A.
 Alpha  occ. eigenvalues --  -19.20866 -19.17642 -19.12856 -19.11600 -19.11394
 Alpha  occ. eigenvalues --  -19.10819 -14.38391 -14.36535 -14.35846 -14.28739
 Alpha  occ. eigenvalues --  -10.32689 -10.30893 -10.28777 -10.27372 -10.25170
 Alpha  occ. eigenvalues --  -10.24236 -10.24190 -10.23858 -10.23783 -10.23721
 Alpha  occ. eigenvalues --  -10.23530 -10.22625 -10.22486 -10.22321 -10.21661
 Alpha  occ. eigenvalues --  -10.21476 -10.21177 -10.21143 -10.20705 -10.20692
 Alpha  occ. eigenvalues --  -10.20678 -10.20488 -10.20079 -10.19911 -10.19717
 Alpha  occ. eigenvalues --  -10.19479 -10.19190 -10.18991 -10.18862 -10.18679
 Alpha  occ. eigenvalues --  -10.18482 -10.18282 -10.18247  -1.09965  -1.06556
 Alpha  occ. eigenvalues --   -1.05831  -1.00295  -0.98450  -0.98006  -0.97850
 Alpha  occ. eigenvalues --   -0.97409  -0.96181  -0.91613  -0.83105  -0.82223
 Alpha  occ. eigenvalues --   -0.81927  -0.80996  -0.80297  -0.79568  -0.77510
 Alpha  occ. eigenvalues --   -0.76936  -0.76120  -0.74820  -0.73837  -0.73206
 Alpha  occ. eigenvalues --   -0.71546  -0.70612  -0.69526  -0.68811  -0.68294
 Alpha  occ. eigenvalues --   -0.67365  -0.66680  -0.63074  -0.60762  -0.60146
 Alpha  occ. eigenvalues --   -0.59410  -0.58738  -0.58189  -0.57774  -0.56722
 Alpha  occ. eigenvalues --   -0.55918  -0.55574  -0.55293  -0.54246  -0.52560
 Alpha  occ. eigenvalues --   -0.51879  -0.51344  -0.50678  -0.50346  -0.49976
 Alpha  occ. eigenvalues --   -0.49430  -0.49102  -0.48412  -0.48012  -0.47594
 Alpha  occ. eigenvalues --   -0.47119  -0.46882  -0.46783  -0.45607  -0.45323
 Alpha  occ. eigenvalues --   -0.45100  -0.44670  -0.44555  -0.44437  -0.43897
 Alpha  occ. eigenvalues --   -0.43657  -0.43256  -0.42822  -0.42413  -0.42369
 Alpha  occ. eigenvalues --   -0.42129  -0.41906  -0.41619  -0.41234  -0.41003
 Alpha  occ. eigenvalues --   -0.40935  -0.40281  -0.40039  -0.39862  -0.39794
 Alpha  occ. eigenvalues --   -0.39606  -0.39498  -0.39082  -0.38826  -0.38296
 Alpha  occ. eigenvalues --   -0.37989  -0.37787  -0.37536  -0.37198  -0.36933
 Alpha  occ. eigenvalues --   -0.35887  -0.35602  -0.35294  -0.33933  -0.33761
 Alpha  occ. eigenvalues --   -0.32931  -0.32928  -0.32864  -0.31715  -0.31625
 Alpha  occ. eigenvalues --   -0.30988  -0.30637  -0.28613  -0.28203  -0.27739
 Alpha  occ. eigenvalues --   -0.27308  -0.27039  -0.26928  -0.25581  -0.25111
 Alpha  occ. eigenvalues --   -0.23679  -0.23230  -0.22569  -0.21397  -0.18561
 Alpha virt. eigenvalues --   -0.10237  -0.06951  -0.06090  -0.02065  -0.00944
 Alpha virt. eigenvalues --   -0.00286   0.00384   0.00599   0.00690   0.01899
 Alpha virt. eigenvalues --    0.02590   0.03354   0.03615   0.04478   0.04795

 Mulliken charges:
               1
     1  O   -0.167631
     2  O   -0.231975
     3  O   -0.259613
     4  O   -0.231500
     5  O   -0.249969
     6  O   -0.260496
     7  N   -0.082764
     8  N   -0.179383
     9  N   -0.080479
    10  N   -0.330638
    11  C    0.047760
    12  C    0.313574
    13  C   -0.089915
    14  C   -0.113097
    15  C   -0.148824
    16  C    0.062138
    17  C   -0.064636
    18  C    0.230587
    19  C   -0.118068
    20  C   -0.153707
    21  C    0.134100
    22  C    0.130673
    23  C   -0.010374
    24  C    0.115509
    25  C   -0.017243
    26  C   -0.154879
    27  C   -0.055062
    28  C    0.014073
    29  C   -0.004553
    30  C   -0.063423
    31  C   -0.011125
    32  C    0.228487
    33  C   -0.165663
    34  C    0.183804
    35  C    0.154725
    36  C   -0.061155
    37  C    0.141942
    38  C    0.089525
    39  C   -0.220163
    40  C    0.240768
    41  C   -0.016727
    42  C    0.069581
    43  C    0.009991
    44  H    0.001935
    45  H   -0.013731
    46  H   -0.089151
    47  H    0.098198
    48  H    0.161650
    49  H    0.027463
    50  H    0.011635
    51  H    0.016707
    52  H   -0.053449
    53  H    0.014350
    54  H    0.057797
    55  H    0.042768
    56  H    0.062199
    57  H    0.045909
    58  H    0.031381
    59  H    0.011218
    60  H    0.155837
    61  H    0.023260
    62  H    0.020396
    63  H    0.074713
    64  H    0.039467
    65  H    0.033365
    66  H    0.001360
    67  H    0.008366
    68  H    0.015408
    69  H   -0.006207
    70  H    0.060184
    71  H    0.016336
    72  H    0.213454
    73  H   -0.028486
    74  H    0.008843
    75  H    0.048310
    76  H    0.032728
    77  H    0.258274
    78  H   -0.047186
    79  H    0.020524
 Sum of Mulliken charges =  -0.00000

 Dipole moment (field-independent basis, Debye):
    X=              1.2435    Y=              3.2531    Z=              3.7662  Tot=              5.1296
 Quadrupole moment (field-independent basis, Debye-Ang):
   XX=           -224.5874   YY=           -241.4643   ZZ=           -261.2435
   XY=            -19.8232   XZ=             30.1088   YZ=              5.2662

 Normal termination of Gaussian 16 at Fri Sep 13 20:41:38 2019.
