 Gaussian 16, Revision A.03,
 Gaussian 16:  ES64L-G16RevA.03 25-Dec-2016

 --------------------------
 # td=(NStates=1) B3LYP/SVP
 --------------------------

 --
 TD
 --
 Symbolic Z-matrix:
 Charge =  0 Multiplicity = 1

                         Standard orientation:
 ---------------------------------------------------------------------
 Center     Atomic      Atomic             Coordinates (Angstroms)
 Number     Number       Type             X           Y           Z
 ---------------------------------------------------------------------
      1          8           0       -3.292277   -1.013089   -2.962938
      2          8           0        3.176196    2.835575    3.177862
      3          8           0        3.647522    1.093339    4.470798
      4          8           0        7.754385   -1.351038   -0.726032
      5          8           0        6.840395   -2.622335   -2.419408
      6          8           0       -2.529119    1.510343    1.492335
      7          7           0       -0.252673   -2.465152    0.752428
      8          7           0       -2.643090   -1.187399   -0.715204
      9          7           0        1.147714    0.078945   -0.686929
     10          7           0       -0.914539    1.487665   -0.114692
     11          6           0       -3.388675   -1.328455    0.566268
     12          6           0       -2.614489   -2.419977    1.390765
     13          6           0       -1.263578   -2.142525    1.620149
     14          6           0       -0.754203   -1.372371    2.721773
     15          6           0        0.629287   -1.256498    2.429533
     16          6           0        0.887255   -2.042941    1.174514
     17          6           0       -4.724895   -1.740427    0.120040
     18          6           0        1.649645   -0.553742    3.356558
     19          6           0       -4.860955   -1.808497   -1.228219
     20          6           0        2.121815   -1.888409    0.387122
     21          6           0        2.114559   -0.878671   -0.609132
     22          6           0       -3.512630   -1.267111   -1.880001
     23          6           0        2.902976   -0.689995   -1.699198
     24          6           0       -1.531993   -0.800253    3.758740
     25          6           0       -5.809844   -2.058904    1.161486
     26          6           0        2.601764    0.425084   -2.372819
     27          6           0        1.857734    0.911323    2.875664
     28          6           0        1.334892    0.981455   -1.692661
     29          6           0        4.144136   -1.628285   -1.899423
     30          6           0       -5.900710   -2.255472   -2.157150
     31          6           0        5.340542   -1.145011   -1.096715
     32          6           0        3.289509    1.141973   -3.596806
     33          6           0        0.572890    2.073717   -1.957298
     34          6           0        3.007437    1.653448    3.570286
     35          6           0       -0.591496    2.284372   -1.119434
     36          6           0       -6.814897   -3.115897   -1.878082
     37          6           0        6.709962   -1.750269   -1.529972
     38          6           0       -1.393846    3.562664   -1.061335
     39          6           0       -2.227887    3.406747   -0.044333
     40          6           0       -1.969562    2.057117    0.617052
     41          6           0       -1.218621    4.647598   -1.993878
     42          6           0       -3.387398    4.270839    0.464374
     43          6           0       -1.880293    5.824909   -1.948111
     44          1           0       -3.416077   -0.426276    0.941461
     45          1           0       -2.876032   -3.465078    1.025730
     46          1           0       -3.270700   -2.700825    2.385666
     47          1           0       -0.220453   -3.016288   -0.092050
     48          1           0       -1.904835   -0.475500   -0.877481
     49          1           0        1.359167   -0.614603    4.332054
     50          1           0        2.638225   -0.932551    3.109493
     51          1           0        2.922844   -2.667093    0.217235
     52          1           0       -2.219490   -1.464975    4.136090
     53          1           0       -0.939424   -0.573116    4.742183
     54          1           0       -2.127746    0.207612    3.307524
     55          1           0       -5.872027   -1.452692    2.063866
     56          1           0       -5.889251   -3.102168    1.502984
     57          1           0       -6.662773   -1.756760    0.851234
     58          1           0        2.188326    1.057495    1.858277
     59          1           0        0.989852    1.450880    3.221063
     60          1           0        0.351124    0.073926   -0.122363
     61          1           0        4.504378   -1.474697   -3.115225
     62          1           0        3.843871   -2.793665   -1.646663
     63          1           0       -5.949630   -1.799206   -3.154017
     64          1           0        5.486055   -1.369177   -0.017413
     65          1           0        5.420011   -0.034118   -1.269867
     66          1           0        3.868268    0.371996   -4.235197
     67          1           0        3.975081    1.978048   -3.246610
     68          1           0        2.533687    1.809690   -4.316654
     69          1           0        0.631537    2.566511   -2.954124
     70          1           0       -6.943126   -3.991825   -0.896914
     71          1           0       -7.730424   -3.487247   -2.564144
     72          1           0        3.999156    3.119452    3.388354
     73          1           0       -0.507133    4.728978   -2.715249
     74          1           0       -3.955065    4.353259   -0.329906
     75          1           0       -3.740265    3.918179    1.330098
     76          1           0       -2.842345    5.306709    0.533171
     77          1           0        8.769975   -1.589477   -1.161753
     78          1           0       -1.923775    6.463519   -2.791967
     79          1           0       -2.540275    6.175069   -1.047603
 ---------------------------------------------------------------------

 SCF Done:  E(RB3LYP) =  -1947.74743129     A.U. after   16 cycles

 Excitation energies and oscillator strengths:

 Excited State   1:      Singlet-A      0.9996 eV 1240.32 nm  f=0.0006  <S**2>=0.000
     155 ->156         0.70294
 This state for optimization and/or second-order correction.
 Total Energy, E(TD-HF/TD-DFT) =  -1947.71069618
 Copying the excited state density for this state as the 1-particle RhoCI density.

 The electronic state is 1-A.
 Alpha  occ. eigenvalues --  -19.19725 -19.19125 -19.13572 -19.13146 -19.10363
 Alpha  occ. eigenvalues --  -19.10179 -14.37563 -14.36445 -14.31513 -14.30313
 Alpha  occ. eigenvalues --  -10.33227 -10.30402 -10.28602 -10.26854 -10.26315
 Alpha  occ. eigenvalues --  -10.25314 -10.24382 -10.24195 -10.24004 -10.23183
 Alpha  occ. eigenvalues --  -10.22950 -10.22395 -10.21362 -10.20990 -10.20818
 Alpha  occ. eigenvalues --  -10.20800 -10.20709 -10.20641 -10.20588 -10.20565
 Alpha  occ. eigenvalues --  -10.20379 -10.20025 -10.19596 -10.19244 -10.18892
 Alpha  occ. eigenvalues --  -10.18841 -10.18542 -10.18325 -10.17603 -10.17333
 Alpha  occ. eigenvalues --  -10.17321 -10.16985 -10.16381  -1.14002  -1.06994
 Alpha  occ. eigenvalues --   -1.06614  -1.05914  -1.00545  -0.98717  -0.98646
 Alpha  occ. eigenvalues --   -0.98517  -0.94199  -0.90368  -0.83755  -0.82233
 Alpha  occ. eigenvalues --   -0.81472  -0.79927  -0.79772  -0.78509  -0.78097
 Alpha  occ. eigenvalues --   -0.77124  -0.76071  -0.75759  -0.74353  -0.72036
 Alpha  occ. eigenvalues --   -0.71424  -0.70274  -0.69602  -0.68404  -0.68103
 Alpha  occ. eigenvalues --   -0.67312  -0.66354  -0.63523  -0.61685  -0.60772
 Alpha  occ. eigenvalues --   -0.59658  -0.59213  -0.58204  -0.57696  -0.56365
 Alpha  occ. eigenvalues --   -0.55864  -0.55391  -0.54625  -0.53485  -0.52956
 Alpha  occ. eigenvalues --   -0.52161  -0.50877  -0.50356  -0.49773  -0.49585
 Alpha  occ. eigenvalues --   -0.48927  -0.48474  -0.48416  -0.48279  -0.47342
 Alpha  occ. eigenvalues --   -0.47000  -0.46769  -0.46468  -0.45972  -0.45792
 Alpha  occ. eigenvalues --   -0.45612  -0.45290  -0.44913  -0.44737  -0.44229
 Alpha  occ. eigenvalues --   -0.43782  -0.43493  -0.43180  -0.42929  -0.42582
 Alpha  occ. eigenvalues --   -0.42333  -0.41962  -0.41905  -0.41745  -0.41455
 Alpha  occ. eigenvalues --   -0.41153  -0.40539  -0.40242  -0.39816  -0.39433
 Alpha  occ. eigenvalues --   -0.38963  -0.38875  -0.38671  -0.38452  -0.38225
 Alpha  occ. eigenvalues --   -0.37848  -0.37500  -0.37092  -0.36740  -0.36354
 Alpha  occ. eigenvalues --   -0.35637  -0.35574  -0.34808  -0.34592  -0.34071
 Alpha  occ. eigenvalues --   -0.33052  -0.32159  -0.32108  -0.31659  -0.31257
 Alpha  occ. eigenvalues --   -0.30875  -0.30138  -0.29575  -0.29092  -0.28106
 Alpha  occ. eigenvalues --   -0.27402  -0.25992  -0.25458  -0.25341  -0.23925
 Alpha  occ. eigenvalues --   -0.23769  -0.23010  -0.22149  -0.22045  -0.18239
 Alpha virt. eigenvalues --   -0.11985  -0.07496  -0.03139  -0.02225  -0.01556
 Alpha virt. eigenvalues --   -0.00353   0.01760   0.02286   0.02344   0.03670
 Alpha virt. eigenvalues --    0.03907   0.04465   0.04710   0.05448   0.05671

 Mulliken charges:
               1
     1  O   -0.124511
     2  O   -0.039675
     3  O   -0.271504
     4  O   -0.288558
     5  O   -0.255523
     6  O   -0.137205
     7  N    0.060954
     8  N   -0.323189
     9  N   -0.032950
    10  N   -0.298999
    11  C    0.280502
    12  C    0.051241
    13  C   -0.026061
    14  C   -0.056482
    15  C   -0.180048
    16  C   -0.080256
    17  C   -0.213704
    18  C    0.229188
    19  C   -0.072757
    20  C   -0.059147
    21  C    0.030033
    22  C    0.120101
    23  C   -0.054632
    24  C    0.061123
    25  C    0.171285
    26  C   -0.094530
    27  C   -0.004435
    28  C    0.125781
    29  C   -0.016784
    30  C    0.054622
    31  C    0.008842
    32  C   -0.002765
    33  C   -0.117731
    34  C    0.049746
    35  C    0.065661
    36  C   -0.151475
    37  C    0.161019
    38  C    0.099509
    39  C   -0.290778
    40  C    0.168945
    41  C    0.003743
    42  C    0.222458
    43  C   -0.063345
    44  H   -0.042676
    45  H   -0.019261
    46  H    0.002778
    47  H    0.112959
    48  H    0.130790
    49  H   -0.023166
    50  H   -0.020118
    51  H    0.007483
    52  H   -0.025347
    53  H    0.003923
    54  H    0.077787
    55  H   -0.008531
    56  H    0.028505
    57  H   -0.045822
    58  H    0.020571
    59  H    0.027322
    60  H    0.149999
    61  H    0.054853
    62  H    0.060001
    63  H    0.017751
    64  H    0.057291
    65  H    0.045394
    66  H    0.054232
    67  H    0.047746
    68  H    0.049341
    69  H    0.014883
    70  H    0.038064
    71  H    0.035866
    72  H    0.137846
    73  H   -0.041237
    74  H   -0.004550
    75  H   -0.004924
    76  H    0.039522
    77  H    0.261672
    78  H    0.019954
    79  H    0.031392
 Sum of Mulliken charges =  -0.00000

 Dipole moment (field-independent basis, Debye):
    X=              2.5308    Y=              4.1698    Z=             -2.1900  Tot=              5.3468
 Quadrupole moment (field-independent basis, Debye-Ang):
   XX=           -227.2390   YY=           -233.4467   ZZ=           -273.7524
   XY=             11.3040   XZ=            -20.3009   YZ=            -12.7238

 Normal termination of Gaussian 16 at Tue Jul 30 05:09:22 2019.
