 Gaussian 16, Revision A.03,
 Gaussian 16:  ES64L-G16RevA.03 25-Dec-2016

 --------------------------
 # td=(NStates=1) B3LYP/SVP
 --------------------------

 --
 TD
 --
 Symbolic Z-matrix:
 Charge =  0 Multiplicity = 1

                         Standard orientation:
 ---------------------------------------------------------------------
 Center     Atomic      Atomic             Coordinates (Angstroms)
 Number     Number       Type             X           Y           Z
 ---------------------------------------------------------------------
      1          8           0        5.467397   -0.123955   -3.210617
      2          8           0       -3.322753   -2.740850    3.031275
      3          8           0       -3.424702   -0.574604    3.003883
      4          8           0       -1.036432    7.029441    1.671051
      5          8           0       -0.327600    7.078430   -0.468561
      6          8           0       -2.059109   -4.021614    0.084744
      7          7           0        2.356370    0.752615    0.563324
      8          7           0        4.420430   -0.691494   -1.213913
      9          7           0       -1.829286    0.786583   -0.385115
     10          7           0       -2.660753   -1.807912   -0.527670
     11          6           0        4.792994   -1.322873    0.005655
     12          6           0        4.362106   -0.534870    1.259744
     13          6           0        2.854010   -0.163500    1.349297
     14          6           0        1.861071   -0.755371    2.181044
     15          6           0        0.576588   -0.102932    1.767564
     16          6           0        1.005777    0.907555    0.870438
     17          6           0        6.274227   -1.544002   -0.147514
     18          6           0       -0.719181   -0.180934    2.544326
     19          6           0        6.690525   -0.980243   -1.303821
     20          6           0        0.295597    1.941095    0.180361
     21          6           0       -0.934538    1.845898   -0.411239
     22          6           0        5.469487   -0.530903   -2.099392
     23          6           0       -1.678509    2.924302   -1.000914
     24          6           0        2.025853   -1.959135    3.097620
     25          6           0        7.010090   -2.273225    0.924722
     26          6           0       -2.883129    2.458687   -1.378964
     27          6           0       -1.256007   -1.644900    2.693304
     28          6           0       -2.966901    1.016183   -1.185642
     29          6           0       -1.129979    4.397384   -0.957913
     30          6           0        7.961170   -0.998936   -1.967444
     31          6           0       -1.444511    5.070767    0.456463
     32          6           0       -4.055971    3.254787   -1.970113
     33          6           0       -3.998099    0.070669   -1.452360
     34          6           0       -2.764966   -1.521381    2.950295
     35          6           0       -3.821673   -1.291541   -1.096202
     36          6           0        9.090206   -1.167842   -1.419449
     37          6           0       -0.829637    6.477442    0.473561
     38          6           0       -4.660606   -2.378725   -1.482628
     39          6           0       -4.137484   -3.553759   -1.201374
     40          6           0       -2.802959   -3.270073   -0.461778
     41          6           0       -6.033896   -2.114399   -1.941257
     42          6           0       -4.633133   -4.965592   -1.237632
     43          6           0       -6.917970   -3.115142   -2.512641
     44          1           0        4.216176   -2.167335   -0.076001
     45          1           0        4.959567    0.431442    1.053837
     46          1           0        4.732909   -0.782861    2.260687
     47          1           0        2.780932    1.287876   -0.157310
     48          1           0        3.449087   -0.654069   -1.618766
     49          1           0       -0.663466    0.265936    3.695908
     50          1           0       -1.432995    0.393415    2.236919
     51          1           0        0.653554    2.895586    0.049701
     52          1           0        2.964098   -2.459532    2.998463
     53          1           0        1.645734   -1.662945    4.070320
     54          1           0        1.515747   -2.752857    2.546598
     55          1           0        6.366334   -2.875260    1.604071
     56          1           0        7.380537   -1.394933    1.661113
     57          1           0        7.871285   -2.914227    0.410316
     58          1           0       -1.208371   -2.194187    1.707669
     59          1           0       -0.831042   -2.180365    3.646626
     60          1           0       -1.866349   -0.313143   -0.394681
     61          1           0       -1.658324    4.942817   -1.770493
     62          1           0       -0.123089    4.415159   -1.210501
     63          1           0        7.833595   -1.002271   -3.109283
     64          1           0       -0.914291    4.610300    1.427402
     65          1           0       -2.573036    4.869292    0.728452
     66          1           0       -3.596569    4.161140   -2.141907
     67          1           0       -5.000125    3.120356   -1.380392
     68          1           0       -4.292633    2.719794   -3.008952
     69          1           0       -4.855904    0.585080   -1.914127
     70          1           0        9.386707   -0.867794   -0.388765
     71          1           0        9.940065   -1.210731   -2.098702
     72          1           0       -4.421564   -3.008964    3.034933
     73          1           0       -6.377505   -1.204348   -1.914578
     74          1           0       -5.673894   -5.153113   -0.647066
     75          1           0       -4.701604   -5.329157   -2.187352
     76          1           0       -4.082166   -5.818062   -0.621987
     77          1           0       -0.539152    7.920033    1.781342
     78          1           0       -8.087043   -2.738583   -2.696374
     79          1           0       -6.782261   -4.353762   -2.684427
 ---------------------------------------------------------------------

 SCF Done:  E(RB3LYP) =  -1947.81509023     A.U. after   16 cycles

 Excitation energies and oscillator strengths:

 Excited State   1:      Singlet-A      2.0563 eV  602.96 nm  f=0.3859  <S**2>=0.000
     155 ->156         0.69514
 This state for optimization and/or second-order correction.
 Total Energy, E(TD-HF/TD-DFT) =  -1947.73952396
 Copying the excited state density for this state as the 1-particle RhoCI density.

 The electronic state is 1-A.
 Alpha  occ. eigenvalues --  -19.19415 -19.14843 -19.13403 -19.11762 -19.10374
 Alpha  occ. eigenvalues --  -19.10144 -14.38379 -14.35342 -14.34971 -14.29644
 Alpha  occ. eigenvalues --  -10.33174 -10.29216 -10.28148 -10.27503 -10.24474
 Alpha  occ. eigenvalues --  -10.23924 -10.23844 -10.23589 -10.23570 -10.23166
 Alpha  occ. eigenvalues --  -10.22918 -10.22592 -10.22528 -10.22076 -10.21811
 Alpha  occ. eigenvalues --  -10.21623 -10.21015 -10.20659 -10.20628 -10.20627
 Alpha  occ. eigenvalues --  -10.20380 -10.20339 -10.19959 -10.19850 -10.19799
 Alpha  occ. eigenvalues --  -10.19736 -10.19441 -10.19398 -10.19226 -10.19182
 Alpha  occ. eigenvalues --  -10.18843 -10.18567 -10.18295  -1.09918  -1.07530
 Alpha  occ. eigenvalues --   -1.04221  -1.03343  -1.00581  -0.99792  -0.97451
 Alpha  occ. eigenvalues --   -0.96889  -0.95239  -0.91138  -0.82532  -0.82244
 Alpha  occ. eigenvalues --   -0.81161  -0.80111  -0.79688  -0.79040  -0.77473
 Alpha  occ. eigenvalues --   -0.76980  -0.75928  -0.75387  -0.73901  -0.72220
 Alpha  occ. eigenvalues --   -0.71077  -0.71008  -0.69346  -0.69068  -0.68052
 Alpha  occ. eigenvalues --   -0.66168  -0.66041  -0.64189  -0.61212  -0.60437
 Alpha  occ. eigenvalues --   -0.60320  -0.58344  -0.58079  -0.57412  -0.57017
 Alpha  occ. eigenvalues --   -0.56171  -0.55647  -0.54582  -0.54008  -0.52630
 Alpha  occ. eigenvalues --   -0.51649  -0.51341  -0.50489  -0.50431  -0.49289
 Alpha  occ. eigenvalues --   -0.48442  -0.48361  -0.48087  -0.47984  -0.47648
 Alpha  occ. eigenvalues --   -0.47019  -0.46913  -0.46264  -0.45793  -0.45410
 Alpha  occ. eigenvalues --   -0.44959  -0.44518  -0.44343  -0.43865  -0.43654
 Alpha  occ. eigenvalues --   -0.43394  -0.43080  -0.42964  -0.42474  -0.42098
 Alpha  occ. eigenvalues --   -0.41970  -0.41712  -0.41187  -0.40997  -0.40850
 Alpha  occ. eigenvalues --   -0.40741  -0.40399  -0.40245  -0.40037  -0.39651
 Alpha  occ. eigenvalues --   -0.39539  -0.39172  -0.38790  -0.38242  -0.37988
 Alpha  occ. eigenvalues --   -0.37687  -0.37469  -0.36849  -0.36720  -0.36026
 Alpha  occ. eigenvalues --   -0.35903  -0.35701  -0.34800  -0.34710  -0.33745
 Alpha  occ. eigenvalues --   -0.33662  -0.33269  -0.32958  -0.32457  -0.32312
 Alpha  occ. eigenvalues --   -0.30630  -0.29866  -0.28922  -0.28037  -0.27955
 Alpha  occ. eigenvalues --   -0.26487  -0.26049  -0.25829  -0.25796  -0.24477
 Alpha  occ. eigenvalues --   -0.24182  -0.24097  -0.23358  -0.22173  -0.19344
 Alpha virt. eigenvalues --   -0.11007  -0.06467  -0.04800  -0.01807  -0.01407
 Alpha virt. eigenvalues --    0.01059   0.01735   0.02030   0.02351   0.02856
 Alpha virt. eigenvalues --    0.03859   0.04244   0.04330   0.04452   0.05060

 Mulliken charges:
               1
     1  O   -0.181353
     2  O   -0.299807
     3  O   -0.168173
     4  O   -0.203268
     5  O   -0.236207
     6  O   -0.155723
     7  N    0.004288
     8  N   -0.251768
     9  N   -0.143465
    10  N   -0.386329
    11  C    0.213686
    12  C    0.136679
    13  C   -0.098997
    14  C   -0.212744
    15  C   -0.049304
    16  C    0.084235
    17  C   -0.183108
    18  C    0.142239
    19  C   -0.072952
    20  C   -0.071436
    21  C    0.101630
    22  C    0.128551
    23  C   -0.112661
    24  C    0.152883
    25  C    0.026324
    26  C   -0.156097
    27  C   -0.073966
    28  C    0.032593
    29  C    0.149011
    30  C   -0.014946
    31  C   -0.105127
    32  C    0.118549
    33  C   -0.079444
    34  C    0.111045
    35  C    0.155294
    36  C   -0.038502
    37  C    0.173884
    38  C    0.066410
    39  C   -0.173967
    40  C    0.180248
    41  C    0.045712
    42  C    0.028560
    43  C   -0.126072
    44  H   -0.027233
    45  H   -0.010237
    46  H    0.013810
    47  H    0.104959
    48  H    0.140313
    49  H    0.014603
    50  H   -0.059996
    51  H   -0.055195
    52  H   -0.022527
    53  H    0.038414
    54  H    0.030966
    55  H    0.024208
    56  H    0.054240
    57  H    0.071473
    58  H    0.088282
    59  H    0.052768
    60  H    0.178563
    61  H    0.024882
    62  H   -0.001250
    63  H    0.034371
    64  H    0.064193
    65  H    0.079637
    66  H   -0.009949
    67  H    0.046155
    68  H    0.035257
    69  H   -0.016141
    70  H    0.028474
    71  H    0.015086
    72  H    0.248918
    73  H   -0.067206
    74  H    0.034652
    75  H    0.015452
    76  H    0.038299
    77  H    0.212319
    78  H    0.047297
    79  H    0.075735
 Sum of Mulliken charges =  -0.00000

 Dipole moment (field-independent basis, Debye):
    X=             -0.0392    Y=              1.3732    Z=              3.0116  Tot=              3.3101
 Quadrupole moment (field-independent basis, Debye-Ang):
   XX=           -225.1627   YY=           -241.8429   ZZ=           -263.4357
   XY=             -2.9981   XZ=             28.9369   YZ=              8.8569

 Normal termination of Gaussian 16 at Thu Oct 10 18:59:30 2019.
