 Gaussian 16, Revision A.03,
 Gaussian 16:  ES64L-G16RevA.03 25-Dec-2016

 --------------------------
 # td=(NStates=1) B3LYP/SVP
 --------------------------

 --
 TD
 --
 Symbolic Z-matrix:
 Charge =  0 Multiplicity = 1

                         Standard orientation:
 ---------------------------------------------------------------------
 Center     Atomic      Atomic             Coordinates (Angstroms)
 Number     Number       Type             X           Y           Z
 ---------------------------------------------------------------------
      1          8           0       -3.103887   -1.652104   -2.692183
      2          8           0        2.747248    3.490487    2.770198
      3          8           0        3.517276    1.902115    4.215479
      4          8           0        7.769667   -1.372335   -0.592478
      5          8           0        6.696765   -3.127681   -1.621177
      6          8           0       -2.673566    1.752627    1.308669
      7          7           0       -0.334688   -2.338884    1.224563
      8          7           0       -2.701023   -1.194980   -0.381186
      9          7           0        1.110593   -0.151741   -0.725723
     10          7           0       -1.022367    1.403208   -0.308743
     11          6           0       -3.448501   -1.249513    0.825761
     12          6           0       -2.681229   -2.022041    1.838664
     13          6           0       -1.210494   -1.778507    2.028616
     14          6           0       -0.583270   -0.910200    2.938475
     15          6           0        0.774199   -0.971919    2.635119
     16          6           0        0.918424   -1.833432    1.464174
     17          6           0       -4.723301   -1.843296    0.401370
     18          6           0        1.901847   -0.026324    3.114364
     19          6           0       -4.746347   -2.075544   -0.980347
     20          6           0        2.073029   -1.965782    0.630683
     21          6           0        2.109030   -1.113482   -0.510013
     22          6           0       -3.413860   -1.595500   -1.549068
     23          6           0        3.091635   -0.947043   -1.562537
     24          6           0       -1.211454    0.047798    3.916628
     25          6           0       -5.935118   -2.021899    1.349327
     26          6           0        2.582148    0.196022   -2.489255
     27          6           0        1.827369    1.379185    2.509767
     28          6           0        1.352485    0.603383   -1.851629
     29          6           0        4.293286   -1.783776   -1.904681
     30          6           0       -5.707345   -2.576956   -1.896589
     31          6           0        5.497038   -1.142957   -1.130241
     32          6           0        3.219391    0.719293   -3.759404
     33          6           0        0.517395    1.754932   -2.147233
     34          6           0        2.777768    2.334382    3.255741
     35          6           0       -0.633082    2.134900   -1.334099
     36          6           0       -6.859524   -3.337464   -1.651107
     37          6           0        6.727436   -2.069393   -1.057312
     38          6           0       -1.416667    3.312754   -1.569090
     39          6           0       -2.358906    3.333474   -0.504323
     40          6           0       -1.955782    2.105092    0.366136
     41          6           0       -1.206565    4.204401   -2.767433
     42          6           0       -3.327932    4.249203    0.002590
     43          6           0       -1.875725    5.380104   -2.979346
     44          1           0       -3.734403   -0.412139    1.333034
     45          1           0       -2.722403   -3.215727    1.660803
     46          1           0       -3.229840   -1.839413    2.665075
     47          1           0       -0.534119   -2.864600    0.385348
     48          1           0       -1.894501   -0.589159   -0.734064
     49          1           0        2.029223   -0.187565    4.240508
     50          1           0        2.847373   -0.697457    2.878957
     51          1           0        2.871796   -2.677810    0.809694
     52          1           0       -2.248877   -0.485115    4.263274
     53          1           0       -0.553964    0.220363    4.642338
     54          1           0       -1.398639    0.983535    3.394125
     55          1           0       -6.062808   -1.206074    2.084362
     56          1           0       -5.954557   -2.909438    1.894592
     57          1           0       -6.840894   -2.214583    0.796470
     58          1           0        2.155723    1.382624    1.243618
     59          1           0        0.843297    1.790399    2.657945
     60          1           0        0.281622   -0.066365   -0.026060
     61          1           0        4.545341   -1.775131   -2.796532
     62          1           0        4.099096   -2.785694   -1.561574
     63          1           0       -5.460937   -2.428118   -2.963872
     64          1           0        5.244112   -1.005711    0.029443
     65          1           0        5.861021   -0.152725   -1.458720
     66          1           0        3.929446   -0.059360   -4.143732
     67          1           0        3.577459    1.661019   -3.815670
     68          1           0        2.456974    0.905991   -4.494315
     69          1           0        0.803942    2.290380   -3.089735
     70          1           0       -7.107474   -3.686427   -0.763342
     71          1           0       -7.572999   -3.703514   -2.340885
     72          1           0        3.464161    3.928396    3.240411
     73          1           0       -0.297539    3.837595   -3.273617
     74          1           0       -4.150624    4.339499   -0.855032
     75          1           0       -3.777953    3.877067    0.899264
     76          1           0       -2.807718    5.127801    0.263721
     77          1           0        8.660848   -1.882735   -0.608213
     78          1           0       -1.857285    5.981253   -3.819312
     79          1           0       -2.663788    5.611488   -2.210978
 ---------------------------------------------------------------------

 SCF Done:  E(RB3LYP) =  -1947.83176549     A.U. after   19 cycles

 Excitation energies and oscillator strengths:

 Excited State   1:      Singlet-A      1.0451 eV 1186.33 nm  f=0.0108  <S**2>=0.000
     155 ->156         0.69823
 This state for optimization and/or second-order correction.
 Total Energy, E(TD-HF/TD-DFT) =  -1947.79335846
 Copying the excited state density for this state as the 1-particle RhoCI density.

 The electronic state is 1-A.
 Alpha  occ. eigenvalues --  -19.21154 -19.20399 -19.13804 -19.11445 -19.11429
 Alpha  occ. eigenvalues --  -19.09319 -14.37515 -14.37329 -14.32617 -14.29738
 Alpha  occ. eigenvalues --  -10.33099 -10.32059 -10.27194 -10.26649 -10.26512
 Alpha  occ. eigenvalues --  -10.25801 -10.24561 -10.24149 -10.23792 -10.23179
 Alpha  occ. eigenvalues --  -10.22510 -10.21666 -10.21328 -10.21225 -10.21182
 Alpha  occ. eigenvalues --  -10.21064 -10.20655 -10.20630 -10.20617 -10.20485
 Alpha  occ. eigenvalues --  -10.20424 -10.20138 -10.19811 -10.19661 -10.18985
 Alpha  occ. eigenvalues --  -10.18979 -10.18860 -10.18733 -10.18065 -10.17427
 Alpha  occ. eigenvalues --  -10.17288 -10.17241 -10.16385  -1.14507  -1.10496
 Alpha  occ. eigenvalues --   -1.02616  -1.02453  -1.01853  -0.98810  -0.97612
 Alpha  occ. eigenvalues --   -0.97436  -0.93966  -0.92327  -0.82711  -0.81664
 Alpha  occ. eigenvalues --   -0.80453  -0.79828  -0.79285  -0.78687  -0.77607
 Alpha  occ. eigenvalues --   -0.76861  -0.76032  -0.75199  -0.73655  -0.73141
 Alpha  occ. eigenvalues --   -0.71083  -0.70144  -0.69848  -0.69461  -0.68389
 Alpha  occ. eigenvalues --   -0.67707  -0.66236  -0.63026  -0.61154  -0.60927
 Alpha  occ. eigenvalues --   -0.60416  -0.60120  -0.59276  -0.57892  -0.56199
 Alpha  occ. eigenvalues --   -0.55978  -0.54704  -0.54460  -0.53661  -0.52908
 Alpha  occ. eigenvalues --   -0.52791  -0.51471  -0.50625  -0.50570  -0.50477
 Alpha  occ. eigenvalues --   -0.50280  -0.49038  -0.48979  -0.48462  -0.47809
 Alpha  occ. eigenvalues --   -0.47390  -0.46921  -0.46109  -0.45923  -0.45614
 Alpha  occ. eigenvalues --   -0.45367  -0.45101  -0.44715  -0.44477  -0.43893
 Alpha  occ. eigenvalues --   -0.43215  -0.42916  -0.42588  -0.42363  -0.41933
 Alpha  occ. eigenvalues --   -0.41764  -0.41624  -0.41366  -0.41154  -0.40988
 Alpha  occ. eigenvalues --   -0.40719  -0.40485  -0.40318  -0.39998  -0.39917
 Alpha  occ. eigenvalues --   -0.39524  -0.39282  -0.39086  -0.38800  -0.38472
 Alpha  occ. eigenvalues --   -0.38377  -0.38113  -0.37982  -0.37403  -0.37351
 Alpha  occ. eigenvalues --   -0.35758  -0.35555  -0.35375  -0.34910  -0.34613
 Alpha  occ. eigenvalues --   -0.34159  -0.33987  -0.32261  -0.31182  -0.30770
 Alpha  occ. eigenvalues --   -0.30524  -0.29767  -0.29117  -0.28831  -0.28252
 Alpha  occ. eigenvalues --   -0.26879  -0.25292  -0.25059  -0.24652  -0.24012
 Alpha  occ. eigenvalues --   -0.23334  -0.22385  -0.21605  -0.21370  -0.19116
 Alpha virt. eigenvalues --   -0.12723  -0.07849  -0.04715  -0.01684  -0.00704
 Alpha virt. eigenvalues --   -0.00322   0.01725   0.01993   0.02836   0.03091
 Alpha virt. eigenvalues --    0.03856   0.04449   0.04667   0.04916   0.05634

 Mulliken charges:
               1
     1  O   -0.194666
     2  O   -0.055002
     3  O   -0.313212
     4  O   -0.208914
     5  O   -0.210407
     6  O   -0.237294
     7  N    0.023264
     8  N   -0.285174
     9  N   -0.152830
    10  N   -0.256123
    11  C    0.260731
    12  C    0.205845
    13  C   -0.128807
    14  C   -0.156288
    15  C   -0.122561
    16  C   -0.064250
    17  C   -0.197864
    18  C    0.069185
    19  C   -0.045191
    20  C   -0.065295
    21  C    0.095300
    22  C    0.127902
    23  C   -0.158573
    24  C    0.157643
    25  C    0.133610
    26  C   -0.143984
    27  C   -0.019948
    28  C    0.122570
    29  C    0.331608
    30  C   -0.034322
    31  C   -0.122638
    32  C    0.159685
    33  C   -0.119977
    34  C    0.110603
    35  C    0.103427
    36  C    0.011441
    37  C    0.153647
    38  C   -0.000893
    39  C   -0.250572
    40  C    0.168840
    41  C    0.021348
    42  C    0.115680
    43  C   -0.000336
    44  H   -0.014337
    45  H   -0.010956
    46  H   -0.069659
    47  H    0.113205
    48  H    0.159524
    49  H    0.031527
    50  H   -0.000360
    51  H    0.009588
    52  H    0.020497
    53  H   -0.029747
    54  H    0.037450
    55  H    0.022693
    56  H   -0.000262
    57  H   -0.000132
    58  H    0.085679
    59  H    0.037406
    60  H    0.231471
    61  H   -0.083897
    62  H    0.015717
    63  H    0.011140
    64  H    0.055648
    65  H    0.046862
    66  H    0.034393
    67  H   -0.004359
    68  H    0.008553
    69  H   -0.010475
    70  H   -0.037159
    71  H    0.008224
    72  H    0.171633
    73  H   -0.013243
    74  H    0.055057
    75  H    0.014036
    76  H    0.029244
    77  H    0.214097
    78  H    0.010013
    79  H    0.023722
 Sum of Mulliken charges =  -0.00000

 Dipole moment (field-independent basis, Debye):
    X=              4.8050    Y=              2.6831    Z=             -1.2149  Tot=              5.6359
 Quadrupole moment (field-independent basis, Debye-Ang):
   XX=           -221.3102   YY=           -239.6441   ZZ=           -266.3058
   XY=              4.8605   XZ=            -22.9718   YZ=            -12.8916

 Normal termination of Gaussian 16 at Tue Jul 30 03:55:40 2019.
