 Gaussian 16, Revision A.03,
 Gaussian 16:  ES64L-G16RevA.03 25-Dec-2016

 --------------------------
 # td=(NStates=1) B3LYP/SVP
 --------------------------

 --
 TD
 --
 Symbolic Z-matrix:
 Charge =  0 Multiplicity = 1

                         Standard orientation:
 ---------------------------------------------------------------------
 Center     Atomic      Atomic             Coordinates (Angstroms)
 Number     Number       Type             X           Y           Z
 ---------------------------------------------------------------------
      1          8           0        5.550896    0.219268   -3.257432
      2          8           0       -3.063941   -3.063490    2.992996
      3          8           0       -3.243665   -0.811438    3.132187
      4          8           0       -1.232204    7.145054    1.562575
      5          8           0       -0.653667    6.933331   -0.589189
      6          8           0       -1.767009   -3.970718   -0.137989
      7          7           0        2.302620    0.935406    0.613756
      8          7           0        4.386790   -0.473579   -1.281721
      9          7           0       -1.858325    0.708437   -0.371590
     10          7           0       -2.531286   -1.805459   -0.686971
     11          6           0        4.771236   -1.150925    0.008555
     12          6           0        4.357772   -0.268747    1.214889
     13          6           0        2.887395   -0.067253    1.364034
     14          6           0        1.904167   -0.757762    2.172316
     15          6           0        0.667184   -0.124334    1.806878
     16          6           0        0.888729    0.872545    0.919292
     17          6           0        6.300680   -1.356361   -0.086608
     18          6           0       -0.649701   -0.315420    2.556692
     19          6           0        6.719523   -0.910598   -1.335735
     20          6           0        0.089909    1.998840    0.413745
     21          6           0       -1.049908    1.820047   -0.152700
     22          6           0        5.532189   -0.323110   -2.057067
     23          6           0       -1.960323    2.892983   -0.838026
     24          6           0        2.049513   -1.850960    3.196030
     25          6           0        7.043041   -2.117243    1.011932
     26          6           0       -3.085623    2.436373   -1.215844
     27          6           0       -1.288501   -1.707150    2.455360
     28          6           0       -3.123087    0.962745   -0.913060
     29          6           0       -1.536083    4.407388   -0.922701
     30          6           0        7.965590   -0.831263   -2.036005
     31          6           0       -1.757500    5.157365    0.426531
     32          6           0       -4.315855    3.169521   -1.845634
     33          6           0       -3.931202    0.000787   -1.283217
     34          6           0       -2.631847   -1.814484    2.863700
     35          6           0       -3.656278   -1.433255   -1.149698
     36          6           0        9.218411   -0.994122   -1.581772
     37          6           0       -1.198749    6.431341    0.426331
     38          6           0       -4.599338   -2.600533   -1.528826
     39          6           0       -4.017697   -3.686385   -1.134769
     40          6           0       -2.620436   -3.289848   -0.608652
     41          6           0       -5.875443   -2.361685   -2.096527
     42          6           0       -4.363446   -5.129773   -1.156515
     43          6           0       -6.793083   -3.276598   -2.582231
     44          1           0        4.442634   -2.116744   -0.092644
     45          1           0        4.777562    0.630491    1.185065
     46          1           0        4.872129   -0.774831    2.201220
     47          1           0        2.632615    1.548146   -0.216461
     48          1           0        3.423549   -0.662913   -1.958996
     49          1           0       -0.816353   -0.044758    3.535927
     50          1           0       -1.412568    0.395577    2.086702
     51          1           0        0.767881    2.827575    0.147838
     52          1           0        3.164569   -1.881891    3.334927
     53          1           0        1.820789   -1.591465    4.159425
     54          1           0        1.687834   -2.797326    2.878277
     55          1           0        6.323943   -2.787370    1.550724
     56          1           0        7.482033   -1.457062    1.739134
     57          1           0        7.954589   -2.606232    0.500634
     58          1           0       -1.185495   -2.210275    1.470055
     59          1           0       -0.865071   -2.274471    3.368709
     60          1           0       -1.663573   -0.319149   -0.023152
     61          1           0       -1.922039    4.847808   -1.591854
     62          1           0       -0.495321    4.351355   -1.016261
     63          1           0        7.920615   -0.549814   -3.032521
     64          1           0       -1.526974    4.545324    1.314663
     65          1           0       -2.907159    5.179337    0.703655
     66          1           0       -4.056635    4.195529   -1.775761
     67          1           0       -5.200586    2.487394   -1.354101
     68          1           0       -4.536578    3.019509   -2.908795
     69          1           0       -4.758552    0.291500   -1.863644
     70          1           0        9.555131   -1.454024   -0.477921
     71          1           0       10.176071   -0.920911   -2.249381
     72          1           0       -4.031138   -2.769331    3.258841
     73          1           0       -6.013795   -1.485968   -2.370285
     74          1           0       -5.257549   -5.195680   -0.452042
     75          1           0       -4.586948   -5.171304   -2.325897
     76          1           0       -3.508990   -5.704360   -0.791151
     77          1           0       -0.737303    7.967159    1.319745
     78          1           0       -7.570713   -3.089555   -3.155806
     79          1           0       -6.417895   -4.283746   -2.502568
 ---------------------------------------------------------------------

 SCF Done:  E(RB3LYP) =  -1947.75219473     A.U. after   18 cycles

 Excitation energies and oscillator strengths:

 Excited State   1:      Singlet-A      2.0230 eV  612.88 nm  f=0.2454  <S**2>=0.000
     155 ->156         0.70602
 This state for optimization and/or second-order correction.
 Total Energy, E(TD-HF/TD-DFT) =  -1947.67785176
 Copying the excited state density for this state as the 1-particle RhoCI density.

 The electronic state is 1-A.
 Alpha  occ. eigenvalues --  -19.18748 -19.18693 -19.13725 -19.11970 -19.11258
 Alpha  occ. eigenvalues --  -19.09126 -14.37546 -14.36569 -14.35437 -14.30886
 Alpha  occ. eigenvalues --  -10.31933 -10.29975 -10.28937 -10.28375 -10.24729
 Alpha  occ. eigenvalues --  -10.24675 -10.24078 -10.23432 -10.23139 -10.22578
 Alpha  occ. eigenvalues --  -10.22010 -10.21503 -10.21427 -10.21364 -10.21293
 Alpha  occ. eigenvalues --  -10.21248 -10.21132 -10.20968 -10.20592 -10.20440
 Alpha  occ. eigenvalues --  -10.20105 -10.19979 -10.19857 -10.19742 -10.19630
 Alpha  occ. eigenvalues --  -10.19298 -10.18674 -10.18492 -10.18492 -10.18220
 Alpha  occ. eigenvalues --  -10.18212 -10.17865 -10.17728  -1.10099  -1.09846
 Alpha  occ. eigenvalues --   -1.05443  -1.00300  -0.98574  -0.97657  -0.96524
 Alpha  occ. eigenvalues --   -0.95433  -0.93958  -0.90987  -0.83440  -0.82497
 Alpha  occ. eigenvalues --   -0.81766  -0.81405  -0.80220  -0.79045  -0.78739
 Alpha  occ. eigenvalues --   -0.77684  -0.77001  -0.76482  -0.75092  -0.72170
 Alpha  occ. eigenvalues --   -0.71333  -0.71168  -0.70810  -0.69038  -0.68629
 Alpha  occ. eigenvalues --   -0.66868  -0.66282  -0.64363  -0.61863  -0.59864
 Alpha  occ. eigenvalues --   -0.59578  -0.59358  -0.57129  -0.56536  -0.56328
 Alpha  occ. eigenvalues --   -0.56180  -0.55505  -0.55046  -0.53620  -0.52734
 Alpha  occ. eigenvalues --   -0.52331  -0.51694  -0.51426  -0.50460  -0.49889
 Alpha  occ. eigenvalues --   -0.49309  -0.49113  -0.48882  -0.48453  -0.48186
 Alpha  occ. eigenvalues --   -0.47528  -0.47127  -0.46726  -0.46631  -0.46111
 Alpha  occ. eigenvalues --   -0.45972  -0.45537  -0.44658  -0.44386  -0.44054
 Alpha  occ. eigenvalues --   -0.43851  -0.43697  -0.43301  -0.43050  -0.42704
 Alpha  occ. eigenvalues --   -0.42242  -0.42056  -0.42008  -0.41670  -0.41235
 Alpha  occ. eigenvalues --   -0.40843  -0.40629  -0.40504  -0.40028  -0.39761
 Alpha  occ. eigenvalues --   -0.39343  -0.38766  -0.38718  -0.38454  -0.38358
 Alpha  occ. eigenvalues --   -0.37571  -0.37103  -0.37089  -0.37049  -0.36481
 Alpha  occ. eigenvalues --   -0.36352  -0.36091  -0.35733  -0.35396  -0.34947
 Alpha  occ. eigenvalues --   -0.33739  -0.33570  -0.32441  -0.31969  -0.31492
 Alpha  occ. eigenvalues --   -0.31462  -0.30720  -0.29980  -0.29681  -0.27857
 Alpha  occ. eigenvalues --   -0.26756  -0.26419  -0.25724  -0.25648  -0.24789
 Alpha  occ. eigenvalues --   -0.24296  -0.24133  -0.23856  -0.23017  -0.18777
 Alpha virt. eigenvalues --   -0.10287  -0.06325  -0.05327  -0.01613  -0.01221
 Alpha virt. eigenvalues --   -0.00569   0.01610   0.02252   0.02445   0.03166
 Alpha virt. eigenvalues --    0.03676   0.03951   0.04470   0.05059   0.05372

 Mulliken charges:
               1
     1  O   -0.326697
     2  O   -0.195942
     3  O   -0.246946
     4  O   -0.175968
     5  O   -0.290549
     6  O   -0.144075
     7  N   -0.167510
     8  N   -0.291277
     9  N   -0.188106
    10  N   -0.271481
    11  C    0.130947
    12  C    0.217555
    13  C   -0.054849
    14  C   -0.162829
    15  C   -0.038904
    16  C    0.009589
    17  C   -0.195059
    18  C    0.094056
    19  C   -0.001944
    20  C   -0.155576
    21  C    0.251233
    22  C    0.174937
    23  C   -0.190454
    24  C    0.183375
    25  C    0.085469
    26  C   -0.085876
    27  C   -0.023024
    28  C    0.144615
    29  C    0.339266
    30  C    0.048531
    31  C   -0.048007
    32  C    0.090868
    33  C   -0.091704
    34  C    0.088897
    35  C    0.052331
    36  C   -0.120984
    37  C    0.163477
    38  C    0.105678
    39  C   -0.267403
    40  C    0.174077
    41  C    0.030443
    42  C    0.073893
    43  C    0.065463
    44  H   -0.000994
    45  H   -0.052385
    46  H    0.016879
    47  H    0.162798
    48  H    0.204402
    49  H   -0.032864
    50  H    0.003298
    51  H   -0.003252
    52  H   -0.030314
    53  H   -0.009545
    54  H    0.034002
    55  H    0.036731
    56  H    0.033713
    57  H    0.050966
    58  H    0.076886
    59  H    0.033314
    60  H    0.197065
    61  H   -0.107977
    62  H   -0.016849
    63  H   -0.009757
    64  H    0.040535
    65  H    0.054017
    66  H    0.014551
    67  H    0.051910
    68  H    0.025006
    69  H   -0.054179
    70  H    0.031727
    71  H    0.047149
    72  H    0.192957
    73  H   -0.121913
    74  H    0.054457
    75  H    0.070511
    76  H    0.038164
    77  H    0.191909
    78  H   -0.012493
    79  H    0.000040
 Sum of Mulliken charges =  -0.00000

 Dipole moment (field-independent basis, Debye):
    X=             -2.1882    Y=             -1.4776    Z=              2.5938  Tot=              3.7013
 Quadrupole moment (field-independent basis, Debye-Ang):
   XX=           -222.6016   YY=           -248.6390   ZZ=           -261.6393
   XY=             -7.2496   XZ=             37.4230   YZ=              7.5721

 Normal termination of Gaussian 16 at Wed Oct  9 21:18:27 2019.
