 Gaussian 16, Revision A.03,
 Gaussian 16:  ES64L-G16RevA.03 25-Dec-2016

 --------------------------
 # td=(NStates=1) B3LYP/SVP
 --------------------------

 --
 TD
 --
 Symbolic Z-matrix:
 Charge =  0 Multiplicity = 1

                         Standard orientation:
 ---------------------------------------------------------------------
 Center     Atomic      Atomic             Coordinates (Angstroms)
 Number     Number       Type             X           Y           Z
 ---------------------------------------------------------------------
      1          8           0        5.378722   -0.101097   -3.235135
      2          8           0       -3.159704   -2.778397    2.976585
      3          8           0       -3.249241   -0.602415    3.142259
      4          8           0       -1.241451    7.179737    1.498980
      5          8           0       -0.605933    6.985401   -0.630198
      6          8           0       -1.910730   -4.062501   -0.000320
      7          7           0        2.482788    1.053602    0.540580
      8          7           0        4.480035   -0.560374   -1.192704
      9          7           0       -1.881514    0.634251   -0.463138
     10          7           0       -2.693984   -1.880792   -0.480766
     11          6           0        4.854162   -1.201030    0.056139
     12          6           0        4.464417   -0.322757    1.262870
     13          6           0        3.065228   -0.034323    1.264832
     14          6           0        2.010097   -0.631003    2.087947
     15          6           0        0.760011    0.070746    1.729321
     16          6           0        1.065289    1.008568    0.816441
     17          6           0        6.353075   -1.489144   -0.213644
     18          6           0       -0.452657   -0.191381    2.515865
     19          6           0        6.777896   -0.973457   -1.421920
     20          6           0        0.154121    1.936214    0.142875
     21          6           0       -1.174954    1.891093   -0.251361
     22          6           0        5.489185   -0.484018   -2.073864
     23          6           0       -2.026420    2.831292   -0.889433
     24          6           0        2.223354   -1.680808    3.086485
     25          6           0        7.099554   -2.148552    0.920752
     26          6           0       -3.249928    2.267038   -1.230706
     27          6           0       -1.173116   -1.533679    2.432876
     28          6           0       -3.119952    0.879389   -0.923308
     29          6           0       -1.568352    4.307055   -1.007308
     30          6           0        8.020927   -0.821006   -1.909909
     31          6           0       -1.754449    5.157931    0.417550
     32          6           0       -4.402756    2.927824   -1.872711
     33          6           0       -4.073922   -0.084297   -1.219232
     34          6           0       -2.568720   -1.570913    2.886801
     35          6           0       -3.820930   -1.465895   -1.053458
     36          6           0        9.287228   -0.886621   -1.410957
     37          6           0       -1.165649    6.531788    0.227458
     38          6           0       -4.751761   -2.607418   -1.396771
     39          6           0       -4.105083   -3.742921   -1.052334
     40          6           0       -2.742902   -3.342918   -0.434668
     41          6           0       -5.963532   -2.394805   -1.997821
     42          6           0       -4.370904   -5.181259   -1.103375
     43          6           0       -6.810228   -3.312869   -2.312929
     44          1           0        4.388821   -2.149779    0.014241
     45          1           0        5.170481    0.490583    1.208261
     46          1           0        4.407791   -1.000398    2.079846
     47          1           0        2.746101    1.352889   -0.451004
     48          1           0        3.683106   -0.573416   -1.633342
     49          1           0       -0.384838    0.067120    3.620666
     50          1           0       -1.254601    0.754855    2.355874
     51          1           0        0.492557    2.899151   -0.188732
     52          1           0        3.358353   -1.732127    3.450698
     53          1           0        1.493197   -1.589017    3.946931
     54          1           0        2.089373   -2.794374    2.619028
     55          1           0        6.567172   -3.136243    1.108113
     56          1           0        7.137701   -1.477408    1.877943
     57          1           0        8.221571   -2.377873    0.563251
     58          1           0       -1.044917   -1.996734    1.468535
     59          1           0       -0.641362   -2.305197    2.905543
     60          1           0       -1.622273   -0.372634   -0.255064
     61          1           0       -2.059440    4.844469   -1.841480
     62          1           0       -0.504897    4.193708   -1.146068
     63          1           0        7.939339   -0.749261   -3.077180
     64          1           0       -1.211937    4.620264    1.127306
     65          1           0       -2.785087    5.057132    0.733938
     66          1           0       -4.333843    3.995226   -1.983966
     67          1           0       -5.314112    2.757189   -1.205481
     68          1           0       -4.921250    2.624043   -2.782049
     69          1           0       -5.019446   -0.041119   -1.776576
     70          1           0        9.237599   -1.095561   -0.333792
     71          1           0       10.122919   -0.474290   -2.036882
     72          1           0       -3.997383   -2.669724    3.392638
     73          1           0       -6.050159   -1.364904   -2.203469
     74          1           0       -5.177167   -5.282903   -0.571203
     75          1           0       -4.355303   -5.293068   -2.142326
     76          1           0       -3.529161   -5.661836   -0.569194
     77          1           0       -0.838020    8.073254    1.340269
     78          1           0       -7.836890   -3.096370   -2.641840
     79          1           0       -6.548540   -4.435452   -2.253638
 ---------------------------------------------------------------------

 SCF Done:  E(RB3LYP) =  -1947.86864850     A.U. after   17 cycles

 Excitation energies and oscillator strengths:

 Excited State   1:      Singlet-A      2.1705 eV  571.22 nm  f=0.4761  <S**2>=0.000
     154 ->156         0.13247
     155 ->156         0.68854
     155 <-156        -0.10375
 This state for optimization and/or second-order correction.
 Total Energy, E(TD-HF/TD-DFT) =  -1947.78888415
 Copying the excited state density for this state as the 1-particle RhoCI density.

 The electronic state is 1-A.
 Alpha  occ. eigenvalues --  -19.16298 -19.16251 -19.14970 -19.11624 -19.10694
 Alpha  occ. eigenvalues --  -19.09718 -14.38585 -14.35537 -14.34908 -14.28545
 Alpha  occ. eigenvalues --  -10.32291 -10.30623 -10.28365 -10.26656 -10.25010
 Alpha  occ. eigenvalues --  -10.24479 -10.24068 -10.24050 -10.23858 -10.23094
 Alpha  occ. eigenvalues --  -10.22728 -10.22394 -10.22372 -10.22231 -10.21568
 Alpha  occ. eigenvalues --  -10.21458 -10.21255 -10.21207 -10.20882 -10.20776
 Alpha  occ. eigenvalues --  -10.20700 -10.20342 -10.20238 -10.20221 -10.20099
 Alpha  occ. eigenvalues --  -10.19883 -10.19206 -10.18997 -10.18735 -10.18688
 Alpha  occ. eigenvalues --  -10.18432 -10.18398 -10.16877  -1.12539  -1.08995
 Alpha  occ. eigenvalues --   -1.03753  -1.02965  -1.00841  -0.98635  -0.97282
 Alpha  occ. eigenvalues --   -0.96236  -0.94975  -0.90975  -0.83658  -0.82768
 Alpha  occ. eigenvalues --   -0.82303  -0.81810  -0.81600  -0.80304  -0.77766
 Alpha  occ. eigenvalues --   -0.77595  -0.77337  -0.76598  -0.75023  -0.73088
 Alpha  occ. eigenvalues --   -0.71872  -0.71640  -0.70201  -0.69178  -0.68247
 Alpha  occ. eigenvalues --   -0.67348  -0.66462  -0.64092  -0.62979  -0.60853
 Alpha  occ. eigenvalues --   -0.59739  -0.58418  -0.58101  -0.57827  -0.56798
 Alpha  occ. eigenvalues --   -0.56057  -0.55690  -0.55183  -0.54534  -0.53649
 Alpha  occ. eigenvalues --   -0.52783  -0.51499  -0.51305  -0.50966  -0.50343
 Alpha  occ. eigenvalues --   -0.50004  -0.49449  -0.49103  -0.48672  -0.47548
 Alpha  occ. eigenvalues --   -0.47333  -0.47186  -0.46980  -0.46449  -0.46323
 Alpha  occ. eigenvalues --   -0.46222  -0.45274  -0.44645  -0.44251  -0.44109
 Alpha  occ. eigenvalues --   -0.43711  -0.43567  -0.43066  -0.42718  -0.42667
 Alpha  occ. eigenvalues --   -0.42457  -0.42260  -0.42199  -0.41744  -0.41586
 Alpha  occ. eigenvalues --   -0.41197  -0.40887  -0.40302  -0.40126  -0.39913
 Alpha  occ. eigenvalues --   -0.39709  -0.39192  -0.38944  -0.38651  -0.38625
 Alpha  occ. eigenvalues --   -0.38453  -0.38045  -0.37852  -0.37643  -0.37401
 Alpha  occ. eigenvalues --   -0.37303  -0.37127  -0.35990  -0.35369  -0.35012
 Alpha  occ. eigenvalues --   -0.34735  -0.34418  -0.32735  -0.31784  -0.31099
 Alpha  occ. eigenvalues --   -0.30797  -0.30658  -0.30139  -0.29124  -0.28064
 Alpha  occ. eigenvalues --   -0.27047  -0.26557  -0.25787  -0.25416  -0.25075
 Alpha  occ. eigenvalues --   -0.23947  -0.23647  -0.23480  -0.22020  -0.19176
 Alpha virt. eigenvalues --   -0.10585  -0.07032  -0.06243  -0.01272   0.00353
 Alpha virt. eigenvalues --    0.00750   0.01135   0.01592   0.02506   0.03044
 Alpha virt. eigenvalues --    0.03980   0.04280   0.05141   0.05667   0.05974

 Mulliken charges:
               1
     1  O   -0.236949
     2  O   -0.163040
     3  O   -0.237722
     4  O   -0.272670
     5  O   -0.107769
     6  O   -0.163233
     7  N   -0.157116
     8  N   -0.102778
     9  N   -0.119515
    10  N   -0.338000
    11  C    0.074798
    12  C    0.365856
    13  C   -0.123490
    14  C   -0.098810
    15  C   -0.010521
    16  C    0.099675
    17  C   -0.218200
    18  C   -0.062963
    19  C    0.055573
    20  C   -0.054883
    21  C    0.091082
    22  C    0.091360
    23  C   -0.108304
    24  C   -0.017727
    25  C    0.009792
    26  C   -0.085888
    27  C    0.104160
    28  C    0.194086
    29  C    0.069982
    30  C   -0.130010
    31  C    0.023622
    32  C    0.097982
    33  C   -0.114067
    34  C    0.109993
    35  C    0.009584
    36  C   -0.012035
    37  C    0.139412
    38  C    0.088718
    39  C   -0.318110
    40  C    0.174478
    41  C    0.023055
    42  C    0.235286
    43  C   -0.050408
    44  H   -0.001188
    45  H   -0.003870
    46  H   -0.044409
    47  H    0.153812
    48  H    0.073863
    49  H    0.022464
    50  H    0.043422
    51  H   -0.031015
    52  H    0.040515
    53  H    0.045229
    54  H    0.054630
    55  H    0.042405
    56  H    0.064179
    57  H    0.051668
    58  H    0.036085
    59  H   -0.015460
    60  H    0.162425
    61  H    0.027980
    62  H    0.008357
    63  H    0.026058
    64  H    0.021906
    65  H    0.043018
    66  H    0.001876
    67  H    0.017803
    68  H    0.019254
    69  H   -0.038725
    70  H    0.007536
    71  H    0.052467
    72  H    0.163170
    73  H   -0.058136
    74  H   -0.012743
    75  H    0.027711
    76  H    0.019411
    77  H    0.175263
    78  H    0.019565
    79  H    0.029188
 Sum of Mulliken charges =  -0.00000

 Dipole moment (field-independent basis, Debye):
    X=              0.2217    Y=              0.7297    Z=              2.6804  Tot=              2.7868
 Quadrupole moment (field-independent basis, Debye-Ang):
   XX=           -226.0929   YY=           -246.9207   ZZ=           -264.1658
   XY=             -9.2972   XZ=             32.9771   YZ=             -4.1715

 Normal termination of Gaussian 16 at Tue Oct  8 11:44:10 2019.
