 Gaussian 16, Revision A.03,
 Gaussian 16:  ES64L-G16RevA.03 25-Dec-2016

 --------------------------
 # td=(NStates=1) B3LYP/SVP
 --------------------------

 --
 TD
 --
 Symbolic Z-matrix:
 Charge =  0 Multiplicity = 1

                         Standard orientation:
 ---------------------------------------------------------------------
 Center     Atomic      Atomic             Coordinates (Angstroms)
 Number     Number       Type             X           Y           Z
 ---------------------------------------------------------------------
      1          8           0       -3.429964   -1.331768   -2.994044
      2          8           0        3.372552    2.884340    3.049727
      3          8           0        3.693749    1.105994    4.541740
      4          8           0        7.656586   -1.752352   -0.770608
      5          8           0        6.490114   -3.019480   -2.269015
      6          8           0       -2.459098    1.593366    1.657191
      7          7           0       -0.296971   -2.335695    0.725801
      8          7           0       -2.757834   -1.162803   -0.659987
      9          7           0        1.294908    0.159756   -0.564767
     10          7           0       -1.005250    1.543105   -0.129929
     11          6           0       -3.419894   -1.310102    0.571158
     12          6           0       -2.619805   -2.347506    1.475599
     13          6           0       -1.244907   -2.016560    1.670378
     14          6           0       -0.537090   -1.311348    2.824665
     15          6           0        0.805801   -1.286496    2.466837
     16          6           0        1.022096   -1.904415    1.202780
     17          6           0       -4.795537   -1.919815    0.233164
     18          6           0        1.947066   -0.580792    3.187544
     19          6           0       -4.928261   -1.964618   -1.090977
     20          6           0        2.166179   -1.866415    0.206733
     21          6           0        2.191632   -0.792297   -0.652291
     22          6           0       -3.633569   -1.463964   -1.728214
     23          6           0        3.024440   -0.531911   -1.765745
     24          6           0       -1.225477   -0.504303    3.951233
     25          6           0       -5.784798   -2.303237    1.401869
     26          6           0        2.509676    0.633937   -2.412703
     27          6           0        2.106838    0.873568    2.622427
     28          6           0        1.474943    1.130010   -1.572766
     29          6           0        4.139239   -1.305850   -2.209238
     30          6           0       -5.943875   -2.512753   -1.964264
     31          6           0        5.469309   -0.982938   -1.402658
     32          6           0        3.004625    1.179131   -3.730265
     33          6           0        0.592204    2.146449   -1.908606
     34          6           0        3.142042    1.610358    3.527252
     35          6           0       -0.601896    2.407865   -1.076783
     36          6           0       -7.121417   -3.221461   -1.735185
     37          6           0        6.573685   -1.991560   -1.563276
     38          6           0       -1.430820    3.644302   -1.095735
     39          6           0       -2.356121    3.409646    0.001245
     40          6           0       -2.044390    2.210816    0.667938
     41          6           0       -1.267053    4.686380   -2.092121
     42          6           0       -3.319326    4.352610    0.480879
     43          6           0       -2.076627    5.804614   -2.288321
     44          1           0       -3.479430   -0.386834    1.265963
     45          1           0       -2.582486   -3.280998    0.886387
     46          1           0       -3.188315   -2.314356    2.546385
     47          1           0       -0.384077   -2.676815   -0.171600
     48          1           0       -1.766329   -0.635495   -0.808395
     49          1           0        1.701390   -0.437422    4.186924
     50          1           0        2.882405   -1.108606    2.902293
     51          1           0        2.817717   -2.782116    0.239676
     52          1           0       -2.202410   -1.059463    4.308829
     53          1           0       -0.700259   -0.424412    4.996944
     54          1           0       -1.567260    0.506598    3.499822
     55          1           0       -5.856978   -1.287657    2.161827
     56          1           0       -5.543033   -3.286468    1.780309
     57          1           0       -6.687714   -2.264025    0.819675
     58          1           0        2.589161    0.847645    1.495616
     59          1           0        1.144769    1.377246    2.613999
     60          1           0        0.422148    0.144504   -0.031894
     61          1           0        4.206532   -1.572319   -3.386390
     62          1           0        3.984773   -2.209342   -1.892797
     63          1           0       -5.757824   -2.291689   -2.920350
     64          1           0        5.185584   -1.096663   -0.347297
     65          1           0        5.788196   -0.031376   -1.574028
     66          1           0        3.677861    0.398353   -4.332555
     67          1           0        3.645283    2.053497   -3.320924
     68          1           0        2.047807    1.348516   -4.282637
     69          1           0        0.592968    2.624864   -2.856043
     70          1           0       -7.296882   -3.540100   -0.803496
     71          1           0       -7.746299   -3.645090   -2.548359
     72          1           0        4.014601    3.308127    3.483216
     73          1           0       -0.601171    4.509561   -2.769004
     74          1           0       -4.086139    4.586271   -0.343508
     75          1           0       -3.797056    3.953029    1.369908
     76          1           0       -2.993188    5.468104    0.725550
     77          1           0        8.342434   -2.345480   -0.888341
     78          1           0       -2.068797    6.504100   -2.960034
     79          1           0       -2.886925    5.946920   -1.578746
 ---------------------------------------------------------------------

 SCF Done:  E(RB3LYP) =  -1947.81310122     A.U. after   22 cycles

 Excitation energies and oscillator strengths:

 Excited State   1:      Singlet-A      0.5105 eV 2428.74 nm  f=0.0004  <S**2>=0.000
     155 ->156         0.70336
 This state for optimization and/or second-order correction.
 Total Energy, E(TD-HF/TD-DFT) =  -1947.79434116
 Copying the excited state density for this state as the 1-particle RhoCI density.

 The electronic state is 1-A.
 Alpha  occ. eigenvalues --  -19.19140 -19.17656 -19.13699 -19.13557 -19.12707
 Alpha  occ. eigenvalues --  -19.08660 -14.37013 -14.36844 -14.34831 -14.30909
 Alpha  occ. eigenvalues --  -10.33843 -10.32522 -10.28992 -10.27859 -10.26210
 Alpha  occ. eigenvalues --  -10.25332 -10.24734 -10.23412 -10.23032 -10.22617
 Alpha  occ. eigenvalues --  -10.22383 -10.22264 -10.22220 -10.22127 -10.21847
 Alpha  occ. eigenvalues --  -10.21723 -10.21451 -10.21393 -10.21274 -10.21226
 Alpha  occ. eigenvalues --  -10.20854 -10.20794 -10.20787 -10.20753 -10.20666
 Alpha  occ. eigenvalues --  -10.20002 -10.19455 -10.19008 -10.18259 -10.18096
 Alpha  occ. eigenvalues --  -10.18054 -10.17897 -10.17411  -1.10298  -1.08699
 Alpha  occ. eigenvalues --   -1.03269  -1.00723  -1.00344  -0.99100  -0.97656
 Alpha  occ. eigenvalues --   -0.94846  -0.92746  -0.91558  -0.84370  -0.82928
 Alpha  occ. eigenvalues --   -0.81788  -0.80337  -0.79827  -0.79256  -0.78326
 Alpha  occ. eigenvalues --   -0.77304  -0.75234  -0.74968  -0.74079  -0.73305
 Alpha  occ. eigenvalues --   -0.71355  -0.70422  -0.69827  -0.69021  -0.67426
 Alpha  occ. eigenvalues --   -0.66686  -0.66010  -0.64121  -0.63168  -0.62006
 Alpha  occ. eigenvalues --   -0.60867  -0.60083  -0.59438  -0.57917  -0.56805
 Alpha  occ. eigenvalues --   -0.56464  -0.55698  -0.55543  -0.53559  -0.52424
 Alpha  occ. eigenvalues --   -0.52051  -0.51892  -0.51353  -0.50066  -0.49924
 Alpha  occ. eigenvalues --   -0.49366  -0.48928  -0.48428  -0.48252  -0.48075
 Alpha  occ. eigenvalues --   -0.47639  -0.47109  -0.46748  -0.46292  -0.46066
 Alpha  occ. eigenvalues --   -0.45928  -0.45107  -0.44626  -0.44414  -0.44286
 Alpha  occ. eigenvalues --   -0.43549  -0.43092  -0.42914  -0.42788  -0.42348
 Alpha  occ. eigenvalues --   -0.42295  -0.41825  -0.41072  -0.40994  -0.40893
 Alpha  occ. eigenvalues --   -0.40391  -0.40122  -0.39761  -0.39478  -0.39305
 Alpha  occ. eigenvalues --   -0.39106  -0.38990  -0.38530  -0.38302  -0.37916
 Alpha  occ. eigenvalues --   -0.37399  -0.37144  -0.36789  -0.36493  -0.36278
 Alpha  occ. eigenvalues --   -0.35987  -0.35761  -0.35198  -0.35072  -0.34348
 Alpha  occ. eigenvalues --   -0.34012  -0.33399  -0.33056  -0.32103  -0.31973
 Alpha  occ. eigenvalues --   -0.31692  -0.30542  -0.29748  -0.29258  -0.28838
 Alpha  occ. eigenvalues --   -0.27695  -0.26563  -0.26233  -0.24241  -0.23753
 Alpha  occ. eigenvalues --   -0.23695  -0.23339  -0.22732  -0.21602  -0.18023
 Alpha virt. eigenvalues --   -0.13844  -0.09010  -0.04739  -0.02896  -0.01716
 Alpha virt. eigenvalues --   -0.00839   0.00596   0.01575   0.02415   0.03420
 Alpha virt. eigenvalues --    0.04058   0.04424   0.05048   0.05290   0.05629

 Mulliken charges:
               1
     1  O   -0.304614
     2  O   -0.150574
     3  O   -0.262433
     4  O   -0.159560
     5  O   -0.255602
     6  O   -0.193909
     7  N   -0.095547
     8  N   -0.253746
     9  N   -0.057154
    10  N   -0.328082
    11  C    0.026962
    12  C    0.143120
    13  C   -0.075851
    14  C   -0.080790
    15  C   -0.123093
    16  C   -0.073835
    17  C   -0.179691
    18  C    0.219149
    19  C   -0.011530
    20  C   -0.161791
    21  C    0.138497
    22  C    0.196814
    23  C   -0.102844
    24  C   -0.017747
    25  C    0.065092
    26  C   -0.167133
    27  C   -0.104198
    28  C    0.168932
    29  C    0.187391
    30  C    0.003757
    31  C    0.030837
    32  C    0.050487
    33  C   -0.103922
    34  C    0.179905
    35  C    0.055630
    36  C    0.015924
    37  C    0.149595
    38  C    0.071237
    39  C   -0.160994
    40  C    0.202887
    41  C    0.035218
    42  C    0.025774
    43  C    0.075422
    44  H    0.060243
    45  H   -0.022415
    46  H    0.027658
    47  H    0.089777
    48  H    0.186807
    49  H   -0.015669
    50  H    0.002154
    51  H    0.035330
    52  H    0.004859
    53  H    0.028927
    54  H    0.075499
    55  H    0.058656
    56  H    0.053763
    57  H    0.025278
    58  H    0.070199
    59  H    0.051186
    60  H    0.176938
    61  H    0.052583
    62  H   -0.073970
    63  H   -0.043580
    64  H    0.044936
    65  H    0.012134
    66  H    0.050697
    67  H    0.062792
    68  H    0.055791
    69  H   -0.008258
    70  H   -0.029248
    71  H    0.032967
    72  H    0.131816
    73  H   -0.085290
    74  H    0.043539
    75  H    0.024305
    76  H    0.048430
    77  H    0.160556
    78  H   -0.017256
    79  H    0.009878
 Sum of Mulliken charges =  -0.00000

 Dipole moment (field-independent basis, Debye):
    X=              2.9221    Y=              4.8147    Z=             -1.7692  Tot=              5.9034
 Quadrupole moment (field-independent basis, Debye-Ang):
   XX=           -233.3933   YY=           -231.5883   ZZ=           -274.3918
   XY=              1.6062   XZ=            -22.0733   YZ=            -14.8704

 Normal termination of Gaussian 16 at Fri Jul 26 16:42:48 2019.
