 Gaussian 16, Revision A.03,
 Gaussian 16:  ES64L-G16RevA.03 25-Dec-2016

 --------------------------
 # td=(NStates=1) B3LYP/SVP
 --------------------------

 --
 TD
 --
 Symbolic Z-matrix:
 Charge =  0 Multiplicity = 1

                         Standard orientation:
 ---------------------------------------------------------------------
 Center     Atomic      Atomic             Coordinates (Angstroms)
 Number     Number       Type             X           Y           Z
 ---------------------------------------------------------------------
      1          8           0        5.219359   -0.329136   -3.278308
      2          8           0       -3.063922   -3.089383    3.169114
      3          8           0       -3.381740   -0.901540    2.985480
      4          8           0       -1.325510    7.311627    1.527323
      5          8           0        0.005058    6.797212   -0.360592
      6          8           0       -2.010705   -3.936641   -0.048600
      7          7           0        2.388681    0.861523    0.706141
      8          7           0        4.254558   -0.854643   -1.170016
      9          7           0       -1.746658    0.730281   -0.502104
     10          7           0       -2.724917   -1.773464   -0.483163
     11          6           0        4.723726   -1.451278    0.015821
     12          6           0        4.389164   -0.512170    1.260323
     13          6           0        2.951965   -0.170248    1.411299
     14          6           0        1.958779   -0.751363    2.127317
     15          6           0        0.650833   -0.137429    1.748233
     16          6           0        1.015998    0.906719    0.904561
     17          6           0        6.198676   -1.507488   -0.191692
     18          6           0       -0.667684   -0.344285    2.440504
     19          6           0        6.494014   -1.006380   -1.424205
     20          6           0        0.238592    1.853896    0.297893
     21          6           0       -1.028012    1.897545   -0.237710
     22          6           0        5.269100   -0.755057   -2.212513
     23          6           0       -1.709362    3.059103   -0.862262
     24          6           0        2.143044   -1.942644    2.961878
     25          6           0        7.069480   -1.921050    0.920197
     26          6           0       -2.997136    2.550874   -1.138181
     27          6           0       -1.137374   -1.809058    2.477001
     28          6           0       -2.963721    1.128607   -1.031435
     29          6           0       -1.325438    4.540396   -0.874500
     30          6           0        7.848530   -0.760815   -2.104332
     31          6           0       -1.466256    5.103965    0.543871
     32          6           0       -4.154593    3.180112   -1.892533
     33          6           0       -3.999592    0.119532   -1.277642
     34          6           0       -2.604629   -1.824348    2.903714
     35          6           0       -3.746765   -1.285880   -1.090126
     36          6           0        9.063174   -0.820548   -1.611514
     37          6           0       -0.771024    6.486658    0.533879
     38          6           0       -4.757603   -2.310486   -1.512516
     39          6           0       -4.030594   -3.558805   -1.215328
     40          6           0       -2.888743   -3.201491   -0.441722
     41          6           0       -6.003180   -2.057591   -2.118732
     42          6           0       -4.484845   -4.972520   -1.201525
     43          6           0       -6.929039   -2.962225   -2.520181
     44          1           0        4.170207   -2.267596    0.512794
     45          1           0        5.044264    0.351353    1.350250
     46          1           0        4.801102   -1.128267    1.994962
     47          1           0        2.831367    1.409994   -0.043204
     48          1           0        3.234210   -0.926594   -1.459868
     49          1           0       -0.368905    0.008999    3.513937
     50          1           0       -1.324598    0.075474    1.944607
     51          1           0        0.606439    3.025151   -0.132109
     52          1           0        3.131559   -1.817233    3.518731
     53          1           0        1.337586   -1.566458    3.823710
     54          1           0        1.747986   -2.994617    2.708798
     55          1           0        6.570375   -2.539583    1.683644
     56          1           0        7.536823   -1.012426    1.447012
     57          1           0        8.039440   -2.419588    0.502330
     58          1           0       -1.112703   -2.299580    1.530749
     59          1           0       -0.810143   -2.433464    3.121802
     60          1           0       -1.493043   -0.225054   -0.113034
     61          1           0       -1.882665    5.060970   -1.807670
     62          1           0       -0.276725    4.721960   -1.194258
     63          1           0        7.885330   -0.646557   -3.187592
     64          1           0       -1.027356    4.647967    1.494362
     65          1           0       -2.546270    4.996284    0.691366
     66          1           0       -3.734298    4.138716   -2.464969
     67          1           0       -5.130972    3.209023   -1.165406
     68          1           0       -4.431530    2.256474   -2.652893
     69          1           0       -4.956873    0.533793   -1.680187
     70          1           0        9.263940   -1.142859   -0.454567
     71          1           0        9.862630   -0.841576   -2.298191
     72          1           0       -4.076196   -2.965014    3.390519
     73          1           0       -6.174568   -1.120619   -2.218262
     74          1           0       -5.430111   -4.946180   -0.711739
     75          1           0       -4.686833   -5.300680   -2.117032
     76          1           0       -3.590729   -5.538214   -0.883048
     77          1           0       -1.071443    8.228037    1.394824
     78          1           0       -8.008188   -2.615029   -2.817361
     79          1           0       -6.767989   -4.065486   -2.561410
 ---------------------------------------------------------------------

 SCF Done:  E(RB3LYP) =  -1947.78908466     A.U. after   17 cycles

 Excitation energies and oscillator strengths:

 Excited State   1:      Singlet-A      1.8929 eV  654.99 nm  f=0.3949  <S**2>=0.000
     154 ->156         0.18991
     155 ->156         0.68048
     155 <-156        -0.11302
 This state for optimization and/or second-order correction.
 Total Energy, E(TD-HF/TD-DFT) =  -1947.71952150
 Copying the excited state density for this state as the 1-particle RhoCI density.

 The electronic state is 1-A.
 Alpha  occ. eigenvalues --  -19.19370 -19.16292 -19.15106 -19.11576 -19.10943
 Alpha  occ. eigenvalues --  -19.10263 -14.37844 -14.36358 -14.34919 -14.27920
 Alpha  occ. eigenvalues --  -10.34208 -10.30041 -10.28657 -10.25447 -10.24649
 Alpha  occ. eigenvalues --  -10.24548 -10.24167 -10.23083 -10.22932 -10.22753
 Alpha  occ. eigenvalues --  -10.22664 -10.22439 -10.22427 -10.22414 -10.22238
 Alpha  occ. eigenvalues --  -10.22184 -10.22018 -10.21142 -10.21010 -10.20812
 Alpha  occ. eigenvalues --  -10.20559 -10.20340 -10.20090 -10.20080 -10.19737
 Alpha  occ. eigenvalues --  -10.19648 -10.19387 -10.19094 -10.19017 -10.18963
 Alpha  occ. eigenvalues --  -10.18895 -10.17509 -10.16784  -1.08964  -1.06986
 Alpha  occ. eigenvalues --   -1.06632  -1.02135  -1.01759  -0.98570  -0.97584
 Alpha  occ. eigenvalues --   -0.97203  -0.94548  -0.91770  -0.82435  -0.82293
 Alpha  occ. eigenvalues --   -0.81701  -0.81470  -0.80310  -0.79593  -0.77915
 Alpha  occ. eigenvalues --   -0.77679  -0.76843  -0.76188  -0.74671  -0.72158
 Alpha  occ. eigenvalues --   -0.71472  -0.70669  -0.69036  -0.68649  -0.67982
 Alpha  occ. eigenvalues --   -0.67689  -0.65878  -0.64037  -0.61064  -0.60189
 Alpha  occ. eigenvalues --   -0.59715  -0.58759  -0.57584  -0.57050  -0.56638
 Alpha  occ. eigenvalues --   -0.55756  -0.55438  -0.54960  -0.54306  -0.53372
 Alpha  occ. eigenvalues --   -0.52448  -0.52146  -0.51392  -0.50732  -0.49946
 Alpha  occ. eigenvalues --   -0.49361  -0.48796  -0.48178  -0.47615  -0.47347
 Alpha  occ. eigenvalues --   -0.47015  -0.46483  -0.46399  -0.46277  -0.45418
 Alpha  occ. eigenvalues --   -0.44944  -0.44872  -0.44313  -0.44198  -0.43974
 Alpha  occ. eigenvalues --   -0.43594  -0.43047  -0.42852  -0.42597  -0.42485
 Alpha  occ. eigenvalues --   -0.42147  -0.41645  -0.41522  -0.41349  -0.41197
 Alpha  occ. eigenvalues --   -0.40913  -0.40734  -0.40450  -0.40193  -0.39826
 Alpha  occ. eigenvalues --   -0.39632  -0.39493  -0.39327  -0.39050  -0.38549
 Alpha  occ. eigenvalues --   -0.37785  -0.37611  -0.37403  -0.37047  -0.36876
 Alpha  occ. eigenvalues --   -0.36311  -0.35901  -0.35120  -0.34519  -0.34437
 Alpha  occ. eigenvalues --   -0.34068  -0.33890  -0.33692  -0.33244  -0.31481
 Alpha  occ. eigenvalues --   -0.30863  -0.30348  -0.29939  -0.29071  -0.27203
 Alpha  occ. eigenvalues --   -0.27170  -0.26378  -0.25926  -0.25653  -0.24726
 Alpha  occ. eigenvalues --   -0.23944  -0.23757  -0.23311  -0.21072  -0.18490
 Alpha virt. eigenvalues --   -0.10881  -0.07267  -0.05602  -0.02375  -0.00410
 Alpha virt. eigenvalues --    0.00609   0.01247   0.02131   0.02538   0.02850
 Alpha virt. eigenvalues --    0.03844   0.04023   0.04420   0.04849   0.05186

 Mulliken charges:
               1
     1  O   -0.128627
     2  O   -0.241912
     3  O   -0.237564
     4  O   -0.217109
     5  O   -0.221771
     6  O   -0.206401
     7  N   -0.070493
     8  N   -0.265005
     9  N   -0.107700
    10  N   -0.259176
    11  C    0.074227
    12  C    0.205795
    13  C   -0.033666
    14  C   -0.150177
    15  C   -0.159808
    16  C    0.129960
    17  C   -0.116769
    18  C    0.279419
    19  C   -0.072705
    20  C   -0.122760
    21  C   -0.015490
    22  C    0.161535
    23  C   -0.075394
    24  C    0.014321
    25  C    0.031190
    26  C   -0.111258
    27  C    0.112338
    28  C    0.087602
    29  C    0.033743
    30  C    0.007059
    31  C   -0.021623
    32  C   -0.034148
    33  C   -0.119943
    34  C    0.105513
    35  C    0.103845
    36  C   -0.055138
    37  C    0.195614
    38  C    0.009246
    39  C   -0.238393
    40  C    0.159698
    41  C    0.094143
    42  C    0.196331
    43  C   -0.059219
    44  H    0.011151
    45  H   -0.017901
    46  H   -0.055434
    47  H    0.122098
    48  H    0.140571
    49  H    0.045883
    50  H   -0.111745
    51  H    0.026851
    52  H    0.023059
    53  H    0.014409
    54  H    0.073907
    55  H    0.033223
    56  H    0.049084
    57  H    0.054050
    58  H    0.045212
    59  H   -0.053188
    60  H    0.168587
    61  H    0.047723
    62  H    0.038034
    63  H    0.009339
    64  H    0.070436
    65  H    0.042204
    66  H    0.054244
    67  H    0.062929
    68  H    0.058824
    69  H   -0.012692
    70  H    0.024174
    71  H    0.015773
    72  H    0.206307
    73  H   -0.115386
    74  H    0.019631
    75  H   -0.029781
    76  H    0.029365
    77  H    0.180154
    78  H    0.041588
    79  H    0.027984
 Sum of Mulliken charges =  -0.00000

 Dipole moment (field-independent basis, Debye):
    X=              0.8547    Y=              3.1990    Z=              2.6198  Tot=              4.2223
 Quadrupole moment (field-independent basis, Debye-Ang):
   XX=           -223.1686   YY=           -237.6810   ZZ=           -261.4589
   XY=            -14.8415   XZ=             27.3452   YZ=              2.1690

 Normal termination of Gaussian 16 at Fri Oct  4 15:48:22 2019.
