 Gaussian 16, Revision A.03,
 Gaussian 16:  ES64L-G16RevA.03 25-Dec-2016

 --------------------------
 # td=(NStates=1) B3LYP/SVP
 --------------------------

 --
 TD
 --
 Symbolic Z-matrix:
 Charge =  0 Multiplicity = 1

                         Standard orientation:
 ---------------------------------------------------------------------
 Center     Atomic      Atomic             Coordinates (Angstroms)
 Number     Number       Type             X           Y           Z
 ---------------------------------------------------------------------
      1          8           0       -3.137983   -1.718109   -2.723447
      2          8           0        3.134333    3.640039    2.641973
      3          8           0        3.526878    1.998890    4.333553
      4          8           0        7.670286   -1.724053   -0.661436
      5          8           0        6.482714   -3.403069   -1.515001
      6          8           0       -2.532826    1.723673    1.312010
      7          7           0       -0.184828   -2.315153    1.234473
      8          7           0       -2.673838   -1.262104   -0.521464
      9          7           0        1.112478    0.072429   -0.738791
     10          7           0       -1.058407    1.363376   -0.419317
     11          6           0       -3.272044   -1.255426    0.757498
     12          6           0       -2.617326   -2.204034    1.805132
     13          6           0       -1.166615   -1.815839    1.965076
     14          6           0       -0.544082   -0.883278    2.885347
     15          6           0        0.819817   -0.854807    2.601962
     16          6           0        1.004065   -1.651839    1.473234
     17          6           0       -4.614056   -1.912128    0.474765
     18          6           0        1.919714    0.055563    3.193248
     19          6           0       -4.654403   -2.197664   -0.805958
     20          6           0        2.178590   -1.773289    0.519021
     21          6           0        2.031771   -0.881051   -0.643906
     22          6           0       -3.444299   -1.728153   -1.577280
     23          6           0        3.025136   -0.879679   -1.782630
     24          6           0       -1.254568   -0.031212    3.889924
     25          6           0       -5.647382   -2.041350    1.569680
     26          6           0        2.587529    0.217145   -2.491682
     27          6           0        1.898730    1.529424    2.592150
     28          6           0        1.371171    0.751554   -1.955684
     29          6           0        4.195742   -1.673604   -1.852346
     30          6           0       -5.757058   -2.789638   -1.632209
     31          6           0        5.419543   -1.201132   -1.082381
     32          6           0        3.097136    0.713955   -3.841343
     33          6           0        0.420469    1.739054   -2.307443
     34          6           0        2.932467    2.387338    3.326420
     35          6           0       -0.662939    2.143664   -1.500097
     36          6           0       -6.866899   -3.486405   -1.277685
     37          6           0        6.524785   -2.233261   -1.182159
     38          6           0       -1.534701    3.313927   -1.608065
     39          6           0       -2.372720    3.283487   -0.483462
     40          6           0       -2.038718    2.128493    0.256169
     41          6           0       -1.454561    4.296552   -2.716797
     42          6           0       -3.446525    4.168618   -0.133370
     43          6           0       -2.040448    5.508915   -2.681219
     44          1           0       -3.403388   -0.269704    1.101352
     45          1           0       -2.801185   -3.324161    1.590991
     46          1           0       -3.101723   -2.204986    2.838344
     47          1           0       -0.418317   -2.917825    0.426635
     48          1           0       -1.869646   -0.662985   -0.757297
     49          1           0        1.973341    0.303030    4.325772
     50          1           0        2.727177   -0.505515    2.936744
     51          1           0        2.929282   -2.650210    0.579634
     52          1           0       -2.295075   -0.461374    4.090505
     53          1           0       -0.530049    0.110499    4.824638
     54          1           0       -1.489044    1.031488    3.502959
     55          1           0       -5.333505   -1.549967    2.601138
     56          1           0       -5.738721   -3.067032    2.030974
     57          1           0       -6.543723   -1.704283    1.006224
     58          1           0        2.165881    1.467308    1.556261
     59          1           0        0.851870    2.026207    2.462467
     60          1           0        0.200029    0.344567   -0.195143
     61          1           0        4.445545   -1.440502   -2.995249
     62          1           0        4.042978   -2.680450   -1.726556
     63          1           0       -5.582794   -2.639518   -2.593799
     64          1           0        5.285040   -0.964066    0.088128
     65          1           0        5.882914   -0.208907   -1.525826
     66          1           0        4.069921    0.195208   -4.127003
     67          1           0        3.275323    1.798349   -3.549357
     68          1           0        2.285073    1.023592   -4.531343
     69          1           0        0.493187    2.300772   -3.225804
     70          1           0       -7.208590   -3.874557   -0.377357
     71          1           0       -7.578640   -3.666391   -2.098615
     72          1           0        3.863264    4.203171    3.123063
     73          1           0       -0.907650    3.961958   -3.596233
     74          1           0       -4.123230    4.396969   -0.981171
     75          1           0       -3.917071    3.675810    0.814527
     76          1           0       -3.088528    5.116622    0.211465
     77          1           0        8.339382   -2.721222   -0.737345
     78          1           0       -1.978481    5.957742   -3.593895
     79          1           0       -2.659839    5.988155   -2.008824
 ---------------------------------------------------------------------

 SCF Done:  E(RB3LYP) =  -1947.87395591     A.U. after   22 cycles

 Excitation energies and oscillator strengths:

 Excited State   1:      Singlet-A      0.6558 eV 1890.46 nm  f=0.0006  <S**2>=0.000
     155 ->156         0.70414
 This state for optimization and/or second-order correction.
 Total Energy, E(TD-HF/TD-DFT) =  -1947.84985425
 Copying the excited state density for this state as the 1-particle RhoCI density.

 The electronic state is 1-A.
 Alpha  occ. eigenvalues --  -19.19812 -19.17831 -19.14382 -19.13509 -19.12158
 Alpha  occ. eigenvalues --  -19.08983 -14.37168 -14.36740 -14.32024 -14.30828
 Alpha  occ. eigenvalues --  -10.33309 -10.32574 -10.27683 -10.26949 -10.26502
 Alpha  occ. eigenvalues --  -10.25830 -10.25246 -10.24569 -10.23583 -10.22976
 Alpha  occ. eigenvalues --  -10.22834 -10.22510 -10.22289 -10.22202 -10.22088
 Alpha  occ. eigenvalues --  -10.21656 -10.21118 -10.20801 -10.20529 -10.20453
 Alpha  occ. eigenvalues --  -10.20307 -10.20276 -10.19968 -10.19735 -10.19673
 Alpha  occ. eigenvalues --  -10.19434 -10.18530 -10.17915 -10.17839 -10.17624
 Alpha  occ. eigenvalues --  -10.17511 -10.16603 -10.15793  -1.09541  -1.05637
 Alpha  occ. eigenvalues --   -1.02746  -1.02477  -0.99878  -0.99591  -0.98856
 Alpha  occ. eigenvalues --   -0.97246  -0.92956  -0.92767  -0.85125  -0.82163
 Alpha  occ. eigenvalues --   -0.81563  -0.79944  -0.79402  -0.79272  -0.77759
 Alpha  occ. eigenvalues --   -0.77137  -0.75326  -0.74961  -0.73994  -0.72781
 Alpha  occ. eigenvalues --   -0.71546  -0.69991  -0.69521  -0.68870  -0.66941
 Alpha  occ. eigenvalues --   -0.65860  -0.65550  -0.63533  -0.61647  -0.59792
 Alpha  occ. eigenvalues --   -0.59532  -0.59191  -0.57472  -0.56914  -0.56245
 Alpha  occ. eigenvalues --   -0.55822  -0.55712  -0.54720  -0.53331  -0.52441
 Alpha  occ. eigenvalues --   -0.51930  -0.51601  -0.51482  -0.50025  -0.49584
 Alpha  occ. eigenvalues --   -0.49192  -0.48900  -0.48787  -0.48204  -0.48084
 Alpha  occ. eigenvalues --   -0.46626  -0.46408  -0.46100  -0.45883  -0.45857
 Alpha  occ. eigenvalues --   -0.45517  -0.45338  -0.45046  -0.44600  -0.44471
 Alpha  occ. eigenvalues --   -0.43799  -0.43528  -0.42918  -0.42579  -0.42501
 Alpha  occ. eigenvalues --   -0.42038  -0.41799  -0.41634  -0.40892  -0.40634
 Alpha  occ. eigenvalues --   -0.40455  -0.40169  -0.40099  -0.39556  -0.39533
 Alpha  occ. eigenvalues --   -0.39298  -0.39049  -0.38725  -0.38205  -0.37956
 Alpha  occ. eigenvalues --   -0.37532  -0.37242  -0.36843  -0.36419  -0.36281
 Alpha  occ. eigenvalues --   -0.36150  -0.36016  -0.35508  -0.34938  -0.34297
 Alpha  occ. eigenvalues --   -0.33735  -0.32979  -0.32341  -0.31962  -0.31794
 Alpha  occ. eigenvalues --   -0.31127  -0.29903  -0.29786  -0.29521  -0.28566
 Alpha  occ. eigenvalues --   -0.28299  -0.27111  -0.26253  -0.24766  -0.24272
 Alpha  occ. eigenvalues --   -0.23846  -0.22890  -0.22510  -0.21765  -0.18261
 Alpha virt. eigenvalues --   -0.13305  -0.08281  -0.03101  -0.02183  -0.01919
 Alpha virt. eigenvalues --   -0.01406  -0.00851   0.01492   0.02775   0.03124
 Alpha virt. eigenvalues --    0.03314   0.03691   0.03960   0.04748   0.05033

 Mulliken charges:
               1
     1  O   -0.194201
     2  O   -0.288191
     3  O   -0.230369
     4  O   -0.284324
     5  O   -0.239271
     6  O   -0.214834
     7  N   -0.009785
     8  N   -0.221058
     9  N   -0.112131
    10  N   -0.368179
    11  C    0.182921
    12  C    0.097353
    13  C   -0.114153
    14  C   -0.124104
    15  C   -0.071550
    16  C   -0.057497
    17  C   -0.208560
    18  C    0.119874
    19  C   -0.085724
    20  C   -0.106447
    21  C    0.052185
    22  C    0.143683
    23  C   -0.047665
    24  C    0.033364
    25  C    0.045154
    26  C   -0.139430
    27  C   -0.038814
    28  C    0.142961
    29  C    0.116241
    30  C    0.064732
    31  C   -0.065819
    32  C    0.104443
    33  C   -0.079840
    34  C    0.208239
    35  C    0.084996
    36  C   -0.024309
    37  C    0.165091
    38  C    0.061801
    39  C   -0.184702
    40  C    0.184971
    41  C   -0.033515
    42  C    0.084055
    43  C    0.059833
    44  H    0.018879
    45  H   -0.000914
    46  H    0.009416
    47  H    0.118717
    48  H    0.124449
    49  H    0.040164
    50  H   -0.027051
    51  H    0.045883
    52  H   -0.000582
    53  H    0.022083
    54  H    0.039826
    55  H    0.031060
    56  H    0.031135
    57  H    0.057958
    58  H    0.015327
    59  H    0.070831
    60  H    0.229107
    61  H    0.027588
    62  H    0.009286
    63  H   -0.051288
    64  H    0.088740
    65  H    0.060156
    66  H    0.044820
    67  H    0.014535
    68  H    0.034732
    69  H   -0.043183
    70  H   -0.009131
    71  H    0.016176
    72  H    0.210831
    73  H    0.002253
    74  H    0.039030
    75  H    0.042466
    76  H    0.022201
    77  H    0.258150
    78  H   -0.000567
    79  H   -0.000506
 Sum of Mulliken charges =  -0.00000

 Dipole moment (field-independent basis, Debye):
    X=              3.2773    Y=              3.6774    Z=             -2.7943  Tot=              5.6632
 Quadrupole moment (field-independent basis, Debye-Ang):
   XX=           -234.3323   YY=           -235.3384   ZZ=           -266.6541
   XY=             -2.8982   XZ=            -21.3526   YZ=            -18.7740

 Normal termination of Gaussian 16 at Sat Jul 27 08:17:03 2019.
