 Gaussian 16, Revision A.03,
 Gaussian 16:  ES64L-G16RevA.03 25-Dec-2016

 --------------------------
 # td=(NStates=1) B3LYP/SVP
 --------------------------

 --
 TD
 --
 Symbolic Z-matrix:
 Charge =  0 Multiplicity = 1

                         Standard orientation:
 ---------------------------------------------------------------------
 Center     Atomic      Atomic             Coordinates (Angstroms)
 Number     Number       Type             X           Y           Z
 ---------------------------------------------------------------------
      1          8           0        5.382624    0.131180   -3.186797
      2          8           0       -3.034229   -3.020884    3.146261
      3          8           0       -3.430891   -0.803838    2.875988
      4          8           0       -1.476188    6.989173    1.768750
      5          8           0       -0.833564    7.120160   -0.437906
      6          8           0       -1.708852   -3.884573    0.091362
      7          7           0        2.283547    0.935258    0.707224
      8          7           0        4.304093   -0.481283   -1.150336
      9          7           0       -1.805857    0.635625   -0.405239
     10          7           0       -2.499143   -1.772243   -0.481534
     11          6           0        4.705705   -1.218045   -0.029117
     12          6           0        4.400246   -0.316519    1.313261
     13          6           0        2.882413    0.089731    1.531038
     14          6           0        1.910009   -0.640916    2.265236
     15          6           0        0.743062    0.022691    1.901741
     16          6           0        0.976635    0.967302    0.832626
     17          6           0        6.211822   -1.435524   -0.249086
     18          6           0       -0.592367   -0.181383    2.537562
     19          6           0        6.608242   -0.789840   -1.390509
     20          6           0        0.227068    2.056767    0.241348
     21          6           0       -1.028508    1.826128   -0.319696
     22          6           0        5.366929   -0.263388   -2.071745
     23          6           0       -1.860861    2.913503   -1.012468
     24          6           0        1.989885   -1.748964    3.188903
     25          6           0        6.978904   -2.186534    0.797735
     26          6           0       -3.026906    2.259362   -1.501702
     27          6           0       -1.172343   -1.657288    2.662727
     28          6           0       -2.843267    0.848895   -1.155538
     29          6           0       -1.491153    4.339643   -1.021302
     30          6           0        7.902899   -0.791852   -2.113999
     31          6           0       -1.758484    4.972282    0.372358
     32          6           0       -4.137641    2.884270   -2.161980
     33          6           0       -3.909209   -0.057161   -1.379347
     34          6           0       -2.721366   -1.749979    3.003054
     35          6           0       -3.642386   -1.381505   -1.130825
     36          6           0        9.106974   -0.852271   -1.559366
     37          6           0       -1.363454    6.425674    0.524413
     38          6           0       -4.488209   -2.563480   -1.536183
     39          6           0       -3.834314   -3.646771   -1.106665
     40          6           0       -2.625938   -3.258236   -0.402789
     41          6           0       -5.800798   -2.418498   -2.147921
     42          6           0       -4.184141   -5.119537   -1.177609
     43          6           0       -6.629078   -3.427874   -2.583329
     44          1           0        4.240351   -2.209233    0.168826
     45          1           0        4.907528    0.675355    1.492523
     46          1           0        4.623701   -0.961375    2.155229
     47          1           0        2.880344    1.610863    0.056142
     48          1           0        3.313564   -0.421975   -1.531597
     49          1           0       -0.708972    0.199426    3.596561
     50          1           0       -1.451348    0.588272    2.072966
     51          1           0        0.687370    3.129480    0.296371
     52          1           0        3.144783   -2.217835    3.181269
     53          1           0        1.777098   -1.411278    4.438546
     54          1           0        1.399254   -2.600197    3.040555
     55          1           0        5.924561   -2.858561    1.147314
     56          1           0        7.811835   -1.668516    1.714064
     57          1           0        7.598424   -3.095289    0.316382
     58          1           0       -1.083523   -2.164604    1.642022
     59          1           0       -0.664788   -2.173799    3.393423
     60          1           0       -1.658356   -0.388750   -0.345136
     61          1           0       -1.891239    4.900958   -1.903303
     62          1           0       -0.323876    4.336724   -1.056056
     63          1           0        7.790916   -0.305936   -3.260355
     64          1           0       -0.999604    4.329145    0.973517
     65          1           0       -2.899512    4.782697    0.743211
     66          1           0       -3.682007    3.856087   -2.676055
     67          1           0       -5.010476    3.089402   -1.528674
     68          1           0       -4.478989    2.269443   -3.032486
     69          1           0       -4.765816    0.269304   -2.126912
     70          1           0        9.363610   -1.145233   -0.518285
     71          1           0        9.980072   -1.046560   -2.091600
     72          1           0       -4.163890   -2.922083    3.143591
     73          1           0       -6.130139   -1.312136   -2.298640
     74          1           0       -5.018426   -5.284432   -0.488688
     75          1           0       -4.319730   -5.362465   -2.236178
     76          1           0       -3.324092   -5.612231   -0.468594
     77          1           0       -1.180630    7.897509    1.943041
     78          1           0       -7.604193   -3.200286   -3.008003
     79          1           0       -6.655710   -4.447255   -2.422002
 ---------------------------------------------------------------------

 SCF Done:  E(RB3LYP) =  -1947.78778610     A.U. after   16 cycles

 Excitation energies and oscillator strengths:

 Excited State   1:      Singlet-A      2.0166 eV  614.81 nm  f=0.3616  <S**2>=0.000
     155 ->156         0.69804
 This state for optimization and/or second-order correction.
 Total Energy, E(TD-HF/TD-DFT) =  -1947.71367668
 Copying the excited state density for this state as the 1-particle RhoCI density.

 The electronic state is 1-A.
 Alpha  occ. eigenvalues --  -19.18903 -19.18818 -19.12589 -19.11316 -19.11290
 Alpha  occ. eigenvalues --  -19.11174 -14.39186 -14.36118 -14.36025 -14.28852
 Alpha  occ. eigenvalues --  -10.33960 -10.30141 -10.28977 -10.26842 -10.25642
 Alpha  occ. eigenvalues --  -10.25427 -10.24829 -10.24175 -10.24016 -10.23256
 Alpha  occ. eigenvalues --  -10.22699 -10.22420 -10.22393 -10.22140 -10.22080
 Alpha  occ. eigenvalues --  -10.22024 -10.21914 -10.21650 -10.21299 -10.21269
 Alpha  occ. eigenvalues --  -10.20968 -10.20787 -10.20432 -10.20288 -10.19993
 Alpha  occ. eigenvalues --  -10.19789 -10.19631 -10.19277 -10.19069 -10.18933
 Alpha  occ. eigenvalues --  -10.18575 -10.18322 -10.17624  -1.08688  -1.07740
 Alpha  occ. eigenvalues --   -1.04760  -1.01918  -1.00768  -1.00060  -0.99069
 Alpha  occ. eigenvalues --   -0.97083  -0.94831  -0.90588  -0.83307  -0.81353
 Alpha  occ. eigenvalues --   -0.81336  -0.80682  -0.80278  -0.78777  -0.77523
 Alpha  occ. eigenvalues --   -0.76709  -0.75498  -0.73993  -0.73732  -0.72257
 Alpha  occ. eigenvalues --   -0.70829  -0.69863  -0.69815  -0.68666  -0.68401
 Alpha  occ. eigenvalues --   -0.65583  -0.64925  -0.63772  -0.61922  -0.61247
 Alpha  occ. eigenvalues --   -0.60834  -0.58135  -0.56856  -0.56380  -0.56207
 Alpha  occ. eigenvalues --   -0.55999  -0.55444  -0.54826  -0.53485  -0.53043
 Alpha  occ. eigenvalues --   -0.51670  -0.51282  -0.50839  -0.50340  -0.48933
 Alpha  occ. eigenvalues --   -0.48413  -0.47739  -0.47298  -0.47043  -0.46813
 Alpha  occ. eigenvalues --   -0.46745  -0.46642  -0.46168  -0.46076  -0.45585
 Alpha  occ. eigenvalues --   -0.45048  -0.44756  -0.44493  -0.43937  -0.43890
 Alpha  occ. eigenvalues --   -0.43681  -0.43263  -0.43103  -0.42581  -0.42073
 Alpha  occ. eigenvalues --   -0.41852  -0.41674  -0.41299  -0.41161  -0.40657
 Alpha  occ. eigenvalues --   -0.40441  -0.40245  -0.39866  -0.39389  -0.39305
 Alpha  occ. eigenvalues --   -0.38968  -0.38790  -0.38553  -0.38329  -0.37919
 Alpha  occ. eigenvalues --   -0.37033  -0.36774  -0.36577  -0.36165  -0.35990
 Alpha  occ. eigenvalues --   -0.35605  -0.35132  -0.34607  -0.34516  -0.34351
 Alpha  occ. eigenvalues --   -0.33392  -0.32712  -0.31672  -0.31496  -0.31352
 Alpha  occ. eigenvalues --   -0.31272  -0.30450  -0.28610  -0.27826  -0.27431
 Alpha  occ. eigenvalues --   -0.27174  -0.26285  -0.26058  -0.25647  -0.24567
 Alpha  occ. eigenvalues --   -0.24434  -0.23982  -0.23741  -0.22006  -0.19214
 Alpha virt. eigenvalues --   -0.10813  -0.06887  -0.06378  -0.02773  -0.00766
 Alpha virt. eigenvalues --    0.00425   0.00837   0.00973   0.01002   0.02300
 Alpha virt. eigenvalues --    0.02788   0.03145   0.03248   0.03978   0.04319

 Mulliken charges:
               1
     1  O   -0.172707
     2  O   -0.215224
     3  O   -0.213176
     4  O   -0.205229
     5  O   -0.300092
     6  O   -0.190027
     7  N   -0.023730
     8  N   -0.235363
     9  N   -0.008470
    10  N   -0.380810
    11  C    0.096644
    12  C    0.158959
    13  C   -0.159664
    14  C   -0.054957
    15  C   -0.030232
    16  C    0.015417
    17  C   -0.119283
    18  C   -0.020834
    19  C   -0.054199
    20  C   -0.157310
    21  C    0.131740
    22  C    0.143776
    23  C   -0.092774
    24  C   -0.007500
    25  C   -0.078336
    26  C   -0.130974
    27  C   -0.029063
    28  C    0.038433
    29  C    0.068432
    30  C   -0.034848
    31  C   -0.063703
    32  C    0.064293
    33  C   -0.150957
    34  C    0.125268
    35  C    0.120408
    36  C   -0.021631
    37  C    0.200013
    38  C    0.084417
    39  C   -0.248040
    40  C    0.184631
    41  C   -0.034868
    42  C    0.081174
    43  C   -0.013776
    44  H    0.032483
    45  H    0.010892
    46  H   -0.011624
    47  H    0.156983
    48  H    0.151043
    49  H    0.001705
    50  H    0.037271
    51  H    0.044594
    52  H    0.011004
    53  H    0.038289
    54  H    0.039902
    55  H    0.028950
    56  H    0.096821
    57  H    0.058227
    58  H    0.089582
    59  H   -0.001535
    60  H    0.156528
    61  H    0.037664
    62  H    0.024396
    63  H    0.066385
    64  H    0.062775
    65  H    0.078938
    66  H    0.032999
    67  H    0.044452
    68  H    0.026116
    69  H    0.013355
    70  H    0.012567
    71  H    0.008906
    72  H    0.221877
    73  H    0.021243
    74  H    0.023153
    75  H    0.052154
    76  H    0.046882
    77  H    0.201653
    78  H    0.016466
    79  H    0.001079
 Sum of Mulliken charges =  -0.00000

 Dipole moment (field-independent basis, Debye):
    X=             -0.9333    Y=              1.0146    Z=              2.1930  Tot=              2.5903
 Quadrupole moment (field-independent basis, Debye-Ang):
   XX=           -218.2118   YY=           -249.6018   ZZ=           -262.3301
   XY=             -4.1987   XZ=             27.0476   YZ=             11.3389

 Normal termination of Gaussian 16 at Fri Sep 27 10:30:53 2019.
