 Gaussian 16, Revision A.03,
 Gaussian 16:  ES64L-G16RevA.03 25-Dec-2016

 --------------------------
 # td=(NStates=1) B3LYP/SVP
 --------------------------

 --
 TD
 --
 Symbolic Z-matrix:
 Charge =  0 Multiplicity = 1

                         Standard orientation:
 ---------------------------------------------------------------------
 Center     Atomic      Atomic             Coordinates (Angstroms)
 Number     Number       Type             X           Y           Z
 ---------------------------------------------------------------------
      1          8           0       -3.322217   -0.916363   -2.905712
      2          8           0        3.261928    2.775206    3.051296
      3          8           0        3.683576    1.091102    4.521972
      4          8           0        7.709272   -1.561989   -0.868961
      5          8           0        6.539710   -2.897939   -2.197292
      6          8           0       -2.527464    1.632323    1.651027
      7          7           0       -0.288808   -2.452471    0.801038
      8          7           0       -2.747910   -1.129269   -0.654266
      9          7           0        1.226276    0.149476   -0.741526
     10          7           0       -0.923179    1.465770    0.021856
     11          6           0       -3.492218   -1.434121    0.583686
     12          6           0       -2.645099   -2.563675    1.490113
     13          6           0       -1.317530   -2.176227    1.749888
     14          6           0       -0.599467   -1.375363    2.822353
     15          6           0        0.753836   -1.336719    2.418316
     16          6           0        0.873590   -1.966870    1.187251
     17          6           0       -4.800209   -1.916454    0.091201
     18          6           0        1.842313   -0.593684    3.189194
     19          6           0       -4.846237   -1.902969   -1.259217
     20          6           0        2.068093   -1.978736    0.223818
     21          6           0        2.123375   -0.843941   -0.666815
     22          6           0       -3.561215   -1.281294   -1.756622
     23          6           0        3.062835   -0.562873   -1.762457
     24          6           0       -1.341743   -0.704155    3.993525
     25          6           0       -5.872299   -2.369826    1.066605
     26          6           0        2.585678    0.552370   -2.435941
     27          6           0        1.984749    0.913187    2.828476
     28          6           0        1.464865    1.120177   -1.720041
     29          6           0        4.142831   -1.419263   -2.082241
     30          6           0       -5.854028   -2.189627   -2.177966
     31          6           0        5.393825   -0.938237   -1.320950
     32          6           0        3.158652    1.277206   -3.717915
     33          6           0        0.606762    2.205625   -1.874183
     34          6           0        3.149001    1.528260    3.572027
     35          6           0       -0.543419    2.384406   -0.981174
     36          6           0       -6.841581   -3.062403   -2.063013
     37          6           0        6.614550   -1.906916   -1.548351
     38          6           0       -1.355975    3.574487   -1.004783
     39          6           0       -2.299624    3.476860    0.087641
     40          6           0       -2.069737    2.091550    0.633117
     41          6           0       -1.163972    4.672485   -1.877274
     42          6           0       -3.462606    4.309504    0.555313
     43          6           0       -2.047030    5.801776   -1.959039
     44          1           0       -3.378683   -0.501449    1.178547
     45          1           0       -2.731428   -3.562869    0.768284
     46          1           0       -3.178809   -2.616308    2.543711
     47          1           0       -0.322161   -2.923578   -0.185539
     48          1           0       -2.068202   -0.507315   -0.743220
     49          1           0        1.656098   -0.771231    4.255514
     50          1           0        2.909323   -1.140070    3.002143
     51          1           0        2.815241   -2.750881    0.216913
     52          1           0       -2.095189   -1.318670    4.416132
     53          1           0       -0.649191   -0.196276    4.544904
     54          1           0       -2.052833    0.233470    3.354373
     55          1           0       -5.715623   -2.013866    2.088814
     56          1           0       -5.844602   -3.588995    1.233007
     57          1           0       -6.859713   -2.251119    0.475358
     58          1           0        2.055447    1.116757    1.758301
     59          1           0        0.982105    1.338602    3.169105
     60          1           0        0.377658    0.360001   -0.279069
     61          1           0        4.607798   -1.444037   -3.203933
     62          1           0        3.914729   -2.501147   -1.944342
     63          1           0       -5.891467   -1.604368   -3.115180
     64          1           0        5.194831   -0.925717   -0.169194
     65          1           0        5.673517    0.136425   -1.561320
     66          1           0        4.070798    0.581267   -4.471091
     67          1           0        3.699340    2.194186   -3.382293
     68          1           0        2.410143    1.524271   -4.488354
     69          1           0        0.784941    2.941660   -2.607492
     70          1           0       -6.969772   -3.786876   -1.086576
     71          1           0       -7.643536   -3.274665   -2.911029
     72          1           0        4.115026    3.272579    3.344264
     73          1           0       -0.118515    4.649092   -2.447744
     74          1           0       -4.117809    4.462417   -0.324571
     75          1           0       -4.008079    3.787587    1.324045
     76          1           0       -3.298988    5.311094    0.715357
     77          1           0        8.385827   -2.294204   -1.235953
     78          1           0       -1.574608    6.658585   -2.581480
     79          1           0       -3.022507    5.885170   -1.365992
 ---------------------------------------------------------------------

 SCF Done:  E(RB3LYP) =  -1947.84620559     A.U. after   19 cycles

 Excitation energies and oscillator strengths:

 Excited State   1:      Singlet-A      0.6208 eV 1997.29 nm  f=0.0009  <S**2>=0.000
     155 ->156         0.70411
 This state for optimization and/or second-order correction.
 Total Energy, E(TD-HF/TD-DFT) =  -1947.82339304
 Copying the excited state density for this state as the 1-particle RhoCI density.

 The electronic state is 1-A.
 Alpha  occ. eigenvalues --  -19.20148 -19.17569 -19.14096 -19.12974 -19.12557
 Alpha  occ. eigenvalues --  -19.07981 -14.37107 -14.36483 -14.32156 -14.31384
 Alpha  occ. eigenvalues --  -10.33133 -10.31002 -10.28670 -10.26521 -10.26223
 Alpha  occ. eigenvalues --  -10.26142 -10.25928 -10.23828 -10.23285 -10.23285
 Alpha  occ. eigenvalues --  -10.23107 -10.23018 -10.23002 -10.22665 -10.22570
 Alpha  occ. eigenvalues --  -10.22533 -10.22072 -10.22048 -10.21649 -10.21397
 Alpha  occ. eigenvalues --  -10.20867 -10.20557 -10.20368 -10.20126 -10.20090
 Alpha  occ. eigenvalues --  -10.19804 -10.19119 -10.19091 -10.18294 -10.18273
 Alpha  occ. eigenvalues --  -10.18039 -10.18033 -10.16571  -1.11644  -1.08823
 Alpha  occ. eigenvalues --   -1.04337  -1.02303  -1.01081  -1.00070  -0.99997
 Alpha  occ. eigenvalues --   -0.96048  -0.91934  -0.91716  -0.84137  -0.81520
 Alpha  occ. eigenvalues --   -0.81443  -0.81076  -0.78831  -0.77978  -0.77745
 Alpha  occ. eigenvalues --   -0.76508  -0.75492  -0.74641  -0.73942  -0.71623
 Alpha  occ. eigenvalues --   -0.70868  -0.69715  -0.69136  -0.68406  -0.67244
 Alpha  occ. eigenvalues --   -0.66260  -0.65342  -0.63599  -0.60817  -0.60244
 Alpha  occ. eigenvalues --   -0.59514  -0.58977  -0.58135  -0.57267  -0.56537
 Alpha  occ. eigenvalues --   -0.55936  -0.54907  -0.53881  -0.53140  -0.52261
 Alpha  occ. eigenvalues --   -0.51455  -0.51168  -0.50666  -0.49777  -0.49219
 Alpha  occ. eigenvalues --   -0.49012  -0.48707  -0.48425  -0.48063  -0.47430
 Alpha  occ. eigenvalues --   -0.47177  -0.47017  -0.46367  -0.45982  -0.45875
 Alpha  occ. eigenvalues --   -0.45125  -0.45105  -0.44413  -0.44345  -0.43893
 Alpha  occ. eigenvalues --   -0.43629  -0.43219  -0.43012  -0.42736  -0.42382
 Alpha  occ. eigenvalues --   -0.41826  -0.41202  -0.41061  -0.40681  -0.40562
 Alpha  occ. eigenvalues --   -0.40400  -0.40257  -0.40134  -0.39797  -0.39414
 Alpha  occ. eigenvalues --   -0.39357  -0.38798  -0.38741  -0.37756  -0.37652
 Alpha  occ. eigenvalues --   -0.37436  -0.37238  -0.36818  -0.36591  -0.36441
 Alpha  occ. eigenvalues --   -0.35991  -0.35804  -0.34662  -0.34490  -0.33922
 Alpha  occ. eigenvalues --   -0.33686  -0.33236  -0.32763  -0.32633  -0.31636
 Alpha  occ. eigenvalues --   -0.31340  -0.30188  -0.29911  -0.29898  -0.28868
 Alpha  occ. eigenvalues --   -0.28043  -0.26573  -0.26202  -0.24331  -0.23503
 Alpha  occ. eigenvalues --   -0.23048  -0.22877  -0.22226  -0.22064  -0.17918
 Alpha virt. eigenvalues --   -0.13292  -0.08653  -0.04078  -0.03126  -0.00293
 Alpha virt. eigenvalues --    0.00919   0.01301   0.01541   0.02071   0.02931
 Alpha virt. eigenvalues --    0.03547   0.03713   0.04333   0.04524   0.04755

 Mulliken charges:
               1
     1  O   -0.249344
     2  O   -0.232879
     3  O   -0.173272
     4  O   -0.205008
     5  O   -0.209829
     6  O   -0.182455
     7  N   -0.080954
     8  N   -0.154440
     9  N   -0.048619
    10  N   -0.347272
    11  C    0.079428
    12  C    0.065228
    13  C   -0.051320
    14  C   -0.111898
    15  C   -0.094191
    16  C   -0.031412
    17  C   -0.123544
    18  C    0.041745
    19  C   -0.007385
    20  C   -0.085407
    21  C    0.107701
    22  C    0.116193
    23  C   -0.031736
    24  C    0.076380
    25  C    0.032073
    26  C   -0.077045
    27  C   -0.012763
    28  C    0.109081
    29  C    0.017134
    30  C   -0.018143
    31  C   -0.081150
    32  C   -0.021800
    33  C   -0.057901
    34  C    0.140097
    35  C    0.107123
    36  C   -0.127299
    37  C    0.142291
    38  C    0.044427
    39  C   -0.190352
    40  C    0.183019
    41  C   -0.087717
    42  C    0.149006
    43  C   -0.050415
    44  H    0.045341
    45  H    0.016251
    46  H    0.016881
    47  H    0.149984
    48  H    0.076072
    49  H    0.015592
    50  H    0.002238
    51  H    0.012199
    52  H    0.009573
    53  H   -0.013518
    54  H    0.072469
    55  H    0.025498
    56  H    0.042373
    57  H    0.051960
    58  H    0.022449
    59  H    0.057325
    60  H    0.139284
    61  H    0.043239
    62  H    0.036514
    63  H    0.016844
    64  H    0.055621
    65  H    0.050986
    66  H    0.043496
    67  H    0.048967
    68  H    0.049682
    69  H   -0.041297
    70  H    0.033913
    71  H    0.042563
    72  H    0.198485
    73  H    0.035474
    74  H    0.029589
    75  H    0.033016
    76  H    0.001477
    77  H    0.216700
    78  H    0.052840
    79  H    0.044544
 Sum of Mulliken charges =  -0.00000

 Dipole moment (field-independent basis, Debye):
    X=              3.5246    Y=              3.6957    Z=             -1.7323  Tot=              5.3928
 Quadrupole moment (field-independent basis, Debye-Ang):
   XX=           -226.8231   YY=           -230.3667   ZZ=           -275.4504
   XY=              3.0364   XZ=            -23.6545   YZ=             -9.8574

 Normal termination of Gaussian 16 at Sun Jul 28 08:55:26 2019.
