 Gaussian 16, Revision A.03,
 Gaussian 16:  ES64L-G16RevA.03 25-Dec-2016

 --------------------------
 # td=(NStates=1) B3LYP/SVP
 --------------------------

 --
 TD
 --
 Symbolic Z-matrix:
 Charge =  0 Multiplicity = 1

                         Standard orientation:
 ---------------------------------------------------------------------
 Center     Atomic      Atomic             Coordinates (Angstroms)
 Number     Number       Type             X           Y           Z
 ---------------------------------------------------------------------
      1          8           0        5.236488    0.313286   -3.221416
      2          8           0       -2.854117   -2.914997    3.001858
      3          8           0       -3.377610   -0.777703    2.873178
      4          8           0       -2.031669    6.976101    1.599046
      5          8           0       -1.421559    7.088115   -0.590429
      6          8           0       -1.357220   -3.943320    0.093327
      7          7           0        2.306470    1.075302    0.682742
      8          7           0        4.362238   -0.330109   -1.237566
      9          7           0       -1.751667    0.640492   -0.549633
     10          7           0       -2.285680   -1.986588   -0.561279
     11          6           0        4.686837   -0.951074   -0.003037
     12          6           0        4.333302   -0.247496    1.211270
     13          6           0        2.943088    0.066755    1.449492
     14          6           0        1.946567   -0.518141    2.097359
     15          6           0        0.783038    0.180556    1.783148
     16          6           0        1.005621    1.136519    0.831994
     17          6           0        6.265666   -1.102351   -0.086860
     18          6           0       -0.503902   -0.141144    2.596224
     19          6           0        6.593335   -0.756392   -1.334182
     20          6           0        0.105532    2.049974    0.111278
     21          6           0       -1.177919    1.856013   -0.380541
     22          6           0        5.347133   -0.103868   -2.121015
     23          6           0       -2.026982    2.837140   -0.995760
     24          6           0        2.111503   -1.539967    3.166864
     25          6           0        7.065603   -1.719838    1.022255
     26          6           0       -3.143106    2.212987   -1.430402
     27          6           0       -1.107181   -1.592025    2.591062
     28          6           0       -3.038341    0.729098   -1.111466
     29          6           0       -1.770513    4.282044   -0.880282
     30          6           0        7.891524   -0.597676   -2.039932
     31          6           0       -2.062983    4.938970    0.470073
     32          6           0       -4.406172    2.705165   -2.012272
     33          6           0       -3.785718   -0.235690   -1.421988
     34          6           0       -2.584719   -1.608082    2.767592
     35          6           0       -3.381935   -1.673961   -1.068195
     36          6           0        9.157180   -0.764000   -1.444349
     37          6           0       -1.735512    6.423507    0.344198
     38          6           0       -4.301527   -2.880578   -1.353184
     39          6           0       -3.587763   -4.000275   -0.956997
     40          6           0       -2.221630   -3.383545   -0.453057
     41          6           0       -5.628273   -2.812907   -1.953070
     42          6           0       -3.877657   -5.445892   -0.925329
     43          6           0       -6.447632   -3.864553   -2.385644
     44          1           0        4.232139   -1.828026    0.074130
     45          1           0        4.933663    0.778577    1.348643
     46          1           0        4.455465   -0.574464    2.279183
     47          1           0        2.749878    1.465131   -0.098906
     48          1           0        3.446371   -0.312093   -1.438911
     49          1           0       -0.451546    0.092928    3.724429
     50          1           0       -1.319847    0.467021    2.052225
     51          1           0        0.293710    2.995132   -0.231401
     52          1           0        3.205477   -1.827095    3.371784
     53          1           0        1.616727   -1.616949    3.938363
     54          1           0        1.936798   -2.574417    2.564111
     55          1           0        6.559840   -2.354580    1.664353
     56          1           0        7.393515   -0.803673    1.655053
     57          1           0        7.978072   -2.503186    0.506583
     58          1           0       -0.895173   -2.032863    1.682845
     59          1           0       -0.491328   -2.425488    3.254829
     60          1           0       -1.206275   -0.175652   -0.481080
     61          1           0       -2.509503    4.559854   -1.594077
     62          1           0       -0.791630    4.394601   -1.420991
     63          1           0        7.490614   -0.036238   -3.077710
     64          1           0       -1.636714    4.456529    1.310050
     65          1           0       -3.035233    4.972542    0.757879
     66          1           0       -4.270064    3.720331   -2.402921
     67          1           0       -5.202281    2.809332   -1.292961
     68          1           0       -4.788515    2.162041   -2.867682
     69          1           0       -4.607174   -0.279496   -1.974313
     70          1           0        9.441722   -1.251894   -0.518062
     71          1           0        9.863624   -0.430310   -2.049500
     72          1           0       -3.759100   -2.817583    3.178367
     73          1           0       -5.793513   -1.760634   -2.554662
     74          1           0       -4.750850   -5.491602   -0.423805
     75          1           0       -4.056506   -5.897324   -1.816439
     76          1           0       -3.093311   -5.971056   -0.371389
     77          1           0       -2.065312    8.007550    1.407304
     78          1           0       -7.473167   -3.627877   -2.767961
     79          1           0       -6.053394   -4.890241   -2.283198
 ---------------------------------------------------------------------

 SCF Done:  E(RB3LYP) =  -1947.74219888     A.U. after   16 cycles

 Excitation energies and oscillator strengths:

 Excited State   1:      Singlet-A      1.9527 eV  634.94 nm  f=0.2444  <S**2>=0.000
     155 ->156         0.70399
 This state for optimization and/or second-order correction.
 Total Energy, E(TD-HF/TD-DFT) =  -1947.67043894
 Copying the excited state density for this state as the 1-particle RhoCI density.

 The electronic state is 1-A.
 Alpha  occ. eigenvalues --  -19.17893 -19.15643 -19.14370 -19.12989 -19.12362
 Alpha  occ. eigenvalues --  -19.11355 -14.36012 -14.35113 -14.35015 -14.30381
 Alpha  occ. eigenvalues --  -10.32668 -10.30065 -10.29024 -10.28360 -10.24918
 Alpha  occ. eigenvalues --  -10.23666 -10.23424 -10.22947 -10.22638 -10.22426
 Alpha  occ. eigenvalues --  -10.21879 -10.21570 -10.21419 -10.21394 -10.21280
 Alpha  occ. eigenvalues --  -10.21247 -10.20860 -10.20848 -10.20832 -10.20438
 Alpha  occ. eigenvalues --  -10.20415 -10.20124 -10.19789 -10.19680 -10.19588
 Alpha  occ. eigenvalues --  -10.18973 -10.18913 -10.18796 -10.18458 -10.18133
 Alpha  occ. eigenvalues --  -10.18008 -10.17206 -10.16959  -1.10985  -1.09088
 Alpha  occ. eigenvalues --   -1.06482  -1.05256  -1.01767  -1.00445  -0.99265
 Alpha  occ. eigenvalues --   -0.97832  -0.96166  -0.95097  -0.83778  -0.82591
 Alpha  occ. eigenvalues --   -0.81722  -0.81361  -0.81086  -0.80103  -0.78539
 Alpha  occ. eigenvalues --   -0.76846  -0.76206  -0.75528  -0.74544  -0.73178
 Alpha  occ. eigenvalues --   -0.71843  -0.71009  -0.70910  -0.70148  -0.69032
 Alpha  occ. eigenvalues --   -0.66529  -0.66132  -0.64866  -0.62519  -0.60845
 Alpha  occ. eigenvalues --   -0.59741  -0.59048  -0.58604  -0.57792  -0.57325
 Alpha  occ. eigenvalues --   -0.56378  -0.55763  -0.54517  -0.53836  -0.53311
 Alpha  occ. eigenvalues --   -0.53288  -0.52268  -0.51055  -0.50697  -0.49835
 Alpha  occ. eigenvalues --   -0.49319  -0.49124  -0.48462  -0.48341  -0.47942
 Alpha  occ. eigenvalues --   -0.47856  -0.47633  -0.47354  -0.46825  -0.45877
 Alpha  occ. eigenvalues --   -0.45797  -0.45310  -0.45055  -0.44719  -0.44504
 Alpha  occ. eigenvalues --   -0.44109  -0.43841  -0.43486  -0.43323  -0.42894
 Alpha  occ. eigenvalues --   -0.42849  -0.42763  -0.42704  -0.42472  -0.41728
 Alpha  occ. eigenvalues --   -0.41340  -0.41202  -0.40983  -0.40655  -0.40465
 Alpha  occ. eigenvalues --   -0.40388  -0.39881  -0.39540  -0.38904  -0.38643
 Alpha  occ. eigenvalues --   -0.38485  -0.37655  -0.37120  -0.36962  -0.36400
 Alpha  occ. eigenvalues --   -0.35790  -0.35480  -0.35188  -0.34794  -0.34653
 Alpha  occ. eigenvalues --   -0.32922  -0.32822  -0.32463  -0.31886  -0.31480
 Alpha  occ. eigenvalues --   -0.31223  -0.31017  -0.29668  -0.29432  -0.29043
 Alpha  occ. eigenvalues --   -0.28127  -0.27732  -0.26434  -0.26143  -0.25399
 Alpha  occ. eigenvalues --   -0.24479  -0.23561  -0.23301  -0.23137  -0.18642
 Alpha virt. eigenvalues --   -0.10538  -0.06296  -0.05187  -0.02396  -0.00244
 Alpha virt. eigenvalues --    0.01529   0.01926   0.02280   0.03464   0.03671
 Alpha virt. eigenvalues --    0.04227   0.04507   0.05143   0.05377   0.06281

 Mulliken charges:
               1
     1  O   -0.183771
     2  O   -0.158639
     3  O   -0.165508
     4  O   -0.271669
     5  O   -0.186069
     6  O   -0.114855
     7  N   -0.016091
     8  N   -0.116512
     9  N   -0.077941
    10  N   -0.171584
    11  C    0.237175
    12  C    0.111264
    13  C   -0.166358
    14  C   -0.082017
    15  C   -0.124965
    16  C    0.070302
    17  C   -0.152765
    18  C    0.036046
    19  C   -0.143536
    20  C   -0.020020
    21  C   -0.018246
    22  C    0.151902
    23  C   -0.128546
    24  C    0.176496
    25  C    0.045272
    26  C   -0.130318
    27  C   -0.019320
    28  C    0.280661
    29  C    0.146195
    30  C   -0.053538
    31  C    0.111097
    32  C    0.129297
    33  C   -0.081549
    34  C    0.112260
    35  C   -0.033387
    36  C    0.017661
    37  C    0.145425
    38  C    0.011171
    39  C   -0.255043
    40  C    0.128596
    41  C   -0.077998
    42  C    0.208063
    43  C   -0.048333
    44  H   -0.040352
    45  H   -0.002488
    46  H    0.014120
    47  H    0.075761
    48  H    0.079038
    49  H    0.021967
    50  H    0.023047
    51  H   -0.081864
    52  H   -0.006741
    53  H   -0.057115
    54  H    0.019755
    55  H    0.003059
    56  H    0.055128
    57  H    0.066500
    58  H    0.006085
    59  H    0.045013
    60  H    0.120689
    61  H   -0.023206
    62  H    0.036469
    63  H    0.066716
    64  H    0.031209
    65  H    0.000401
    66  H   -0.002389
    67  H    0.026067
    68  H    0.018080
    69  H   -0.113860
    70  H    0.030338
    71  H   -0.005884
    72  H    0.121169
    73  H    0.044665
    74  H   -0.005359
    75  H    0.010801
    76  H    0.023505
    77  H    0.206103
    78  H    0.049615
    79  H    0.023655
 Sum of Mulliken charges =  -0.00000

 Dipole moment (field-independent basis, Debye):
    X=             -2.5252    Y=             -0.5764    Z=              1.4264  Tot=              2.9569
 Quadrupole moment (field-independent basis, Debye-Ang):
   XX=           -227.3709   YY=           -241.7843   ZZ=           -262.8447
   XY=             -6.1242   XZ=             34.5083   YZ=              5.7191

 Normal termination of Gaussian 16 at Thu Sep 26 11:22:17 2019.
