 Gaussian 16, Revision A.03,
 Gaussian 16:  ES64L-G16RevA.03 25-Dec-2016

 --------------------------
 # td=(NStates=1) B3LYP/SVP
 --------------------------

 --
 TD
 --
 Symbolic Z-matrix:
 Charge =  0 Multiplicity = 1

                         Standard orientation:
 ---------------------------------------------------------------------
 Center     Atomic      Atomic             Coordinates (Angstroms)
 Number     Number       Type             X           Y           Z
 ---------------------------------------------------------------------
      1          8           0        5.247803   -0.098715   -3.261510
      2          8           0       -3.141684   -3.026045    3.138497
      3          8           0       -3.366544   -0.704804    2.925159
      4          8           0       -1.617924    7.217110    1.539511
      5          8           0       -0.474024    7.035423   -0.431551
      6          8           0       -1.867984   -4.110585   -0.023634
      7          7           0        2.394776    0.894119    0.549740
      8          7           0        4.390455   -0.673688   -1.264486
      9          7           0       -1.749188    0.659994   -0.374957
     10          7           0       -2.687208   -1.917864   -0.447567
     11          6           0        4.821977   -1.295161    0.009616
     12          6           0        4.411946   -0.288078    1.268067
     13          6           0        2.947182   -0.144441    1.312828
     14          6           0        1.983456   -0.666428    2.083257
     15          6           0        0.839111   -0.017426    1.808580
     16          6           0        1.074179    1.025882    0.825949
     17          6           0        6.330861   -1.460956   -0.153768
     18          6           0       -0.551876   -0.293455    2.538581
     19          6           0        6.672856   -0.940951   -1.392616
     20          6           0        0.297536    1.990332    0.125703
     21          6           0       -0.994183    1.810785   -0.371315
     22          6           0        5.374468   -0.585849   -2.149235
     23          6           0       -1.787945    2.881162   -0.882269
     24          6           0        2.222540   -1.840378    3.128758
     25          6           0        7.242396   -2.068177    0.803573
     26          6           0       -2.993679    2.370221   -1.280754
     27          6           0       -1.132393   -1.712554    2.559416
     28          6           0       -2.944534    0.945155   -0.968797
     29          6           0       -1.432521    4.373982   -1.023295
     30          6           0        7.941095   -0.811252   -2.040455
     31          6           0       -1.669990    5.186460    0.354946
     32          6           0       -4.247452    3.024399   -1.773571
     33          6           0       -3.915008   -0.037690   -1.284514
     34          6           0       -2.590450   -1.616476    2.911349
     35          6           0       -3.797243   -1.479070   -1.026724
     36          6           0        9.116021   -0.806898   -1.278457
     37          6           0       -1.212603    6.568114    0.390045
     38          6           0       -4.727917   -2.534115   -1.369451
     39          6           0       -4.024050   -3.680794   -1.203396
     40          6           0       -2.777385   -3.359824   -0.502145
     41          6           0       -6.014741   -2.295429   -1.891418
     42          6           0       -4.461917   -5.033300   -1.371744
     43          6           0       -7.018605   -3.110846   -2.269284
     44          1           0        4.250529   -2.179210    0.149802
     45          1           0        4.845121    0.801007    1.085301
     46          1           0        4.923981   -0.757774    2.146073
     47          1           0        2.891724    1.401850   -0.293288
     48          1           0        3.399673   -0.558325   -1.535096
     49          1           0       -0.417727    0.079207    3.552058
     50          1           0       -1.247759    0.420242    2.044269
     51          1           0        0.796896    2.899453   -0.060428
     52          1           0        3.497500   -1.728812    3.411386
     53          1           0        1.704024   -1.653969    4.080100
     54          1           0        1.908280   -2.859748    2.641549
     55          1           0        6.579489   -2.628241    1.387599
     56          1           0        7.524636   -1.174295    1.498431
     57          1           0        8.015381   -2.556309    0.302952
     58          1           0       -1.045716   -1.972737    1.508718
     59          1           0       -0.618313   -2.309769    3.329798
     60          1           0       -1.416817   -0.268046   -0.240569
     61          1           0       -2.212496    4.884634   -1.754437
     62          1           0       -0.405961    4.670360   -1.310623
     63          1           0        7.965344   -0.293030   -3.134626
     64          1           0       -1.126116    4.597127    1.265470
     65          1           0       -2.660750    5.139692    0.770848
     66          1           0       -4.002327    3.959492   -2.161495
     67          1           0       -5.128415    3.141409   -1.074450
     68          1           0       -4.617017    2.661104   -2.757439
     69          1           0       -4.857206    0.122747   -1.888881
     70          1           0        9.268823   -1.321418   -0.288253
     71          1           0       10.105372   -0.760429   -1.775668
     72          1           0       -4.225365   -2.827021    3.230946
     73          1           0       -6.159299   -1.114720   -1.990621
     74          1           0       -5.402300   -5.402474   -0.849324
     75          1           0       -4.672926   -5.421662   -2.453938
     76          1           0       -3.700075   -5.711767   -0.939519
     77          1           0       -1.138774    8.052557    1.341738
     78          1           0       -8.050026   -2.877609   -2.837226
     79          1           0       -7.137186   -4.272184   -2.056781
 ---------------------------------------------------------------------

 SCF Done:  E(RB3LYP) =  -1947.88836720     A.U. after   17 cycles

 Excitation energies and oscillator strengths:

 Excited State   1:      Singlet-A      1.8821 eV  658.74 nm  f=0.4113  <S**2>=0.000
     155 ->156         0.69516
     155 <-156        -0.11805
 This state for optimization and/or second-order correction.
 Total Energy, E(TD-HF/TD-DFT) =  -1947.81920021
 Copying the excited state density for this state as the 1-particle RhoCI density.

 The electronic state is 1-A.
 Alpha  occ. eigenvalues --  -19.19228 -19.14455 -19.14216 -19.13538 -19.11028
 Alpha  occ. eigenvalues --  -19.08961 -14.39212 -14.37516 -14.35735 -14.29144
 Alpha  occ. eigenvalues --  -10.32873 -10.31346 -10.27748 -10.26925 -10.25635
 Alpha  occ. eigenvalues --  -10.25407 -10.24920 -10.23336 -10.23318 -10.23271
 Alpha  occ. eigenvalues --  -10.23238 -10.23080 -10.22763 -10.22244 -10.22105
 Alpha  occ. eigenvalues --  -10.22086 -10.22046 -10.21956 -10.21728 -10.21648
 Alpha  occ. eigenvalues --  -10.21538 -10.20734 -10.20431 -10.20261 -10.20212
 Alpha  occ. eigenvalues --  -10.20133 -10.20097 -10.19886 -10.19766 -10.19582
 Alpha  occ. eigenvalues --  -10.19426 -10.19039 -10.19032  -1.10771  -1.05676
 Alpha  occ. eigenvalues --   -1.02227  -1.02165  -0.99830  -0.99158  -0.99001
 Alpha  occ. eigenvalues --   -0.94109  -0.93713  -0.92203  -0.83234  -0.82944
 Alpha  occ. eigenvalues --   -0.82180  -0.81358  -0.81093  -0.79352  -0.78167
 Alpha  occ. eigenvalues --   -0.77413  -0.76869  -0.76120  -0.74391  -0.72815
 Alpha  occ. eigenvalues --   -0.71704  -0.70519  -0.70048  -0.69370  -0.68661
 Alpha  occ. eigenvalues --   -0.66503  -0.65980  -0.63851  -0.61263  -0.60893
 Alpha  occ. eigenvalues --   -0.59451  -0.58220  -0.57972  -0.57646  -0.56883
 Alpha  occ. eigenvalues --   -0.56246  -0.56042  -0.54714  -0.53583  -0.53254
 Alpha  occ. eigenvalues --   -0.52324  -0.51864  -0.50974  -0.50706  -0.49909
 Alpha  occ. eigenvalues --   -0.49689  -0.49119  -0.48868  -0.48434  -0.47618
 Alpha  occ. eigenvalues --   -0.47102  -0.46659  -0.46383  -0.46256  -0.45767
 Alpha  occ. eigenvalues --   -0.45366  -0.44875  -0.44535  -0.44245  -0.43778
 Alpha  occ. eigenvalues --   -0.43475  -0.43338  -0.43168  -0.42975  -0.42529
 Alpha  occ. eigenvalues --   -0.42311  -0.42163  -0.41697  -0.41342  -0.41175
 Alpha  occ. eigenvalues --   -0.40672  -0.40506  -0.40280  -0.39911  -0.39814
 Alpha  occ. eigenvalues --   -0.39558  -0.39166  -0.38921  -0.38374  -0.38310
 Alpha  occ. eigenvalues --   -0.38089  -0.37782  -0.37458  -0.37144  -0.36968
 Alpha  occ. eigenvalues --   -0.36214  -0.35809  -0.35084  -0.35002  -0.34478
 Alpha  occ. eigenvalues --   -0.34150  -0.33832  -0.33715  -0.33125  -0.31902
 Alpha  occ. eigenvalues --   -0.31515  -0.29865  -0.29145  -0.28886  -0.27863
 Alpha  occ. eigenvalues --   -0.27443  -0.27246  -0.26881  -0.25959  -0.24879
 Alpha  occ. eigenvalues --   -0.24338  -0.23981  -0.23125  -0.22398  -0.19063
 Alpha virt. eigenvalues --   -0.11655  -0.07534  -0.06430  -0.01554  -0.01146
 Alpha virt. eigenvalues --   -0.00004   0.00341   0.00943   0.02128   0.02475
 Alpha virt. eigenvalues --    0.03385   0.04460   0.04565   0.04730   0.04968

 Mulliken charges:
               1
     1  O   -0.239214
     2  O   -0.360988
     3  O   -0.190264
     4  O   -0.199171
     5  O   -0.218256
     6  O   -0.238080
     7  N   -0.131744
     8  N   -0.181190
     9  N   -0.024797
    10  N   -0.293578
    11  C    0.111894
    12  C    0.092981
    13  C   -0.053889
    14  C   -0.076504
    15  C   -0.142646
    16  C    0.075522
    17  C   -0.207123
    18  C    0.028997
    19  C   -0.058298
    20  C   -0.107629
    21  C    0.093038
    22  C    0.129325
    23  C   -0.062069
    24  C    0.007352
    25  C    0.165982
    26  C   -0.128069
    27  C    0.084563
    28  C    0.132648
    29  C    0.078956
    30  C   -0.050925
    31  C   -0.056938
    32  C    0.147302
    33  C   -0.104890
    34  C    0.171464
    35  C    0.017244
    36  C   -0.073947
    37  C    0.148453
    38  C    0.098880
    39  C   -0.151118
    40  C    0.188603
    41  C   -0.013880
    42  C    0.017140
    43  C   -0.135043
    44  H    0.012518
    45  H    0.028325
    46  H    0.009896
    47  H    0.158653
    48  H    0.132762
    49  H    0.002907
    50  H    0.016911
    51  H   -0.026004
    52  H    0.027590
    53  H    0.037649
    54  H    0.078273
    55  H   -0.005929
    56  H    0.051226
    57  H    0.042007
    58  H    0.074297
    59  H    0.034865
    60  H    0.131735
    61  H    0.041801
    62  H    0.036156
    63  H    0.062212
    64  H    0.067868
    65  H    0.023215
    66  H   -0.037110
    67  H    0.055195
    68  H    0.014893
    69  H   -0.014984
    70  H    0.025292
    71  H    0.025026
    72  H    0.215141
    73  H    0.023266
    74  H    0.032017
    75  H    0.034030
    76  H    0.024600
    77  H    0.174266
    78  H    0.053388
    79  H    0.045956
 Sum of Mulliken charges =  -0.00000

 Dipole moment (field-independent basis, Debye):
    X=             -0.2092    Y=              2.6588    Z=              2.4466  Tot=              3.6192
 Quadrupole moment (field-independent basis, Debye-Ang):
   XX=           -221.1255   YY=           -252.6060   ZZ=           -266.3584
   XY=            -12.0561   XZ=             38.3377   YZ=              4.6053

 Normal termination of Gaussian 16 at Thu Sep 26 03:21:00 2019.
