 Gaussian 16, Revision A.03,
 Gaussian 16:  ES64L-G16RevA.03 25-Dec-2016

 --------------------------
 # td=(NStates=1) B3LYP/SVP
 --------------------------

 --
 TD
 --
 Symbolic Z-matrix:
 Charge =  0 Multiplicity = 1

                         Standard orientation:
 ---------------------------------------------------------------------
 Center     Atomic      Atomic             Coordinates (Angstroms)
 Number     Number       Type             X           Y           Z
 ---------------------------------------------------------------------
      1          8           0       -3.175137   -1.565728   -2.855854
      2          8           0        2.641747    3.450011    3.123645
      3          8           0        2.989997    1.892782    4.731712
      4          8           0        7.796421   -1.625255   -0.499573
      5          8           0        6.826702   -2.955718   -2.052311
      6          8           0       -2.661601    1.627561    1.318120
      7          7           0       -0.192686   -2.366318    1.073847
      8          7           0       -2.585955   -1.150347   -0.561507
      9          7           0        1.230153    0.075203   -0.737648
     10          7           0       -1.024243    1.441010   -0.320174
     11          6           0       -3.301031   -1.309440    0.589501
     12          6           0       -2.657128   -2.224108    1.645623
     13          6           0       -1.217824   -1.852192    1.884546
     14          6           0       -0.580856   -1.061655    2.871473
     15          6           0        0.766986   -1.092631    2.600426
     16          6           0        0.968463   -1.766326    1.345625
     17          6           0       -4.702291   -1.895606    0.325515
     18          6           0        1.839169   -0.211680    3.091208
     19          6           0       -4.648749   -2.105027   -1.063647
     20          6           0        2.114082   -1.894791    0.393904
     21          6           0        2.201532   -0.822878   -0.534131
     22          6           0       -3.405378   -1.570651   -1.629567
     23          6           0        3.057131   -0.704057   -1.725588
     24          6           0       -1.281618   -0.319091    3.998592
     25          6           0       -5.692026   -2.342958    1.339052
     26          6           0        2.611139    0.318551   -2.471305
     27          6           0        1.661715    1.328803    2.880663
     28          6           0        1.417196    0.857420   -1.826955
     29          6           0        4.321341   -1.603090   -1.793414
     30          6           0       -5.775786   -2.570206   -1.914136
     31          6           0        5.560986   -1.213898   -1.053966
     32          6           0        3.174125    0.858611   -3.762169
     33          6           0        0.545323    1.910613   -2.197692
     34          6           0        2.554737    2.212055    3.655632
     35          6           0       -0.619380    2.214324   -1.399381
     36          6           0       -6.708824   -3.514319   -1.524245
     37          6           0        6.819428   -2.039789   -1.160006
     38          6           0       -1.424757    3.368658   -1.555984
     39          6           0       -2.334861    3.350241   -0.528400
     40          6           0       -2.052795    2.131409    0.296300
     41          6           0       -1.186765    4.360224   -2.570836
     42          6           0       -3.400092    4.300376   -0.091280
     43          6           0       -1.972715    5.356821   -2.929802
     44          1           0       -3.471597   -0.440932    1.307048
     45          1           0       -2.562183   -3.221827    1.238320
     46          1           0       -3.217382   -2.296516    2.453295
     47          1           0       -0.507501   -2.905430    0.202981
     48          1           0       -1.984062   -0.360838   -0.406493
     49          1           0        1.948724   -0.110525    4.215583
     50          1           0        2.953049   -0.415146    2.866451
     51          1           0        3.103636   -2.424557    0.636694
     52          1           0       -1.918184   -0.801616    4.591318
     53          1           0       -0.457638    0.080275    4.617152
     54          1           0       -1.942540    0.671995    3.631238
     55          1           0       -5.609268   -1.959673    2.381967
     56          1           0       -5.599922   -3.384602    1.542565
     57          1           0       -6.844256   -2.256907    1.093535
     58          1           0        2.013697    1.547907    1.874928
     59          1           0        0.697453    1.778386    3.094910
     60          1           0        0.449493    0.242835   -0.147119
     61          1           0        4.646453   -1.768125   -2.756059
     62          1           0        4.052994   -2.662675   -1.515393
     63          1           0       -5.765790   -2.142062   -2.917375
     64          1           0        5.335265   -1.103258    0.072883
     65          1           0        5.513934   -0.050924   -1.355998
     66          1           0        3.586858   -0.241847   -4.212083
     67          1           0        3.770022    1.829072   -3.535579
     68          1           0        2.145544    1.298702   -4.391340
     69          1           0        0.963315    2.588284   -3.022333
     70          1           0       -6.630379   -4.035223   -0.384107
     71          1           0       -7.379750   -4.029161   -2.200664
     72          1           0        3.132169    3.970703    3.784898
     73          1           0       -0.325738    4.312072   -3.205718
     74          1           0       -4.258760    4.288313   -0.953374
     75          1           0       -3.799175    4.104311    0.915648
     76          1           0       -3.101461    5.376066    0.042276
     77          1           0        8.664031   -2.108955   -0.773239
     78          1           0       -1.782917    5.907184   -3.771185
     79          1           0       -3.056909    5.416357   -2.436512
 ---------------------------------------------------------------------

 SCF Done:  E(RB3LYP) =  -1947.83519790     A.U. after   22 cycles

 Excitation energies and oscillator strengths:

 Excited State   1:      Singlet-A      0.7827 eV 1584.04 nm  f=0.0044  <S**2>=0.000
     155 ->156         0.70389
 This state for optimization and/or second-order correction.
 Total Energy, E(TD-HF/TD-DFT) =  -1947.80643391
 Copying the excited state density for this state as the 1-particle RhoCI density.

 The electronic state is 1-A.
 Alpha  occ. eigenvalues --  -19.22734 -19.18466 -19.12661 -19.12092 -19.12059
 Alpha  occ. eigenvalues --  -19.08001 -14.37822 -14.37236 -14.32814 -14.30744
 Alpha  occ. eigenvalues --  -10.34002 -10.31033 -10.28305 -10.27070 -10.26943
 Alpha  occ. eigenvalues --  -10.25636 -10.25572 -10.24844 -10.23607 -10.23032
 Alpha  occ. eigenvalues --  -10.22691 -10.22566 -10.22511 -10.21930 -10.21291
 Alpha  occ. eigenvalues --  -10.21224 -10.21144 -10.21085 -10.20946 -10.20905
 Alpha  occ. eigenvalues --  -10.20636 -10.20266 -10.20180 -10.19873 -10.19487
 Alpha  occ. eigenvalues --  -10.19233 -10.19111 -10.18801 -10.18503 -10.17872
 Alpha  occ. eigenvalues --  -10.17557 -10.17271 -10.16977  -1.14615  -1.09837
 Alpha  occ. eigenvalues --   -1.01741  -1.00790  -0.99901  -0.99237  -0.99141
 Alpha  occ. eigenvalues --   -0.96862  -0.93244  -0.92944  -0.83984  -0.82386
 Alpha  occ. eigenvalues --   -0.81985  -0.80193  -0.80085  -0.79318  -0.78404
 Alpha  occ. eigenvalues --   -0.76946  -0.76307  -0.75695  -0.73747  -0.72568
 Alpha  occ. eigenvalues --   -0.71395  -0.70220  -0.70157  -0.70047  -0.67649
 Alpha  occ. eigenvalues --   -0.66719  -0.65886  -0.63204  -0.63050  -0.61277
 Alpha  occ. eigenvalues --   -0.59936  -0.59677  -0.58924  -0.58426  -0.56677
 Alpha  occ. eigenvalues --   -0.55903  -0.55490  -0.55037  -0.53389  -0.53063
 Alpha  occ. eigenvalues --   -0.52475  -0.52411  -0.51478  -0.50374  -0.49968
 Alpha  occ. eigenvalues --   -0.49958  -0.49504  -0.48773  -0.48218  -0.47941
 Alpha  occ. eigenvalues --   -0.47842  -0.47496  -0.46850  -0.46210  -0.46054
 Alpha  occ. eigenvalues --   -0.45498  -0.44790  -0.44599  -0.44239  -0.44021
 Alpha  occ. eigenvalues --   -0.43386  -0.43104  -0.42731  -0.42296  -0.41743
 Alpha  occ. eigenvalues --   -0.41481  -0.41175  -0.40863  -0.40795  -0.40694
 Alpha  occ. eigenvalues --   -0.40549  -0.40170  -0.40043  -0.39777  -0.39386
 Alpha  occ. eigenvalues --   -0.39026  -0.38785  -0.38624  -0.38557  -0.38036
 Alpha  occ. eigenvalues --   -0.37658  -0.37379  -0.36376  -0.36205  -0.35927
 Alpha  occ. eigenvalues --   -0.35618  -0.35488  -0.35379  -0.34630  -0.34238
 Alpha  occ. eigenvalues --   -0.33609  -0.32552  -0.32408  -0.32044  -0.31846
 Alpha  occ. eigenvalues --   -0.30879  -0.28936  -0.28728  -0.28491  -0.28419
 Alpha  occ. eigenvalues --   -0.27915  -0.27352  -0.25875  -0.24710  -0.23933
 Alpha  occ. eigenvalues --   -0.23566  -0.23074  -0.22471  -0.21845  -0.18766
 Alpha virt. eigenvalues --   -0.13474  -0.08173  -0.03890  -0.02617  -0.01683
 Alpha virt. eigenvalues --    0.00815   0.01031   0.01114   0.01378   0.01739
 Alpha virt. eigenvalues --    0.03393   0.03612   0.04198   0.04782   0.05020

 Mulliken charges:
               1
     1  O   -0.259223
     2  O   -0.181201
     3  O   -0.226776
     4  O   -0.099482
     5  O   -0.303443
     6  O   -0.263460
     7  N   -0.063678
     8  N   -0.145885
     9  N   -0.000859
    10  N   -0.338796
    11  C   -0.033568
    12  C    0.315319
    13  C   -0.138662
    14  C   -0.100275
    15  C   -0.007886
    16  C   -0.047789
    17  C   -0.079143
    18  C    0.008815
    19  C   -0.103187
    20  C   -0.041015
    21  C    0.031378
    22  C    0.175293
    23  C   -0.092787
    24  C    0.082817
    25  C    0.048549
    26  C   -0.109438
    27  C    0.026540
    28  C    0.076866
    29  C    0.144642
    30  C    0.018480
    31  C   -0.076308
    32  C   -0.041875
    33  C   -0.107727
    34  C    0.086130
    35  C    0.125165
    36  C   -0.090112
    37  C    0.157458
    38  C    0.113790
    39  C   -0.177764
    40  C    0.198563
    41  C   -0.033037
    42  C    0.028548
    43  C   -0.011331
    44  H    0.051270
    45  H   -0.053170
    46  H   -0.072088
    47  H    0.142695
    48  H    0.149599
    49  H    0.016303
    50  H   -0.001182
    51  H    0.043086
    52  H   -0.024296
    53  H    0.000111
    54  H    0.053098
    55  H    0.014182
    56  H    0.024501
    57  H    0.051995
    58  H    0.003221
    59  H    0.051606
    60  H    0.156748
    61  H   -0.026386
    62  H    0.015195
    63  H    0.012919
    64  H    0.030739
    65  H    0.055256
    66  H    0.092581
    67  H    0.069215
    68  H    0.057212
    69  H    0.014524
    70  H    0.035252
    71  H    0.026453
    72  H    0.176266
    73  H   -0.027572
    74  H    0.063447
    75  H    0.032452
    76  H    0.036790
    77  H    0.230373
    78  H    0.000824
    79  H    0.033138
 Sum of Mulliken charges =  -0.00000

 Dipole moment (field-independent basis, Debye):
    X=              4.7730    Y=              3.7635    Z=             -0.4955  Tot=              6.0984
 Quadrupole moment (field-independent basis, Debye-Ang):
   XX=           -218.1200   YY=           -237.5930   ZZ=           -273.4079
   XY=              4.0481   XZ=            -17.4381   YZ=            -19.2495

 Normal termination of Gaussian 16 at Wed Jul 24 02:54:47 2019.
