 Gaussian 16, Revision A.03,
 Gaussian 16:  ES64L-G16RevA.03 25-Dec-2016

 --------------------------
 # td=(NStates=1) B3LYP/SVP
 --------------------------

 --
 TD
 --
 Symbolic Z-matrix:
 Charge =  0 Multiplicity = 1

                         Standard orientation:
 ---------------------------------------------------------------------
 Center     Atomic      Atomic             Coordinates (Angstroms)
 Number     Number       Type             X           Y           Z
 ---------------------------------------------------------------------
      1          8           0        5.360002    0.040486   -3.261428
      2          8           0       -3.040965   -2.948431    3.293234
      3          8           0       -3.329144   -0.736527    2.772620
      4          8           0       -1.994118    7.149373    1.475003
      5          8           0       -0.819705    7.067347   -0.533931
      6          8           0       -1.548712   -4.029900   -0.021495
      7          7           0        2.311947    0.998648    0.675524
      8          7           0        4.363810   -0.489876   -1.173970
      9          7           0       -1.807805    0.675099   -0.430149
     10          7           0       -2.463128   -1.967751   -0.529463
     11          6           0        4.746754   -1.054635    0.018144
     12          6           0        4.456771   -0.162610    1.235634
     13          6           0        2.963085    0.075986    1.345309
     14          6           0        1.962577   -0.527327    2.204252
     15          6           0        0.797720    0.004018    1.792157
     16          6           0        0.971164    1.019187    0.800452
     17          6           0        6.228919   -1.339571   -0.162209
     18          6           0       -0.497137   -0.276466    2.526528
     19          6           0        6.591183   -0.782122   -1.292035
     20          6           0        0.162847    2.021870    0.315274
     21          6           0       -1.071842    1.828158   -0.329795
     22          6           0        5.408505   -0.329693   -2.133641
     23          6           0       -1.967509    2.893000   -0.836476
     24          6           0        2.167930   -1.666742    3.185172
     25          6           0        7.009919   -1.949164    0.950037
     26          6           0       -3.115727    2.249858   -1.330774
     27          6           0       -1.051557   -1.740483    2.522673
     28          6           0       -3.042749    0.845595   -1.133724
     29          6           0       -1.632253    4.301652   -0.825650
     30          6           0        7.914413   -0.600336   -1.969427
     31          6           0       -1.954436    5.097812    0.382329
     32          6           0       -4.289860    3.012342   -2.024289
     33          6           0       -3.846435   -0.229880   -1.379895
     34          6           0       -2.570061   -1.694879    2.881017
     35          6           0       -3.598353   -1.582709   -1.123985
     36          6           0        9.164164   -0.706166   -1.498898
     37          6           0       -1.576044    6.609132    0.327237
     38          6           0       -4.439697   -2.754678   -1.439572
     39          6           0       -3.738684   -3.854008   -1.097810
     40          6           0       -2.525885   -3.447926   -0.508672
     41          6           0       -5.768418   -2.603953   -2.052569
     42          6           0       -4.023195   -5.394098   -1.242157
     43          6           0       -6.657847   -3.556340   -2.266280
     44          1           0        4.236561   -2.025016    0.125480
     45          1           0        5.052593    0.720756    0.822146
     46          1           0        4.844276   -0.767992    2.010740
     47          1           0        2.739570    1.580249   -0.067511
     48          1           0        3.480927   -0.475658   -1.560910
     49          1           0       -0.461610    0.212585    3.731813
     50          1           0       -1.488136    0.234250    2.208225
     51          1           0        0.353536    3.143312    0.183077
     52          1           0        3.094175   -1.722064    3.761815
     53          1           0        1.380069   -1.599826    4.044298
     54          1           0        2.095786   -2.724617    2.763701
     55          1           0        6.510128   -2.681602    1.496157
     56          1           0        7.233017   -1.366190    1.685571
     57          1           0        7.918884   -2.479767    0.473072
     58          1           0       -0.960133   -2.289325    1.599861
     59          1           0       -0.367883   -2.317154    3.250461
     60          1           0       -1.621486   -0.371985   -0.292520
     61          1           0       -2.073040    4.921226   -1.622471
     62          1           0       -0.549497    4.570993   -1.000158
     63          1           0        7.666174   -0.236916   -3.094842
     64          1           0       -1.569968    4.854173    1.405445
     65          1           0       -3.181502    5.039221    0.484122
     66          1           0       -4.273065    4.119290   -2.018035
     67          1           0       -5.125615    2.773428   -1.498740
     68          1           0       -4.348909    2.585662   -3.061257
     69          1           0       -4.935870   -0.063815   -1.676570
     70          1           0        9.432691   -0.923468   -0.374585
     71          1           0       10.020649   -0.356596   -2.237873
     72          1           0       -4.069736   -2.786521    3.353868
     73          1           0       -6.112988   -1.479800   -2.351252
     74          1           0       -4.692492   -5.578410   -0.489538
     75          1           0       -4.355289   -5.636424   -2.398551
     76          1           0       -3.108663   -5.896537   -0.809567
     77          1           0       -1.514498    7.930019    1.348058
     78          1           0       -7.648066   -3.405234   -2.889127
     79          1           0       -6.522794   -4.580818   -1.920173
 ---------------------------------------------------------------------

 SCF Done:  E(RB3LYP) =  -1947.87077604     A.U. after   18 cycles

 Excitation energies and oscillator strengths:

 Excited State   1:      Singlet-A      1.8558 eV  668.10 nm  f=0.4080  <S**2>=0.000
     155 ->156         0.70234
     155 <-156        -0.13419
 This state for optimization and/or second-order correction.
 Total Energy, E(TD-HF/TD-DFT) =  -1947.80257803
 Copying the excited state density for this state as the 1-particle RhoCI density.

 The electronic state is 1-A.
 Alpha  occ. eigenvalues --  -19.20775 -19.16920 -19.14764 -19.12287 -19.12163
 Alpha  occ. eigenvalues --  -19.10915 -14.39318 -14.34975 -14.34801 -14.28572
 Alpha  occ. eigenvalues --  -10.33755 -10.31298 -10.29384 -10.26415 -10.24047
 Alpha  occ. eigenvalues --  -10.24005 -10.23722 -10.23629 -10.22389 -10.22337
 Alpha  occ. eigenvalues --  -10.22224 -10.22090 -10.21660 -10.21578 -10.21532
 Alpha  occ. eigenvalues --  -10.21041 -10.20888 -10.20860 -10.20823 -10.20703
 Alpha  occ. eigenvalues --  -10.20578 -10.20474 -10.20446 -10.20110 -10.19977
 Alpha  occ. eigenvalues --  -10.19861 -10.19856 -10.19800 -10.19605 -10.19186
 Alpha  occ. eigenvalues --  -10.19089 -10.19022 -10.18803  -1.13360  -1.06185
 Alpha  occ. eigenvalues --   -1.05098  -1.02460  -1.01347  -1.00745  -0.97893
 Alpha  occ. eigenvalues --   -0.96500  -0.96068  -0.91442  -0.82762  -0.82650
 Alpha  occ. eigenvalues --   -0.81757  -0.81163  -0.80492  -0.79574  -0.77460
 Alpha  occ. eigenvalues --   -0.77429  -0.75882  -0.74937  -0.74708  -0.72813
 Alpha  occ. eigenvalues --   -0.72290  -0.70773  -0.69872  -0.69382  -0.68346
 Alpha  occ. eigenvalues --   -0.66731  -0.65285  -0.64518  -0.61384  -0.60368
 Alpha  occ. eigenvalues --   -0.59806  -0.59622  -0.58374  -0.57409  -0.56737
 Alpha  occ. eigenvalues --   -0.56094  -0.55577  -0.54416  -0.53661  -0.53500
 Alpha  occ. eigenvalues --   -0.51906  -0.51634  -0.51253  -0.50748  -0.49790
 Alpha  occ. eigenvalues --   -0.49469  -0.48557  -0.48137  -0.47857  -0.47441
 Alpha  occ. eigenvalues --   -0.46864  -0.46584  -0.46349  -0.46228  -0.45763
 Alpha  occ. eigenvalues --   -0.45161  -0.44620  -0.44379  -0.44203  -0.43990
 Alpha  occ. eigenvalues --   -0.43568  -0.43265  -0.43079  -0.42857  -0.42599
 Alpha  occ. eigenvalues --   -0.42278  -0.41979  -0.41622  -0.41393  -0.41150
 Alpha  occ. eigenvalues --   -0.40812  -0.40715  -0.40281  -0.39985  -0.39765
 Alpha  occ. eigenvalues --   -0.39663  -0.39192  -0.38990  -0.38721  -0.38465
 Alpha  occ. eigenvalues --   -0.38202  -0.37497  -0.37283  -0.36822  -0.36628
 Alpha  occ. eigenvalues --   -0.36496  -0.35884  -0.34692  -0.34579  -0.34434
 Alpha  occ. eigenvalues --   -0.34229  -0.33204  -0.33087  -0.31948  -0.31303
 Alpha  occ. eigenvalues --   -0.30800  -0.30030  -0.29453  -0.28568  -0.27386
 Alpha  occ. eigenvalues --   -0.27357  -0.27109  -0.26891  -0.25343  -0.24908
 Alpha  occ. eigenvalues --   -0.24809  -0.24366  -0.24106  -0.22534  -0.18369
 Alpha virt. eigenvalues --   -0.11212  -0.06771  -0.05296  -0.01753  -0.00174
 Alpha virt. eigenvalues --    0.00865   0.01042   0.01481   0.02800   0.03109
 Alpha virt. eigenvalues --    0.04267   0.04502   0.04687   0.05147   0.05812

 Mulliken charges:
               1
     1  O   -0.172804
     2  O   -0.250122
     3  O   -0.244614
     4  O   -0.107109
     5  O   -0.246802
     6  O   -0.209270
     7  N    0.018882
     8  N   -0.184058
     9  N   -0.142424
    10  N   -0.330069
    11  C    0.041761
    12  C    0.276354
    13  C   -0.144095
    14  C   -0.089546
    15  C   -0.011327
    16  C    0.110342
    17  C   -0.196097
    18  C   -0.100673
    19  C   -0.092462
    20  C   -0.120499
    21  C    0.055268
    22  C    0.160337
    23  C   -0.007718
    24  C    0.031902
    25  C    0.177908
    26  C   -0.137074
    27  C    0.005110
    28  C    0.138596
    29  C    0.064484
    30  C   -0.013294
    31  C   -0.104393
    32  C    0.142621
    33  C   -0.106696
    34  C    0.184297
    35  C    0.044050
    36  C   -0.092399
    37  C    0.149386
    38  C    0.086281
    39  C   -0.228605
    40  C    0.162698
    41  C   -0.046522
    42  C    0.116583
    43  C   -0.065931
    44  H    0.007820
    45  H    0.003247
    46  H   -0.033222
    47  H    0.119069
    48  H    0.099995
    49  H    0.024466
    50  H    0.051895
    51  H   -0.000543
    52  H   -0.000310
    53  H    0.038298
    54  H    0.046752
    55  H   -0.016239
    56  H   -0.015211
    57  H    0.048600
    58  H    0.066334
    59  H    0.023678
    60  H    0.167368
    61  H    0.008318
    62  H    0.021278
    63  H    0.050806
    64  H    0.051672
    65  H    0.047220
    66  H    0.013956
    67  H   -0.004108
    68  H    0.033443
    69  H   -0.012159
    70  H    0.043226
    71  H    0.050501
    72  H    0.202040
    73  H    0.032197
    74  H    0.005161
    75  H    0.067306
    76  H    0.028715
    77  H    0.139308
    78  H    0.046779
    79  H    0.020088
 Sum of Mulliken charges =  -0.00000

 Dipole moment (field-independent basis, Debye):
    X=             -0.2655    Y=              1.9073    Z=              2.7030  Tot=              3.3187
 Quadrupole moment (field-independent basis, Debye-Ang):
   XX=           -219.2703   YY=           -243.5595   ZZ=           -263.1220
   XY=             -4.9672   XZ=             32.7519   YZ=              5.8379

 Normal termination of Gaussian 16 at Wed Oct  2 03:29:45 2019.
