 Gaussian 16, Revision A.03,
 Gaussian 16:  ES64L-G16RevA.03 25-Dec-2016

 --------------------------
 # td=(NStates=1) B3LYP/SVP
 --------------------------

 --
 TD
 --
 Symbolic Z-matrix:
 Charge =  0 Multiplicity = 1

                         Standard orientation:
 ---------------------------------------------------------------------
 Center     Atomic      Atomic             Coordinates (Angstroms)
 Number     Number       Type             X           Y           Z
 ---------------------------------------------------------------------
      1          8           0        5.265582    0.032188   -3.339800
      2          8           0       -2.844430   -2.900975    3.520792
      3          8           0       -3.272387   -0.756456    3.013846
      4          8           0       -1.542569    6.988191    1.641826
      5          8           0       -1.030438    7.202425   -0.536523
      6          8           0       -1.803381   -3.875726    0.127515
      7          7           0        2.338133    1.062618    0.715341
      8          7           0        4.209812   -0.566287   -1.322706
      9          7           0       -1.906600    0.664467   -0.303010
     10          7           0       -2.641280   -1.866278   -0.476468
     11          6           0        4.653430   -1.210927   -0.051899
     12          6           0        4.379246   -0.283657    1.237787
     13          6           0        2.998194    0.059972    1.361869
     14          6           0        2.025558   -0.677724    2.185034
     15          6           0        0.784460   -0.052891    1.882093
     16          6           0        1.016020    0.991491    0.843557
     17          6           0        6.192194   -1.390872   -0.237197
     18          6           0       -0.552604   -0.293900    2.629851
     19          6           0        6.516206   -0.850287   -1.448318
     20          6           0        0.210987    1.913639    0.149410
     21          6           0       -1.097708    1.815338   -0.264356
     22          6           0        5.371017   -0.416091   -2.170911
     23          6           0       -1.877945    2.957808   -0.884198
     24          6           0        2.296333   -1.762420    3.206999
     25          6           0        7.096716   -1.994300    0.765946
     26          6           0       -3.157801    2.387360   -1.241859
     27          6           0       -1.036335   -1.691326    2.819467
     28          6           0       -3.110509    0.908393   -0.961169
     29          6           0       -1.481750    4.311330   -0.912807
     30          6           0        7.812896   -0.747602   -2.209820
     31          6           0       -1.574163    5.021595    0.419411
     32          6           0       -4.281529    3.127579   -2.082242
     33          6           0       -3.933243   -0.139263   -1.357567
     34          6           0       -2.485193   -1.675907    3.109169
     35          6           0       -3.751191   -1.462681   -1.103408
     36          6           0        9.067327   -0.651658   -1.668625
     37          6           0       -1.356286    6.431323    0.477609
     38          6           0       -4.572691   -2.638798   -1.557468
     39          6           0       -3.884222   -3.819175   -1.090398
     40          6           0       -2.664327   -3.246584   -0.389856
     41          6           0       -5.771530   -2.505664   -2.390435
     42          6           0       -4.194220   -5.220877   -1.101332
     43          6           0       -6.584210   -3.482619   -2.945580
     44          1           0        4.115394   -2.072265    0.344995
     45          1           0        5.142043    0.458499    1.137467
     46          1           0        4.775253   -1.081205    2.066749
     47          1           0        2.805989    1.491939   -0.078495
     48          1           0        3.198864   -0.719371   -1.702502
     49          1           0       -0.534359    0.190302    3.679525
     50          1           0       -1.349007    0.310543    2.251160
     51          1           0        0.782354    2.914009   -0.062702
     52          1           0        3.436805   -1.939667    3.511134
     53          1           0        2.005529   -1.425412    4.251109
     54          1           0        1.928199   -2.745456    3.007345
     55          1           0        6.717423   -2.643619    1.530153
     56          1           0        7.554989   -1.170301    1.414643
     57          1           0        7.703421   -2.710732    0.169515
     58          1           0       -0.983195   -2.271754    1.981752
     59          1           0       -0.487740   -2.154120    3.762031
     60          1           0       -1.669563   -0.269667   -0.121186
     61          1           0       -2.217717    4.765753   -1.825603
     62          1           0       -0.465036    4.205144   -1.393092
     63          1           0        7.800791   -0.565819   -3.467228
     64          1           0       -0.537389    4.501201    1.023554
     65          1           0       -2.359687    4.768251    1.169439
     66          1           0       -4.107073    4.121484   -2.319889
     67          1           0       -5.349264    2.938310   -1.744160
     68          1           0       -4.233186    2.557191   -3.072561
     69          1           0       -4.856703    0.030550   -1.887719
     70          1           0        9.242819   -0.836380   -0.465935
     71          1           0        9.790559   -0.559914   -2.333940
     72          1           0       -3.764106   -2.723869    3.711292
     73          1           0       -6.317973   -1.495355   -2.490412
     74          1           0       -5.058349   -5.461459   -0.543526
     75          1           0       -4.313393   -5.761504   -2.120797
     76          1           0       -3.504310   -5.680633   -0.331549
     77          1           0       -1.583392    7.962728    1.375476
     78          1           0       -7.487167   -3.175005   -3.553664
     79          1           0       -6.320049   -4.594840   -2.698283
 ---------------------------------------------------------------------

 SCF Done:  E(RB3LYP) =  -1947.86132677     A.U. after   19 cycles

 Excitation energies and oscillator strengths:

 Excited State   1:      Singlet-A      1.9833 eV  625.13 nm  f=0.4736  <S**2>=0.000
     154 ->156         0.15021
     155 ->156         0.68826
     155 <-156        -0.11423
 This state for optimization and/or second-order correction.
 Total Energy, E(TD-HF/TD-DFT) =  -1947.78844093
 Copying the excited state density for this state as the 1-particle RhoCI density.

 The electronic state is 1-A.
 Alpha  occ. eigenvalues --  -19.20106 -19.17118 -19.11798 -19.11748 -19.10356
 Alpha  occ. eigenvalues --  -19.09710 -14.39594 -14.36286 -14.36132 -14.27638
 Alpha  occ. eigenvalues --  -10.32700 -10.30510 -10.28994 -10.25512 -10.25343
 Alpha  occ. eigenvalues --  -10.25336 -10.24756 -10.23950 -10.23931 -10.23788
 Alpha  occ. eigenvalues --  -10.23577 -10.22690 -10.22633 -10.22447 -10.22412
 Alpha  occ. eigenvalues --  -10.22198 -10.22159 -10.22108 -10.21845 -10.21393
 Alpha  occ. eigenvalues --  -10.21215 -10.20969 -10.20871 -10.20836 -10.20803
 Alpha  occ. eigenvalues --  -10.20723 -10.20590 -10.20207 -10.19951 -10.18930
 Alpha  occ. eigenvalues --  -10.18735 -10.18527 -10.18177  -1.11449  -1.09772
 Alpha  occ. eigenvalues --   -1.02684  -1.00688  -1.00454  -0.99721  -0.96734
 Alpha  occ. eigenvalues --   -0.95966  -0.92167  -0.91175  -0.83888  -0.82263
 Alpha  occ. eigenvalues --   -0.81855  -0.81185  -0.79563  -0.78987  -0.78076
 Alpha  occ. eigenvalues --   -0.77550  -0.76984  -0.75890  -0.74695  -0.73010
 Alpha  occ. eigenvalues --   -0.72710  -0.71395  -0.69993  -0.68941  -0.68756
 Alpha  occ. eigenvalues --   -0.67223  -0.66055  -0.63609  -0.60555  -0.60363
 Alpha  occ. eigenvalues --   -0.59915  -0.58853  -0.58639  -0.57753  -0.57129
 Alpha  occ. eigenvalues --   -0.56142  -0.55451  -0.54868  -0.53222  -0.52338
 Alpha  occ. eigenvalues --   -0.51714  -0.51392  -0.50919  -0.50805  -0.49712
 Alpha  occ. eigenvalues --   -0.49431  -0.49089  -0.48821  -0.48140  -0.47966
 Alpha  occ. eigenvalues --   -0.47837  -0.47048  -0.46679  -0.46521  -0.46035
 Alpha  occ. eigenvalues --   -0.45312  -0.44955  -0.44739  -0.44442  -0.43720
 Alpha  occ. eigenvalues --   -0.43548  -0.43241  -0.43006  -0.42865  -0.42599
 Alpha  occ. eigenvalues --   -0.42290  -0.42142  -0.41756  -0.41338  -0.41271
 Alpha  occ. eigenvalues --   -0.40878  -0.40585  -0.40483  -0.40126  -0.39839
 Alpha  occ. eigenvalues --   -0.39398  -0.39242  -0.38704  -0.38589  -0.38212
 Alpha  occ. eigenvalues --   -0.38032  -0.37473  -0.37149  -0.37097  -0.36928
 Alpha  occ. eigenvalues --   -0.36848  -0.36465  -0.34858  -0.34530  -0.33915
 Alpha  occ. eigenvalues --   -0.33501  -0.33103  -0.32617  -0.31508  -0.31204
 Alpha  occ. eigenvalues --   -0.30757  -0.30487  -0.28418  -0.27499  -0.27221
 Alpha  occ. eigenvalues --   -0.26808  -0.26511  -0.25827  -0.25295  -0.25134
 Alpha  occ. eigenvalues --   -0.25059  -0.23746  -0.23388  -0.21310  -0.18522
 Alpha virt. eigenvalues --   -0.10767  -0.07084  -0.06546  -0.03306  -0.00891
 Alpha virt. eigenvalues --   -0.00333   0.00555   0.01615   0.02030   0.02641
 Alpha virt. eigenvalues --    0.02753   0.04102   0.04191   0.04526   0.04858

 Mulliken charges:
               1
     1  O   -0.249139
     2  O   -0.152725
     3  O   -0.239041
     4  O   -0.148395
     5  O   -0.335634
     6  O   -0.172005
     7  N    0.007235
     8  N   -0.274425
     9  N   -0.061714
    10  N   -0.280409
    11  C    0.058391
    12  C    0.105356
    13  C   -0.049341
    14  C   -0.101832
    15  C   -0.064970
    16  C    0.048281
    17  C   -0.135741
    18  C    0.052428
    19  C   -0.027240
    20  C   -0.159668
    21  C    0.134685
    22  C    0.178894
    23  C   -0.127184
    24  C    0.039879
    25  C    0.072413
    26  C   -0.116518
    27  C    0.053186
    28  C    0.146455
    29  C    0.060178
    30  C   -0.087426
    31  C   -0.020470
    32  C    0.083565
    33  C   -0.085250
    34  C    0.101665
    35  C    0.063436
    36  C   -0.005391
    37  C    0.141721
    38  C    0.085916
    39  C   -0.199983
    40  C    0.117146
    41  C   -0.085064
    42  C    0.081946
    43  C   -0.072840
    44  H    0.012103
    45  H   -0.022382
    46  H    0.024139
    47  H    0.120176
    48  H    0.169631
    49  H    0.007656
    50  H   -0.000839
    51  H    0.021663
    52  H    0.006657
    53  H    0.032270
    54  H    0.045171
    55  H    0.004464
    56  H    0.058772
    57  H    0.056168
    58  H    0.023195
    59  H    0.047405
    60  H    0.109208
    61  H    0.052992
    62  H    0.042939
    63  H    0.075440
    64  H    0.076109
    65  H    0.061140
    66  H    0.005095
    67  H    0.037083
    68  H    0.035860
    69  H   -0.052633
    70  H    0.048130
    71  H   -0.010274
    72  H    0.153299
    73  H    0.018620
    74  H    0.004774
    75  H    0.055525
    76  H    0.018650
    77  H    0.206946
    78  H    0.040753
    79  H    0.033718
 Sum of Mulliken charges =  -0.00000

 Dipole moment (field-independent basis, Debye):
    X=              1.3966    Y=              0.4255    Z=              4.1651  Tot=              4.4135
 Quadrupole moment (field-independent basis, Debye-Ang):
   XX=           -217.2976   YY=           -256.6381   ZZ=           -260.3924
   XY=            -14.8904   XZ=             29.3236   YZ=              5.7726

 Normal termination of Gaussian 16 at Mon Sep 30 22:37:53 2019.
