 Gaussian 16, Revision A.03,
 Gaussian 16:  ES64L-G16RevA.03 25-Dec-2016

 --------------------------
 # td=(NStates=1) B3LYP/SVP
 --------------------------

 --
 TD
 --
 Symbolic Z-matrix:
 Charge =  0 Multiplicity = 1

                         Standard orientation:
 ---------------------------------------------------------------------
 Center     Atomic      Atomic             Coordinates (Angstroms)
 Number     Number       Type             X           Y           Z
 ---------------------------------------------------------------------
      1          8           0       -3.259745   -1.102590   -2.873554
      2          8           0        2.902451    2.950390    3.139445
      3          8           0        3.693747    1.348253    4.454491
      4          8           0        7.664736   -1.518527   -0.672977
      5          8           0        6.702843   -2.928378   -2.186255
      6          8           0       -2.717934    1.526915    1.490243
      7          7           0       -0.316627   -2.456953    0.811806
      8          7           0       -2.662806   -1.172314   -0.658449
      9          7           0        1.098018    0.026259   -0.744499
     10          7           0       -1.024380    1.464680   -0.127191
     11          6           0       -3.368007   -1.437161    0.553692
     12          6           0       -2.661355   -2.417640    1.557063
     13          6           0       -1.209528   -2.128274    1.773453
     14          6           0       -0.513233   -1.381879    2.758028
     15          6           0        0.831901   -1.245786    2.453258
     16          6           0        0.932570   -2.068986    1.139046
     17          6           0       -4.750416   -1.870790    0.155062
     18          6           0        1.928313   -0.576811    3.201443
     19          6           0       -4.748956   -1.960433   -1.134264
     20          6           0        2.058301   -2.001460    0.218708
     21          6           0        2.047289   -0.962615   -0.674523
     22          6           0       -3.489759   -1.391412   -1.669715
     23          6           0        2.943184   -0.703032   -1.807525
     24          6           0       -1.201985   -0.656940    3.914251
     25          6           0       -5.917671   -2.162483    1.289574
     26          6           0        2.624627    0.512662   -2.414308
     27          6           0        1.978908    0.906133    2.743375
     28          6           0        1.394306    1.024953   -1.664072
     29          6           0        4.221566   -1.443610   -2.083043
     30          6           0       -5.823332   -2.387094   -2.100322
     31          6           0        5.487304   -0.893099   -1.366073
     32          6           0        3.205757    1.276664   -3.541241
     33          6           0        0.551446    2.079903   -1.882030
     34          6           0        3.008361    1.801876    3.550653
     35          6           0       -0.597545    2.296768   -1.067628
     36          6           0       -7.011435   -3.054078   -1.951390
     37          6           0        6.693107   -1.892075   -1.548686
     38          6           0       -1.534240    3.538011   -1.108625
     39          6           0       -2.271301    3.392942   -0.002890
     40          6           0       -2.128082    2.132037    0.590741
     41          6           0       -1.231753    4.577305   -2.125944
     42          6           0       -3.389716    4.296656    0.408728
     43          6           0       -1.824835    5.834924   -2.130445
     44          1           0       -3.322573   -0.358051    1.161541
     45          1           0       -2.663833   -3.414795    0.892585
     46          1           0       -3.198735   -2.283722    2.407171
     47          1           0       -0.421296   -2.914338   -0.078601
     48          1           0       -2.162388   -0.442876   -0.727477
     49          1           0        1.871747   -0.459605    4.345189
     50          1           0        2.886375   -1.121632    3.106010
     51          1           0        2.930522   -2.707955    0.248355
     52          1           0       -1.994829   -1.236738    4.307833
     53          1           0       -0.637978   -0.607134    4.757882
     54          1           0       -1.680187    0.361047    3.848574
     55          1           0       -5.778883   -1.665401    2.177892
     56          1           0       -5.692993   -3.129333    1.458772
     57          1           0       -6.941105   -2.003238    1.007782
     58          1           0        2.435066    0.822614    1.791980
     59          1           0        0.991919    1.452508    2.610547
     60          1           0        0.350500    0.392382   -0.186104
     61          1           0        4.378608   -1.470913   -3.151838
     62          1           0        4.015387   -2.396600   -1.771613
     63          1           0       -5.637430   -2.043367   -3.223349
     64          1           0        5.231043   -0.815574   -0.347484
     65          1           0        5.612626    0.187234   -1.833744
     66          1           0        3.916355    0.746683   -3.977260
     67          1           0        3.418193    2.408756   -3.214298
     68          1           0        2.441841    1.468126   -4.423890
     69          1           0        0.735993    2.645612   -2.933437
     70          1           0       -7.209772   -3.688883   -1.073154
     71          1           0       -7.549904   -3.311598   -2.919152
     72          1           0        3.657203    3.414495    3.472030
     73          1           0       -0.534137    4.695627   -2.878536
     74          1           0       -3.982578    4.561865   -0.490735
     75          1           0       -3.883997    3.917822    1.352339
     76          1           0       -2.957651    5.132114    1.094491
     77          1           0        8.390586   -2.204239   -0.515950
     78          1           0       -1.552576    6.540053   -2.901911
     79          1           0       -2.412095    6.077790   -1.381354
 ---------------------------------------------------------------------

 SCF Done:  E(RB3LYP) =  -1947.81323922     A.U. after   17 cycles

 Excitation energies and oscillator strengths:

 Excited State   1:      Singlet-A      0.9571 eV 1295.43 nm  f=0.0052  <S**2>=0.000
     155 ->156         0.70247
 This state for optimization and/or second-order correction.
 Total Energy, E(TD-HF/TD-DFT) =  -1947.77806686
 Copying the excited state density for this state as the 1-particle RhoCI density.

 The electronic state is 1-A.
 Alpha  occ. eigenvalues --  -19.20710 -19.19306 -19.14303 -19.13499 -19.11458
 Alpha  occ. eigenvalues --  -19.07266 -14.37509 -14.36027 -14.32020 -14.30773
 Alpha  occ. eigenvalues --  -10.33920 -10.31267 -10.29009 -10.25902 -10.25632
 Alpha  occ. eigenvalues --  -10.25074 -10.25011 -10.23040 -10.22718 -10.22392
 Alpha  occ. eigenvalues --  -10.22127 -10.22075 -10.22012 -10.21885 -10.21865
 Alpha  occ. eigenvalues --  -10.21250 -10.20957 -10.20883 -10.20714 -10.20574
 Alpha  occ. eigenvalues --  -10.20463 -10.20091 -10.19991 -10.19790 -10.19606
 Alpha  occ. eigenvalues --  -10.18795 -10.18768 -10.18688 -10.18414 -10.18169
 Alpha  occ. eigenvalues --  -10.17741 -10.16937 -10.16013  -1.15916  -1.09455
 Alpha  occ. eigenvalues --   -1.03375  -1.01287  -1.00538  -1.00288  -0.98692
 Alpha  occ. eigenvalues --   -0.97370  -0.93383  -0.92827  -0.83597  -0.82263
 Alpha  occ. eigenvalues --   -0.81440  -0.81154  -0.79540  -0.78746  -0.78280
 Alpha  occ. eigenvalues --   -0.77300  -0.75409  -0.75338  -0.73387  -0.72687
 Alpha  occ. eigenvalues --   -0.71310  -0.70684  -0.70108  -0.68810  -0.68165
 Alpha  occ. eigenvalues --   -0.67776  -0.66364  -0.63355  -0.61686  -0.61577
 Alpha  occ. eigenvalues --   -0.60789  -0.60070  -0.59808  -0.58086  -0.57300
 Alpha  occ. eigenvalues --   -0.56701  -0.55923  -0.55543  -0.53472  -0.53386
 Alpha  occ. eigenvalues --   -0.52029  -0.51250  -0.51080  -0.50688  -0.50403
 Alpha  occ. eigenvalues --   -0.49563  -0.49282  -0.49182  -0.48536  -0.48364
 Alpha  occ. eigenvalues --   -0.47588  -0.47188  -0.46364  -0.46143  -0.45713
 Alpha  occ. eigenvalues --   -0.45567  -0.44787  -0.44452  -0.44155  -0.44022
 Alpha  occ. eigenvalues --   -0.43418  -0.43247  -0.42901  -0.42481  -0.42349
 Alpha  occ. eigenvalues --   -0.42092  -0.41483  -0.41420  -0.41062  -0.40467
 Alpha  occ. eigenvalues --   -0.40106  -0.39936  -0.39881  -0.39564  -0.39348
 Alpha  occ. eigenvalues --   -0.39323  -0.38963  -0.38236  -0.37908  -0.37733
 Alpha  occ. eigenvalues --   -0.37694  -0.37444  -0.37329  -0.36895  -0.36015
 Alpha  occ. eigenvalues --   -0.35762  -0.35704  -0.35324  -0.34935  -0.34626
 Alpha  occ. eigenvalues --   -0.33485  -0.33249  -0.32405  -0.32276  -0.31906
 Alpha  occ. eigenvalues --   -0.31155  -0.30081  -0.29621  -0.29136  -0.28618
 Alpha  occ. eigenvalues --   -0.27090  -0.26503  -0.26106  -0.24789  -0.24440
 Alpha  occ. eigenvalues --   -0.23143  -0.22994  -0.22597  -0.21787  -0.18120
 Alpha virt. eigenvalues --   -0.12337  -0.07797  -0.03449  -0.02436  -0.01660
 Alpha virt. eigenvalues --    0.01365   0.02190   0.02379   0.02531   0.02799
 Alpha virt. eigenvalues --    0.03346   0.04199   0.04754   0.05264   0.05500

 Mulliken charges:
               1
     1  O   -0.284088
     2  O   -0.022490
     3  O   -0.252435
     4  O   -0.221365
     5  O   -0.213427
     6  O   -0.197334
     7  N    0.003910
     8  N   -0.007843
     9  N   -0.066705
    10  N   -0.346102
    11  C   -0.097365
    12  C    0.279543
    13  C   -0.096359
    14  C   -0.107217
    15  C   -0.083673
    16  C   -0.050660
    17  C   -0.143002
    18  C    0.083414
    19  C   -0.053238
    20  C   -0.137148
    21  C    0.152842
    22  C    0.090319
    23  C   -0.134690
    24  C    0.145235
    25  C    0.176943
    26  C   -0.100399
    27  C   -0.058458
    28  C    0.060018
    29  C    0.139478
    30  C   -0.050497
    31  C   -0.012334
    32  C    0.107816
    33  C   -0.117421
    34  C    0.071050
    35  C    0.063414
    36  C   -0.059661
    37  C    0.179394
    38  C    0.145185
    39  C   -0.218262
    40  C    0.213588
    41  C   -0.038101
    42  C    0.083595
    43  C    0.032564
    44  H    0.090230
    45  H   -0.009884
    46  H   -0.054743
    47  H    0.117095
    48  H    0.054578
    49  H    0.021528
    50  H    0.001739
    51  H    0.021006
    52  H   -0.037608
    53  H   -0.043045
    54  H    0.030718
    55  H   -0.005607
    56  H   -0.000013
    57  H    0.029459
    58  H    0.009372
    59  H    0.058805
    60  H    0.146461
    61  H    0.012504
    62  H   -0.021885
    63  H    0.041997
    64  H    0.026033
    65  H    0.058068
    66  H   -0.024738
    67  H    0.050525
    68  H    0.041541
    69  H    0.036654
    70  H    0.015682
    71  H    0.034542
    72  H    0.155612
    73  H   -0.029055
    74  H    0.063773
    75  H    0.017309
    76  H    0.022589
    77  H    0.207644
    78  H    0.030427
    79  H   -0.027351
 Sum of Mulliken charges =  -0.00000

 Dipole moment (field-independent basis, Debye):
    X=              3.8163    Y=              4.9920    Z=             -0.4084  Tot=              6.2969
 Quadrupole moment (field-independent basis, Debye-Ang):
   XX=           -235.9147   YY=           -225.7706   ZZ=           -270.8999
   XY=              5.2798   XZ=            -20.9880   YZ=            -13.3242

 Normal termination of Gaussian 16 at Tue Jul 30 03:38:41 2019.
