 Gaussian 16, Revision A.03,
 Gaussian 16:  ES64L-G16RevA.03 25-Dec-2016

 --------------------------
 # td=(NStates=1) B3LYP/SVP
 --------------------------

 --
 TD
 --
 Symbolic Z-matrix:
 Charge =  0 Multiplicity = 1

                         Standard orientation:
 ---------------------------------------------------------------------
 Center     Atomic      Atomic             Coordinates (Angstroms)
 Number     Number       Type             X           Y           Z
 ---------------------------------------------------------------------
      1          8           0       -3.356425   -0.921777   -2.878024
      2          8           0        3.076944    2.929402    3.527383
      3          8           0        3.681105    1.023829    4.498010
      4          8           0        7.798028   -1.272828   -0.864232
      5          8           0        6.673568   -2.901302   -2.062205
      6          8           0       -2.557355    1.555519    1.608034
      7          7           0       -0.222971   -2.484665    0.796540
      8          7           0       -2.560395   -1.231282   -0.554770
      9          7           0        1.101650    0.143039   -0.824213
     10          7           0       -0.986577    1.492152   -0.224760
     11          6           0       -3.320254   -1.456350    0.502481
     12          6           0       -2.648551   -2.593736    1.525464
     13          6           0       -1.193358   -2.209314    1.702344
     14          6           0       -0.615406   -1.434283    2.711568
     15          6           0        0.683198   -1.333251    2.493897
     16          6           0        0.922697   -1.899639    1.173216
     17          6           0       -4.703284   -1.900724    0.064863
     18          6           0        1.753237   -0.455479    3.174778
     19          6           0       -4.629707   -1.860827   -1.208798
     20          6           0        2.009083   -1.830874    0.176914
     21          6           0        2.128777   -0.843637   -0.747288
     22          6           0       -3.533773   -1.335747   -1.702585
     23          6           0        2.992371   -0.647988   -1.931890
     24          6           0       -1.351861   -0.713340    3.879182
     25          6           0       -5.712073   -2.487016    1.134265
     26          6           0        2.565620    0.623433   -2.479616
     27          6           0        1.782564    1.067999    2.993230
     28          6           0        1.434542    1.009483   -1.791318
     29          6           0        4.239459   -1.408084   -2.173637
     30          6           0       -5.753319   -2.202311   -2.172870
     31          6           0        5.362748   -1.008505   -1.326885
     32          6           0        3.162414    1.164915   -3.682001
     33          6           0        0.600534    2.099484   -1.966034
     34          6           0        2.946560    1.628977    3.803790
     35          6           0       -0.547609    2.321826   -1.075706
     36          6           0       -6.726075   -3.104157   -1.931987
     37          6           0        6.682760   -1.827128   -1.495351
     38          6           0       -1.456522    3.585504   -1.079450
     39          6           0       -2.349345    3.389661    0.023755
     40          6           0       -2.039384    2.028822    0.596896
     41          6           0       -1.306999    4.584454   -2.087839
     42          6           0       -3.374064    4.421673    0.628167
     43          6           0       -2.211615    5.555083   -2.251868
     44          1           0       -3.442617   -0.664396    1.172109
     45          1           0       -2.720991   -3.473224    0.987248
     46          1           0       -3.320388   -2.594286    2.441350
     47          1           0       -0.492975   -2.639806   -0.257222
     48          1           0       -2.040146   -0.434892   -0.594148
     49          1           0        1.583991   -0.527741    4.222464
     50          1           0        2.794035   -0.866931    3.017270
     51          1           0        2.733029   -2.686655    0.215041
     52          1           0       -1.927806   -1.395917    4.403835
     53          1           0       -0.521770   -0.336387    4.651807
     54          1           0       -1.850172    0.010847    3.376248
     55          1           0       -5.468486   -1.920506    2.099043
     56          1           0       -5.900071   -3.730533    1.299087
     57          1           0       -6.761185   -2.045783    0.774404
     58          1           0        1.914176    1.315957    1.992596
     59          1           0        0.695115    1.524193    3.423962
     60          1           0        0.310700    0.410729   -0.099023
     61          1           0        4.579998   -1.539179   -3.225273
     62          1           0        3.963427   -2.404038   -2.073108
     63          1           0       -5.751828   -1.657129   -3.108549
     64          1           0        5.265894   -0.964313   -0.264906
     65          1           0        5.505052    0.233345   -1.613150
     66          1           0        4.020196    0.661593   -4.103110
     67          1           0        3.595913    2.253698   -3.488162
     68          1           0        2.512637    1.076117   -4.692481
     69          1           0        0.912315    2.776655   -2.793125
     70          1           0       -6.968511   -3.552348   -0.817199
     71          1           0       -7.574078   -3.272699   -2.511316
     72          1           0        3.714755    3.386785    4.130149
     73          1           0       -0.392327    4.674093   -2.628467
     74          1           0       -4.013066    4.445096   -0.307043
     75          1           0       -3.832784    4.065388    1.498654
     76          1           0       -2.850833    5.436057    0.855344
     77          1           0        8.481711   -1.815625   -1.119881
     78          1           0       -2.171908    6.415674   -2.983443
     79          1           0       -3.190066    5.525171   -1.740421
 ---------------------------------------------------------------------

 SCF Done:  E(RB3LYP) =  -1947.81259974     A.U. after   16 cycles

 Excitation energies and oscillator strengths:

 Excited State   1:      Singlet-A      0.9040 eV 1371.54 nm  f=0.0000  <S**2>=0.000
     155 ->156         0.70306
 This state for optimization and/or second-order correction.
 Total Energy, E(TD-HF/TD-DFT) =  -1947.77937920
 Copying the excited state density for this state as the 1-particle RhoCI density.

 The electronic state is 1-A.
 Alpha  occ. eigenvalues --  -19.19215 -19.17514 -19.14814 -19.13442 -19.12183
 Alpha  occ. eigenvalues --  -19.09557 -14.36743 -14.35636 -14.32327 -14.31306
 Alpha  occ. eigenvalues --  -10.34122 -10.31080 -10.29615 -10.26764 -10.25324
 Alpha  occ. eigenvalues --  -10.24823 -10.24582 -10.23430 -10.23403 -10.23399
 Alpha  occ. eigenvalues --  -10.22250 -10.22217 -10.22005 -10.21917 -10.21636
 Alpha  occ. eigenvalues --  -10.21075 -10.21028 -10.20781 -10.20757 -10.20720
 Alpha  occ. eigenvalues --  -10.20676 -10.20272 -10.19950 -10.19944 -10.19399
 Alpha  occ. eigenvalues --  -10.19077 -10.19016 -10.18982 -10.17868 -10.17666
 Alpha  occ. eigenvalues --  -10.16637 -10.16320 -10.15528  -1.10566  -1.09843
 Alpha  occ. eigenvalues --   -1.03276  -1.02628  -1.01178  -1.00445  -0.98740
 Alpha  occ. eigenvalues --   -0.97203  -0.94601  -0.94448  -0.84132  -0.82722
 Alpha  occ. eigenvalues --   -0.81876  -0.81397  -0.79581  -0.79036  -0.77204
 Alpha  occ. eigenvalues --   -0.75921  -0.75521  -0.74715  -0.73737  -0.72418
 Alpha  occ. eigenvalues --   -0.71100  -0.69761  -0.69294  -0.68903  -0.67378
 Alpha  occ. eigenvalues --   -0.66373  -0.65637  -0.63198  -0.61543  -0.60398
 Alpha  occ. eigenvalues --   -0.59625  -0.59298  -0.58882  -0.58261  -0.57342
 Alpha  occ. eigenvalues --   -0.56027  -0.55190  -0.54574  -0.53578  -0.53036
 Alpha  occ. eigenvalues --   -0.51866  -0.51723  -0.51458  -0.50499  -0.49929
 Alpha  occ. eigenvalues --   -0.49566  -0.48780  -0.48666  -0.47796  -0.47383
 Alpha  occ. eigenvalues --   -0.47127  -0.46932  -0.46191  -0.45930  -0.45682
 Alpha  occ. eigenvalues --   -0.45544  -0.44978  -0.44831  -0.44273  -0.43727
 Alpha  occ. eigenvalues --   -0.43613  -0.43428  -0.42863  -0.42598  -0.42244
 Alpha  occ. eigenvalues --   -0.41849  -0.41746  -0.41305  -0.41035  -0.40947
 Alpha  occ. eigenvalues --   -0.40660  -0.40409  -0.40075  -0.40007  -0.39772
 Alpha  occ. eigenvalues --   -0.39403  -0.39120  -0.38930  -0.38243  -0.37750
 Alpha  occ. eigenvalues --   -0.36994  -0.36856  -0.36459  -0.36264  -0.36180
 Alpha  occ. eigenvalues --   -0.35794  -0.35521  -0.35184  -0.35020  -0.34139
 Alpha  occ. eigenvalues --   -0.33859  -0.33122  -0.32943  -0.32284  -0.31984
 Alpha  occ. eigenvalues --   -0.31642  -0.30021  -0.29985  -0.29624  -0.29411
 Alpha  occ. eigenvalues --   -0.27963  -0.26391  -0.26006  -0.25649  -0.24676
 Alpha  occ. eigenvalues --   -0.24206  -0.23363  -0.23160  -0.21445  -0.17888
 Alpha virt. eigenvalues --   -0.12046  -0.08002  -0.05149  -0.01991  -0.01229
 Alpha virt. eigenvalues --    0.00452   0.01400   0.02161   0.02565   0.03831
 Alpha virt. eigenvalues --    0.03974   0.04372   0.04845   0.05537   0.05975

 Mulliken charges:
               1
     1  O   -0.259145
     2  O   -0.189960
     3  O   -0.187684
     4  O   -0.168092
     5  O   -0.216714
     6  O   -0.200663
     7  N   -0.039228
     8  N   -0.143360
     9  N   -0.154140
    10  N   -0.305462
    11  C   -0.008081
    12  C    0.248450
    13  C   -0.149211
    14  C   -0.161423
    15  C   -0.063763
    16  C   -0.053521
    17  C   -0.099902
    18  C    0.095471
    19  C   -0.001945
    20  C   -0.162459
    21  C    0.158990
    22  C    0.111326
    23  C   -0.074025
    24  C    0.162885
    25  C   -0.025554
    26  C   -0.094856
    27  C   -0.034317
    28  C    0.130339
    29  C    0.177586
    30  C    0.020424
    31  C   -0.047973
    32  C    0.019450
    33  C   -0.119199
    34  C    0.111704
    35  C    0.091160
    36  C   -0.055013
    37  C    0.162645
    38  C    0.041850
    39  C   -0.228751
    40  C    0.217299
    41  C    0.005447
    42  C    0.075937
    43  C   -0.044124
    44  H    0.007055
    45  H   -0.060827
    46  H   -0.001773
    47  H    0.161114
    48  H    0.106872
    49  H   -0.015773
    50  H    0.005461
    51  H    0.025590
    52  H   -0.010406
    53  H    0.007950
    54  H    0.013547
    55  H    0.042552
    56  H    0.091489
    57  H    0.054529
    58  H    0.006943
    59  H    0.067875
    60  H    0.230236
    61  H    0.011717
    62  H   -0.013579
    63  H    0.011676
    64  H    0.040206
    65  H    0.051340
    66  H    0.003160
    67  H    0.042637
    68  H    0.056909
    69  H   -0.014669
    70  H    0.022346
    71  H    0.005607
    72  H    0.185883
    73  H   -0.010698
    74  H    0.060361
    75  H    0.015277
    76  H    0.054889
    77  H    0.149618
    78  H    0.035946
    79  H    0.016543
 Sum of Mulliken charges =  -0.00000

 Dipole moment (field-independent basis, Debye):
    X=              1.9937    Y=              3.5465    Z=             -1.2196  Tot=              4.2474
 Quadrupole moment (field-independent basis, Debye-Ang):
   XX=           -226.2166   YY=           -237.0254   ZZ=           -263.4290
   XY=              9.3712   XZ=            -22.8111   YZ=             -5.8540

 Normal termination of Gaussian 16 at Sun Jul 28 11:41:51 2019.
