 Gaussian 16, Revision A.03,
 Gaussian 16:  ES64L-G16RevA.03 25-Dec-2016

 --------------------------
 # td=(NStates=1) B3LYP/SVP
 --------------------------

 --
 TD
 --
 Symbolic Z-matrix:
 Charge =  0 Multiplicity = 1

                         Standard orientation:
 ---------------------------------------------------------------------
 Center     Atomic      Atomic             Coordinates (Angstroms)
 Number     Number       Type             X           Y           Z
 ---------------------------------------------------------------------
      1          8           0       -3.241893   -1.195523   -2.805705
      2          8           0        3.097174    3.121486    3.045614
      3          8           0        3.931581    1.458866    4.344620
      4          8           0        7.849460   -1.500080   -1.050832
      5          8           0        6.595546   -3.077872   -2.041688
      6          8           0       -2.557770    1.613739    1.542849
      7          7           0       -0.261214   -2.488154    1.016854
      8          7           0       -2.753413   -1.058552   -0.679643
      9          7           0        1.190698    0.186736   -0.684135
     10          7           0       -1.065835    1.393501   -0.251563
     11          6           0       -3.373249   -1.390050    0.655374
     12          6           0       -2.587918   -2.414800    1.580465
     13          6           0       -1.196707   -2.117712    1.833977
     14          6           0       -0.563022   -1.222409    2.837743
     15          6           0        0.831850   -1.173901    2.519439
     16          6           0        1.060391   -1.921938    1.324932
     17          6           0       -4.720925   -1.962142    0.247279
     18          6           0        1.859800   -0.388320    3.302720
     19          6           0       -4.862399   -2.037569   -1.090486
     20          6           0        2.127659   -1.803501    0.372718
     21          6           0        2.040895   -0.807704   -0.666919
     22          6           0       -3.586627   -1.365746   -1.650778
     23          6           0        2.991462   -0.603274   -1.791485
     24          6           0       -1.226902   -0.498950    3.979975
     25          6           0       -5.621346   -2.399411    1.343724
     26          6           0        2.588730    0.469550   -2.455965
     27          6           0        1.937354    1.189993    2.841043
     28          6           0        1.336550    1.005423   -1.775768
     29          6           0        4.191073   -1.428477   -2.052123
     30          6           0       -5.800085   -2.495445   -2.140683
     31          6           0        5.477306   -1.081170   -1.241821
     32          6           0        3.204489    1.082224   -3.768908
     33          6           0        0.436626    2.029174   -2.034423
     34          6           0        3.125193    1.817798    3.497987
     35          6           0       -0.723351    2.313048   -1.227969
     36          6           0       -6.946782   -3.198366   -1.786333
     37          6           0        6.604622   -2.050576   -1.431264
     38          6           0       -1.634494    3.442484   -1.266607
     39          6           0       -2.443720    3.335251   -0.127005
     40          6           0       -2.072916    2.013116    0.457383
     41          6           0       -1.386775    4.549833   -2.187150
     42          6           0       -3.548825    4.144736    0.319967
     43          6           0       -2.123476    5.717551   -2.250760
     44          1           0       -3.421398   -0.454450    1.288976
     45          1           0       -2.599219   -3.426150    1.079076
     46          1           0       -2.888697   -2.583174    2.593291
     47          1           0       -0.618696   -2.789700    0.127704
     48          1           0       -2.073075   -0.167864   -0.716586
     49          1           0        1.703507   -0.189065    4.311900
     50          1           0        2.779665   -1.065777    3.162131
     51          1           0        2.909718   -2.484760    0.109320
     52          1           0       -2.051921   -0.995110    4.550490
     53          1           0       -0.569761   -0.401860    4.988280
     54          1           0       -1.587888    0.532290    3.577186
     55          1           0       -5.680610   -1.737758    2.161859
     56          1           0       -5.593005   -3.332045    1.826071
     57          1           0       -6.611551   -2.427196    0.850578
     58          1           0        2.147722    1.390443    1.783235
     59          1           0        1.067780    1.792673    3.134400
     60          1           0        0.432687    0.542833   -0.005986
     61          1           0        4.582735   -1.269776   -3.191630
     62          1           0        3.912845   -2.420641   -1.786736
     63          1           0       -5.564659   -2.449774   -3.143975
     64          1           0        5.348148   -0.997485   -0.204151
     65          1           0        5.717611   -0.007283   -1.448896
     66          1           0        3.857347    0.393589   -4.303037
     67          1           0        3.879391    1.922822   -3.286851
     68          1           0        2.482784    1.627281   -4.472755
     69          1           0        0.502043    2.634165   -2.986959
     70          1           0       -7.100070   -3.639245   -0.828584
     71          1           0       -7.547299   -3.409618   -2.597418
     72          1           0        3.601514    3.633449    3.709925
     73          1           0       -0.525533    4.377947   -2.751762
     74          1           0       -4.271249    4.328184   -0.515004
     75          1           0       -4.094362    3.917890    1.359033
     76          1           0       -3.180389    5.074098    0.648331
     77          1           0        8.488885   -2.162514   -1.372886
     78          1           0       -2.010696    6.344727   -3.008128
     79          1           0       -2.955644    5.806890   -1.739549
 ---------------------------------------------------------------------

 SCF Done:  E(RB3LYP) =  -1947.88676341     A.U. after   22 cycles

 Excitation energies and oscillator strengths:

 Excited State   1:      Singlet-A      0.7085 eV 1749.95 nm  f=0.0025  <S**2>=0.000
     155 ->156         0.70306
 This state for optimization and/or second-order correction.
 Total Energy, E(TD-HF/TD-DFT) =  -1947.86072646
 Copying the excited state density for this state as the 1-particle RhoCI density.

 The electronic state is 1-A.
 Alpha  occ. eigenvalues --  -19.17764 -19.17066 -19.14529 -19.13087 -19.12330
 Alpha  occ. eigenvalues --  -19.06617 -14.37771 -14.36539 -14.32332 -14.31900
 Alpha  occ. eigenvalues --  -10.33370 -10.31796 -10.28539 -10.27453 -10.26472
 Alpha  occ. eigenvalues --  -10.25542 -10.25080 -10.23206 -10.23121 -10.22846
 Alpha  occ. eigenvalues --  -10.22509 -10.22323 -10.22323 -10.22320 -10.22286
 Alpha  occ. eigenvalues --  -10.22207 -10.22190 -10.21808 -10.20980 -10.20777
 Alpha  occ. eigenvalues --  -10.20767 -10.20422 -10.20399 -10.19583 -10.19496
 Alpha  occ. eigenvalues --  -10.19394 -10.19233 -10.18913 -10.18764 -10.18107
 Alpha  occ. eigenvalues --  -10.18097 -10.18045 -10.17062  -1.09798  -1.08350
 Alpha  occ. eigenvalues --   -1.02128  -1.01167  -1.00916  -1.00185  -0.99573
 Alpha  occ. eigenvalues --   -0.96629  -0.94071  -0.90288  -0.84424  -0.82558
 Alpha  occ. eigenvalues --   -0.82027  -0.80146  -0.79918  -0.79325  -0.78206
 Alpha  occ. eigenvalues --   -0.77470  -0.76222  -0.75644  -0.74700  -0.72878
 Alpha  occ. eigenvalues --   -0.72108  -0.70054  -0.69821  -0.69333  -0.67878
 Alpha  occ. eigenvalues --   -0.66578  -0.65807  -0.64159  -0.62545  -0.60693
 Alpha  occ. eigenvalues --   -0.59743  -0.59421  -0.58124  -0.57726  -0.56537
 Alpha  occ. eigenvalues --   -0.55846  -0.55341  -0.54606  -0.54054  -0.53064
 Alpha  occ. eigenvalues --   -0.52395  -0.51969  -0.51743  -0.49999  -0.49855
 Alpha  occ. eigenvalues --   -0.48935  -0.48661  -0.48485  -0.48189  -0.48061
 Alpha  occ. eigenvalues --   -0.47702  -0.47307  -0.46575  -0.46454  -0.46143
 Alpha  occ. eigenvalues --   -0.45749  -0.45252  -0.45113  -0.44501  -0.43977
 Alpha  occ. eigenvalues --   -0.43821  -0.43478  -0.43104  -0.42917  -0.42276
 Alpha  occ. eigenvalues --   -0.42092  -0.41819  -0.41349  -0.41241  -0.41056
 Alpha  occ. eigenvalues --   -0.40944  -0.40616  -0.40298  -0.40231  -0.40004
 Alpha  occ. eigenvalues --   -0.39535  -0.39388  -0.39017  -0.38895  -0.38242
 Alpha  occ. eigenvalues --   -0.38218  -0.37777  -0.37165  -0.36659  -0.36528
 Alpha  occ. eigenvalues --   -0.36282  -0.35923  -0.35714  -0.35269  -0.34414
 Alpha  occ. eigenvalues --   -0.33995  -0.33624  -0.33055  -0.32103  -0.31975
 Alpha  occ. eigenvalues --   -0.31199  -0.30379  -0.30060  -0.29811  -0.28880
 Alpha  occ. eigenvalues --   -0.28190  -0.27813  -0.26165  -0.24222  -0.23655
 Alpha  occ. eigenvalues --   -0.23259  -0.22681  -0.22313  -0.22130  -0.18435
 Alpha virt. eigenvalues --   -0.13380  -0.08028  -0.04601  -0.02929  -0.01843
 Alpha virt. eigenvalues --   -0.00296   0.01177   0.02169   0.02983   0.03328
 Alpha virt. eigenvalues --    0.03907   0.04750   0.05262   0.05749   0.05913

 Mulliken charges:
               1
     1  O   -0.254278
     2  O   -0.226559
     3  O   -0.227891
     4  O   -0.236167
     5  O   -0.197089
     6  O   -0.232440
     7  N   -0.033756
     8  N   -0.215772
     9  N   -0.046603
    10  N   -0.352697
    11  C    0.091072
    12  C    0.186812
    13  C   -0.160467
    14  C   -0.095094
    15  C   -0.087620
    16  C    0.049689
    17  C   -0.166542
    18  C    0.123473
    19  C   -0.026596
    20  C   -0.030837
    21  C   -0.005832
    22  C    0.080828
    23  C   -0.062287
    24  C   -0.021739
    25  C    0.121483
    26  C   -0.109877
    27  C   -0.022003
    28  C    0.095906
    29  C    0.073833
    30  C   -0.000180
    31  C    0.019673
    32  C    0.055260
    33  C   -0.093761
    34  C    0.140687
    35  C    0.066427
    36  C    0.019972
    37  C    0.157300
    38  C    0.060703
    39  C   -0.157421
    40  C    0.178549
    41  C   -0.029203
    42  C    0.069710
    43  C    0.120826
    44  H    0.053388
    45  H   -0.018044
    46  H    0.002045
    47  H    0.109865
    48  H    0.194277
    49  H   -0.012623
    50  H    0.031066
    51  H   -0.026459
    52  H    0.003647
    53  H    0.011323
    54  H    0.064221
    55  H   -0.002555
    56  H    0.013108
    57  H    0.007539
    58  H    0.031688
    59  H    0.059349
    60  H    0.205727
    61  H    0.044827
    62  H    0.018554
    63  H   -0.013708
    64  H    0.019599
    65  H    0.040401
    66  H    0.030526
    67  H    0.045324
    68  H    0.051314
    69  H    0.011934
    70  H    0.017948
    71  H    0.000357
    72  H    0.174901
    73  H   -0.038178
    74  H    0.059365
    75  H    0.047321
    76  H    0.012251
    77  H    0.179092
    78  H   -0.008388
    79  H   -0.040492
 Sum of Mulliken charges =  -0.00000

 Dipole moment (field-independent basis, Debye):
    X=              1.2633    Y=              4.1819    Z=             -1.2943  Tot=              4.5562
 Quadrupole moment (field-independent basis, Debye-Ang):
   XX=           -243.1682   YY=           -233.7375   ZZ=           -262.1959
   XY=              3.3405   XZ=            -25.2095   YZ=            -11.6938

 Normal termination of Gaussian 16 at Fri Jul 26 04:25:46 2019.
