 Gaussian 16, Revision A.03,
 Gaussian 16:  ES64L-G16RevA.03 25-Dec-2016

 --------------------------
 # td=(NStates=1) B3LYP/SVP
 --------------------------

 --
 TD
 --
 Symbolic Z-matrix:
 Charge =  0 Multiplicity = 1

                         Standard orientation:
 ---------------------------------------------------------------------
 Center     Atomic      Atomic             Coordinates (Angstroms)
 Number     Number       Type             X           Y           Z
 ---------------------------------------------------------------------
      1          8           0       -3.230772   -1.560742   -2.776476
      2          8           0        3.016471    3.481099    2.914478
      3          8           0        3.857838    1.715032    4.132056
      4          8           0        7.579275   -1.739015   -0.474673
      5          8           0        6.703208   -3.123617   -2.044770
      6          8           0       -2.661956    1.653577    1.299765
      7          7           0       -0.213731   -2.324677    1.138455
      8          7           0       -2.608606   -1.394728   -0.507998
      9          7           0        1.145194    0.101485   -0.683630
     10          7           0       -1.106086    1.380580   -0.375726
     11          6           0       -3.318909   -1.420893    0.703466
     12          6           0       -2.578522   -2.259902    1.828848
     13          6           0       -1.159137   -1.981264    2.089733
     14          6           0       -0.591888   -1.014356    2.905476
     15          6           0        0.809010   -0.981776    2.505039
     16          6           0        1.015065   -1.740083    1.431673
     17          6           0       -4.710272   -1.957326    0.437700
     18          6           0        1.833013   -0.099288    3.239799
     19          6           0       -4.755214   -2.126585   -0.946351
     20          6           0        2.101639   -1.885918    0.420401
     21          6           0        2.118873   -0.944469   -0.603639
     22          6           0       -3.409837   -1.618059   -1.564273
     23          6           0        2.897815   -0.835270   -1.797553
     24          6           0       -1.180533   -0.223451    4.013715
     25          6           0       -5.665861   -2.162677    1.559550
     26          6           0        2.448500    0.262670   -2.579226
     27          6           0        1.916793    1.363464    2.702879
     28          6           0        1.370324    0.784222   -1.879127
     29          6           0        4.201314   -1.514334   -2.155496
     30          6           0       -5.812392   -2.598474   -1.888331
     31          6           0        5.332116   -1.224286   -1.020985
     32          6           0        3.108116    0.937287   -3.797142
     33          6           0        0.439488    1.806606   -2.119394
     34          6           0        3.022787    2.213887    3.338631
     35          6           0       -0.691866    2.190726   -1.301927
     36          6           0       -6.980745   -3.227795   -1.629864
     37          6           0        6.604949   -2.184346   -1.352147
     38          6           0       -1.478134    3.441747   -1.421813
     39          6           0       -2.306660    3.424725   -0.375511
     40          6           0       -2.080719    2.033947    0.309975
     41          6           0       -1.360202    4.374576   -2.527972
     42          6           0       -3.402724    4.272446    0.113935
     43          6           0       -1.975399    5.627196   -2.607915
     44          1           0       -3.372058   -0.260294    1.042717
     45          1           0       -2.939954   -3.326492    1.351755
     46          1           0       -3.059409   -2.302218    2.916897
     47          1           0       -0.396521   -2.532169    0.236092
     48          1           0       -2.065069   -0.514099   -0.721442
     49          1           0        1.738905   -0.130405    4.147631
     50          1           0        2.643668   -0.547941    2.777100
     51          1           0        2.914887   -2.542465    0.418101
     52          1           0       -1.859798   -0.939653    4.852880
     53          1           0       -0.290924    0.446062    4.612413
     54          1           0       -1.687476    0.400033    3.265660
     55          1           0       -5.457739   -1.468370    2.400195
     56          1           0       -5.456178   -3.116625    1.845874
     57          1           0       -6.723403   -1.865837    1.177145
     58          1           0        1.752488    1.526235    1.585922
     59          1           0        0.891127    1.993579    2.736858
     60          1           0        0.553422    0.777881   -0.008764
     61          1           0        4.553741   -1.320983   -3.245121
     62          1           0        4.154378   -2.716836   -1.930416
     63          1           0       -5.542822   -2.567172   -2.735308
     64          1           0        5.164257   -1.616566    0.036665
     65          1           0        5.672253   -0.144800   -1.039438
     66          1           0        4.166695    0.640756   -3.956203
     67          1           0        3.134761    2.265666   -3.473192
     68          1           0        2.420573    0.756932   -4.741227
     69          1           0        0.762308    2.495964   -2.839717
     70          1           0       -7.268942   -3.535303   -0.681908
     71          1           0       -7.448669   -3.748026   -2.498951
     72          1           0        3.634576    3.865283    3.303033
     73          1           0       -0.479634    4.346313   -3.191303
     74          1           0       -4.198543    4.402056   -0.602782
     75          1           0       -3.788098    3.792391    0.925249
     76          1           0       -3.017269    5.324170    0.482499
     77          1           0        8.424658   -2.130354   -0.578622
     78          1           0       -1.830826    6.196575   -3.456685
     79          1           0       -2.893992    5.949727   -2.007273
 ---------------------------------------------------------------------

 SCF Done:  E(RB3LYP) =  -1947.70908499     A.U. after   16 cycles

 Excitation energies and oscillator strengths:

 Excited State   1:      Singlet-A      1.2309 eV 1007.26 nm  f=0.0006  <S**2>=0.000
     155 ->156         0.70161
 This state for optimization and/or second-order correction.
 Total Energy, E(TD-HF/TD-DFT) =  -1947.66385020
 Copying the excited state density for this state as the 1-particle RhoCI density.

 The electronic state is 1-A.
 Alpha  occ. eigenvalues --  -19.18710 -19.18342 -19.15543 -19.13289 -19.12691
 Alpha  occ. eigenvalues --  -19.08531 -14.36810 -14.34479 -14.33383 -14.31498
 Alpha  occ. eigenvalues --  -10.34009 -10.32983 -10.28861 -10.26601 -10.26270
 Alpha  occ. eigenvalues --  -10.25918 -10.25875 -10.25329 -10.24682 -10.24302
 Alpha  occ. eigenvalues --  -10.24108 -10.23218 -10.23163 -10.22201 -10.22149
 Alpha  occ. eigenvalues --  -10.21675 -10.21451 -10.21098 -10.21087 -10.20741
 Alpha  occ. eigenvalues --  -10.20701 -10.20446 -10.20287 -10.20153 -10.19895
 Alpha  occ. eigenvalues --  -10.19477 -10.19329 -10.18345 -10.17277 -10.17219
 Alpha  occ. eigenvalues --  -10.16969 -10.16945 -10.16509  -1.13027  -1.11133
 Alpha  occ. eigenvalues --   -1.05006  -1.03456  -1.00602  -0.99981  -0.98633
 Alpha  occ. eigenvalues --   -0.96475  -0.96138  -0.93522  -0.83400  -0.82340
 Alpha  occ. eigenvalues --   -0.82248  -0.80605  -0.79948  -0.78157  -0.77730
 Alpha  occ. eigenvalues --   -0.76724  -0.76198  -0.75848  -0.74325  -0.72352
 Alpha  occ. eigenvalues --   -0.71475  -0.71090  -0.69483  -0.69199  -0.68898
 Alpha  occ. eigenvalues --   -0.67430  -0.66301  -0.62967  -0.62190  -0.61802
 Alpha  occ. eigenvalues --   -0.61196  -0.60234  -0.59528  -0.57285  -0.55856
 Alpha  occ. eigenvalues --   -0.55303  -0.54851  -0.54442  -0.54143  -0.53427
 Alpha  occ. eigenvalues --   -0.52481  -0.51552  -0.50990  -0.50367  -0.49861
 Alpha  occ. eigenvalues --   -0.49646  -0.48959  -0.48902  -0.48762  -0.48440
 Alpha  occ. eigenvalues --   -0.48136  -0.47372  -0.46481  -0.46215  -0.45742
 Alpha  occ. eigenvalues --   -0.45505  -0.45115  -0.45035  -0.44703  -0.44118
 Alpha  occ. eigenvalues --   -0.43784  -0.43538  -0.43041  -0.42975  -0.42318
 Alpha  occ. eigenvalues --   -0.42195  -0.41907  -0.41803  -0.41301  -0.41150
 Alpha  occ. eigenvalues --   -0.40825  -0.40475  -0.40320  -0.39946  -0.39893
 Alpha  occ. eigenvalues --   -0.39601  -0.39156  -0.39135  -0.38477  -0.37840
 Alpha  occ. eigenvalues --   -0.37527  -0.37216  -0.37096  -0.36990  -0.36745
 Alpha  occ. eigenvalues --   -0.36212  -0.36177  -0.35700  -0.35130  -0.34396
 Alpha  occ. eigenvalues --   -0.33859  -0.33085  -0.32734  -0.32238  -0.31773
 Alpha  occ. eigenvalues --   -0.30921  -0.30500  -0.30114  -0.29788  -0.29743
 Alpha  occ. eigenvalues --   -0.28110  -0.27146  -0.26113  -0.25126  -0.24521
 Alpha  occ. eigenvalues --   -0.23502  -0.22737  -0.22466  -0.21746  -0.19978
 Alpha virt. eigenvalues --   -0.12998  -0.08275  -0.03784  -0.03185  -0.01128
 Alpha virt. eigenvalues --   -0.00514   0.00709   0.01409   0.01509   0.02816
 Alpha virt. eigenvalues --    0.03620   0.04106   0.04301   0.05374   0.05513

 Mulliken charges:
               1
     1  O   -0.242053
     2  O   -0.052938
     3  O   -0.265276
     4  O   -0.209523
     5  O   -0.156239
     6  O   -0.190177
     7  N   -0.039530
     8  N   -0.145499
     9  N   -0.196212
    10  N   -0.253133
    11  C    0.000227
    12  C    0.033322
    13  C   -0.028599
    14  C   -0.085571
    15  C   -0.189796
    16  C    0.031664
    17  C   -0.185517
    18  C    0.383085
    19  C   -0.117676
    20  C   -0.064436
    21  C    0.121824
    22  C    0.120394
    23  C   -0.013887
    24  C   -0.041635
    25  C    0.142451
    26  C   -0.074800
    27  C   -0.116104
    28  C    0.079607
    29  C   -0.008762
    30  C    0.142898
    31  C   -0.084625
    32  C   -0.021836
    33  C   -0.025411
    34  C    0.157114
    35  C    0.036636
    36  C   -0.005251
    37  C    0.137180
    38  C    0.095493
    39  C   -0.239093
    40  C    0.151218
    41  C   -0.040071
    42  C    0.133696
    43  C   -0.028594
    44  H    0.080765
    45  H    0.005685
    46  H    0.020747
    47  H    0.079174
    48  H    0.161369
    49  H   -0.078450
    50  H   -0.027051
    51  H   -0.024410
    52  H    0.055507
    53  H    0.035227
    54  H    0.065601
    55  H    0.022614
    56  H    0.012619
    57  H    0.052431
    58  H    0.006329
    59  H    0.031936
    60  H    0.240072
    61  H    0.058109
    62  H    0.054491
    63  H   -0.145159
    64  H    0.077801
    65  H    0.058113
    66  H    0.043849
    67  H    0.059229
    68  H    0.078594
    69  H   -0.063437
    70  H   -0.013225
    71  H    0.024358
    72  H    0.089729
    73  H    0.011596
    74  H    0.034063
    75  H   -0.009668
    76  H    0.042657
    77  H    0.163430
    78  H    0.012048
    79  H    0.038691
 Sum of Mulliken charges =  -0.00000

 Dipole moment (field-independent basis, Debye):
    X=              4.7532    Y=              4.4347    Z=             -1.2464  Tot=              6.6191
 Quadrupole moment (field-independent basis, Debye-Ang):
   XX=           -234.8908   YY=           -239.3015   ZZ=           -267.6027
   XY=             -1.4070   XZ=            -25.5171   YZ=            -14.9974

 Normal termination of Gaussian 16 at Wed Jul 31 09:25:42 2019.
