 Gaussian 16, Revision A.03,
 Gaussian 16:  ES64L-G16RevA.03 25-Dec-2016

 --------------------------
 # td=(NStates=1) B3LYP/SVP
 --------------------------

 --
 TD
 --
 Symbolic Z-matrix:
 Charge =  0 Multiplicity = 1

                         Standard orientation:
 ---------------------------------------------------------------------
 Center     Atomic      Atomic             Coordinates (Angstroms)
 Number     Number       Type             X           Y           Z
 ---------------------------------------------------------------------
      1          8           0        5.240693   -0.103854   -3.282376
      2          8           0       -2.938624   -2.877762    3.323887
      3          8           0       -3.373314   -0.676955    2.901443
      4          8           0       -1.328288    7.039712    1.677432
      5          8           0       -0.706967    7.008358   -0.540638
      6          8           0       -1.789437   -4.063243    0.137767
      7          7           0        2.363415    0.879715    0.583608
      8          7           0        4.312254   -0.740690   -1.261960
      9          7           0       -1.764376    0.647601   -0.544064
     10          7           0       -2.540700   -1.837954   -0.530313
     11          6           0        4.713904   -1.264278    0.036209
     12          6           0        4.365265   -0.290129    1.205747
     13          6           0        2.865786   -0.088764    1.307531
     14          6           0        1.910806   -0.518752    2.243210
     15          6           0        0.681061    0.065123    1.947755
     16          6           0        0.968737    0.972674    0.822207
     17          6           0        6.227579   -1.398581   -0.196825
     18          6           0       -0.651226   -0.117201    2.508264
     19          6           0        6.547839   -0.889708   -1.353737
     20          6           0        0.155792    2.031536    0.222893
     21          6           0       -1.103527    1.842219   -0.313708
     22          6           0        5.385738   -0.606296   -2.168706
     23          6           0       -1.910590    2.896338   -0.923065
     24          6           0        2.036566   -1.710129    3.198421
     25          6           0        7.127333   -2.001989    0.893088
     26          6           0       -3.097151    2.350049   -1.432881
     27          6           0       -1.149241   -1.537791    2.681650
     28          6           0       -2.911109    0.820102   -1.168653
     29          6           0       -1.500425    4.341821   -0.966247
     30          6           0        7.875477   -0.708543   -2.081936
     31          6           0       -1.734423    5.063456    0.364039
     32          6           0       -4.241595    2.972317   -2.073266
     33          6           0       -3.871555   -0.090626   -1.445725
     34          6           0       -2.585977   -1.618818    2.943438
     35          6           0       -3.741188   -1.479640   -1.141848
     36          6           0        9.127486   -0.706950   -1.488967
     37          6           0       -1.247947    6.377956    0.434381
     38          6           0       -4.564491   -2.642382   -1.481599
     39          6           0       -3.912155   -3.707032   -1.011404
     40          6           0       -2.648286   -3.298260   -0.391398
     41          6           0       -5.871988   -2.337074   -2.018372
     42          6           0       -4.163838   -5.080899   -1.173805
     43          6           0       -6.743594   -3.315396   -2.519140
     44          1           0        4.361249   -2.328226    0.158258
     45          1           0        5.009560    0.468503    1.339628
     46          1           0        4.687215   -0.786506    2.115372
     47          1           0        2.730391    1.421711   -0.191267
     48          1           0        3.348098   -0.806232   -1.616922
     49          1           0       -0.663143    0.476561    3.572729
     50          1           0       -1.416896    0.462868    1.849200
     51          1           0        0.603400    2.935290    0.072997
     52          1           0        3.160026   -2.028893    3.112007
     53          1           0        1.762272   -1.633999    4.429603
     54          1           0        1.741806   -2.661866    2.692254
     55          1           0        6.742322   -2.792879    1.666702
     56          1           0        7.670785   -1.136182    1.310423
     57          1           0        7.852565   -2.398821    0.583033
     58          1           0       -0.872671   -2.219259    1.907519
     59          1           0       -0.605732   -2.034331    3.529830
     60          1           0       -1.579955   -0.333331   -0.086860
     61          1           0       -1.968399    4.942956   -1.683299
     62          1           0       -0.323007    4.344868   -1.010688
     63          1           0        7.747635   -0.472119   -3.169433
     64          1           0       -1.324959    4.423773    1.248754
     65          1           0       -2.847913    4.978370    0.651458
     66          1           0       -4.296245    4.024825   -1.841510
     67          1           0       -5.144691    2.746583   -1.705124
     68          1           0       -4.360132    2.614354   -3.061043
     69          1           0       -4.766264    0.046153   -2.010940
     70          1           0        9.200066   -0.597241   -0.406978
     71          1           0       10.078744   -0.535977   -2.079186
     72          1           0       -3.958652   -2.752974    3.374510
     73          1           0       -6.242585   -1.391574   -2.066933
     74          1           0       -4.909289   -5.632174   -0.465618
     75          1           0       -4.411072   -5.323914   -2.125615
     76          1           0       -3.079185   -5.611999   -0.837365
     77          1           0       -1.042573    7.938876    1.589390
     78          1           0       -7.728190   -3.123456   -2.925761
     79          1           0       -6.615603   -4.420613   -2.135458
 ---------------------------------------------------------------------

 SCF Done:  E(RB3LYP) =  -1947.82831935     A.U. after   17 cycles

 Excitation energies and oscillator strengths:

 Excited State   1:      Singlet-A      1.9292 eV  642.67 nm  f=0.3484  <S**2>=0.000
     154 ->156         0.11862
     155 ->156         0.69115
     155 <-156        -0.10072
 This state for optimization and/or second-order correction.
 Total Energy, E(TD-HF/TD-DFT) =  -1947.75742216
 Copying the excited state density for this state as the 1-particle RhoCI density.

 The electronic state is 1-A.
 Alpha  occ. eigenvalues --  -19.17901 -19.17551 -19.13012 -19.11658 -19.11246
 Alpha  occ. eigenvalues --  -19.10282 -14.38990 -14.36992 -14.34752 -14.29330
 Alpha  occ. eigenvalues --  -10.33144 -10.30739 -10.28443 -10.26872 -10.25316
 Alpha  occ. eigenvalues --  -10.24870 -10.24403 -10.23296 -10.23108 -10.22850
 Alpha  occ. eigenvalues --  -10.22504 -10.22462 -10.21653 -10.21556 -10.21509
 Alpha  occ. eigenvalues --  -10.21498 -10.21325 -10.21298 -10.21128 -10.20999
 Alpha  occ. eigenvalues --  -10.20921 -10.20471 -10.20352 -10.20239 -10.20147
 Alpha  occ. eigenvalues --  -10.20140 -10.19436 -10.19368 -10.19263 -10.19092
 Alpha  occ. eigenvalues --  -10.18838 -10.18711 -10.18484  -1.07775  -1.07359
 Alpha  occ. eigenvalues --   -1.01963  -0.99629  -0.99361  -0.98805  -0.98600
 Alpha  occ. eigenvalues --   -0.98077  -0.93697  -0.90751  -0.83624  -0.82293
 Alpha  occ. eigenvalues --   -0.82076  -0.81467  -0.80649  -0.79878  -0.79070
 Alpha  occ. eigenvalues --   -0.77491  -0.77192  -0.76016  -0.74973  -0.73806
 Alpha  occ. eigenvalues --   -0.73069  -0.71253  -0.69991  -0.69042  -0.68867
 Alpha  occ. eigenvalues --   -0.67437  -0.66651  -0.64327  -0.61251  -0.60521
 Alpha  occ. eigenvalues --   -0.59828  -0.59007  -0.58818  -0.58358  -0.57394
 Alpha  occ. eigenvalues --   -0.56733  -0.56084  -0.55781  -0.54177  -0.53745
 Alpha  occ. eigenvalues --   -0.52210  -0.51807  -0.51147  -0.50918  -0.50091
 Alpha  occ. eigenvalues --   -0.49643  -0.48942  -0.48293  -0.48093  -0.47513
 Alpha  occ. eigenvalues --   -0.47331  -0.47164  -0.47097  -0.46715  -0.46428
 Alpha  occ. eigenvalues --   -0.45842  -0.45369  -0.44880  -0.44141  -0.43846
 Alpha  occ. eigenvalues --   -0.43714  -0.43471  -0.43142  -0.42866  -0.42709
 Alpha  occ. eigenvalues --   -0.42370  -0.41893  -0.41434  -0.41014  -0.40798
 Alpha  occ. eigenvalues --   -0.40571  -0.40294  -0.39995  -0.39858  -0.39663
 Alpha  occ. eigenvalues --   -0.39481  -0.39331  -0.39124  -0.38672  -0.38501
 Alpha  occ. eigenvalues --   -0.38305  -0.38009  -0.37802  -0.37594  -0.36896
 Alpha  occ. eigenvalues --   -0.36797  -0.35869  -0.35256  -0.34679  -0.34557
 Alpha  occ. eigenvalues --   -0.34273  -0.33239  -0.31860  -0.31608  -0.31346
 Alpha  occ. eigenvalues --   -0.31217  -0.31070  -0.28160  -0.27978  -0.27737
 Alpha  occ. eigenvalues --   -0.27299  -0.26179  -0.26075  -0.25862  -0.25012
 Alpha  occ. eigenvalues --   -0.24510  -0.24486  -0.23786  -0.22024  -0.19041
 Alpha virt. eigenvalues --   -0.11221  -0.06749  -0.05842  -0.03128  -0.01881
 Alpha virt. eigenvalues --   -0.00030   0.00767   0.01123   0.02672   0.03427
 Alpha virt. eigenvalues --    0.03659   0.04209   0.04420   0.04756   0.05374

 Mulliken charges:
               1
     1  O   -0.233550
     2  O   -0.210036
     3  O   -0.255009
     4  O   -0.212982
     5  O   -0.286483
     6  O   -0.248808
     7  N   -0.030497
     8  N   -0.242635
     9  N   -0.051854
    10  N   -0.378464
    11  C    0.109988
    12  C    0.233966
    13  C   -0.048534
    14  C   -0.136098
    15  C   -0.033325
    16  C    0.006375
    17  C   -0.250433
    18  C    0.017484
    19  C   -0.039773
    20  C   -0.063743
    21  C    0.107913
    22  C    0.164374
    23  C   -0.096180
    24  C    0.004874
    25  C    0.233139
    26  C   -0.165523
    27  C    0.020149
    28  C    0.169019
    29  C    0.128429
    30  C   -0.002378
    31  C   -0.058915
    32  C    0.238451
    33  C   -0.114718
    34  C    0.153173
    35  C    0.022850
    36  C   -0.049214
    37  C    0.192034
    38  C    0.142186
    39  C   -0.169985
    40  C    0.214533
    41  C   -0.023899
    42  C    0.021746
    43  C   -0.054524
    44  H    0.026375
    45  H   -0.034324
    46  H   -0.020648
    47  H    0.126475
    48  H    0.130730
    49  H    0.032092
    50  H    0.037169
    51  H   -0.049202
    52  H   -0.016688
    53  H    0.068316
    54  H    0.039646
    55  H    0.043373
    56  H    0.023279
    57  H   -0.102702
    58  H    0.046674
    59  H    0.032445
    60  H    0.198474
    61  H    0.005672
    62  H    0.032671
    63  H    0.033468
    64  H    0.062422
    65  H    0.056327
    66  H    0.001776
    67  H   -0.032021
    68  H    0.013670
    69  H   -0.052651
    70  H    0.013064
    71  H    0.044597
    72  H    0.195372
    73  H   -0.030839
    74  H    0.039236
    75  H    0.008699
    76  H    0.054632
    77  H    0.177592
    78  H    0.025184
    79  H    0.046523
 Sum of Mulliken charges =  -0.00000

 Dipole moment (field-independent basis, Debye):
    X=             -0.1867    Y=              1.2639    Z=              3.1146  Tot=              3.3665
 Quadrupole moment (field-independent basis, Debye-Ang):
   XX=           -209.0868   YY=           -256.5328   ZZ=           -265.3104
   XY=             -9.7122   XZ=             33.7793   YZ=              4.9799

 Normal termination of Gaussian 16 at Wed Oct  9 08:56:14 2019.
