 Gaussian 16, Revision A.03,
 Gaussian 16:  ES64L-G16RevA.03 25-Dec-2016

 --------------------------
 # td=(NStates=1) B3LYP/SVP
 --------------------------

 --
 TD
 --
 Symbolic Z-matrix:
 Charge =  0 Multiplicity = 1

                         Standard orientation:
 ---------------------------------------------------------------------
 Center     Atomic      Atomic             Coordinates (Angstroms)
 Number     Number       Type             X           Y           Z
 ---------------------------------------------------------------------
      1          8           0       -3.295642   -0.976906   -3.125289
      2          8           0        2.937194    2.448256    3.532546
      3          8           0        3.452983    0.451680    4.694272
      4          8           0        7.855797   -1.169028   -0.986533
      5          8           0        6.656519   -2.598645   -2.338438
      6          8           0       -2.746233    1.278150    1.623394
      7          7           0       -0.251514   -2.620426    0.401072
      8          7           0       -2.755182   -1.110942   -0.864441
      9          7           0        1.116376    0.215336   -0.695974
     10          7           0       -1.136393    1.387512   -0.040713
     11          6           0       -3.342471   -1.458598    0.356144
     12          6           0       -2.553607   -2.640062    1.042126
     13          6           0       -1.266045   -2.421368    1.336399
     14          6           0       -0.555165   -1.817277    2.442672
     15          6           0        0.765645   -1.665909    2.205102
     16          6           0        0.951435   -2.167850    0.815499
     17          6           0       -4.760155   -1.801459   -0.138841
     18          6           0        1.881729   -1.046544    3.091877
     19          6           0       -4.885795   -1.647435   -1.476163
     20          6           0        2.052657   -1.903564   -0.066764
     21          6           0        2.122568   -0.769416   -0.853379
     22          6           0       -3.417321   -1.161212   -2.031398
     23          6           0        3.108161   -0.276933   -1.836700
     24          6           0       -1.367747   -1.434814    3.716515
     25          6           0       -5.845010   -2.182959    0.976447
     26          6           0        2.609673    0.971949   -2.265169
     27          6           0        1.984756    0.468909    2.866523
     28          6           0        1.439648    1.260920   -1.588425
     29          6           0        4.361739   -0.963547   -2.199227
     30          6           0       -5.881491   -1.935082   -2.375922
     31          6           0        5.585791   -0.744216   -1.254292
     32          6           0        3.279974    1.855757   -3.317813
     33          6           0        0.571085    2.380878   -1.625724
     34          6           0        2.853777    1.136826    3.814340
     35          6           0       -0.490592    2.455232   -0.721528
     36          6           0       -6.992739   -2.670019   -2.200440
     37          6           0        6.733907   -1.588949   -1.700134
     38          6           0       -1.377350    3.707966   -0.567521
     39          6           0       -2.318104    3.379443    0.419073
     40          6           0       -2.078079    1.870390    0.751943
     41          6           0       -1.181924    4.946159   -1.331042
     42          6           0       -3.347970    4.090236    1.051712
     43          6           0       -2.041518    5.970056   -1.280149
     44          1           0       -3.363368   -0.629625    0.993518
     45          1           0       -2.608793   -3.545285    0.426695
     46          1           0       -2.934781   -2.573321    2.071680
     47          1           0       -0.740222   -2.541625   -0.647670
     48          1           0       -1.986012   -0.524980   -0.802583
     49          1           0        1.643063   -1.246499    4.242807
     50          1           0        2.758622   -1.696975    2.750570
     51          1           0        2.876087   -2.589886   -0.094249
     52          1           0       -2.106371   -2.234389    4.020407
     53          1           0       -0.635798   -1.264131    4.505852
     54          1           0       -2.030382   -0.553393    3.484863
     55          1           0       -5.588357   -1.356353    1.724685
     56          1           0       -5.750603   -3.145370    1.471188
     57          1           0       -6.970023   -2.022575    0.699557
     58          1           0        2.244417    0.563632    1.882778
     59          1           0        0.925765    0.749126    2.930162
     60          1           0        0.251846    0.152764   -0.142456
     61          1           0        4.743062   -0.701137   -3.225494
     62          1           0        4.065802   -2.072491   -1.966865
     63          1           0       -5.747862   -1.260159   -3.352652
     64          1           0        5.418341   -1.019467   -0.221998
     65          1           0        5.767338    0.381506   -1.120478
     66          1           0        3.827249    1.185549   -4.117345
     67          1           0        3.876530    2.775168   -2.897755
     68          1           0        2.426892    2.177627   -3.943521
     69          1           0        0.848437    3.141397   -2.132183
     70          1           0       -6.889582   -3.248424   -1.293123
     71          1           0       -7.753201   -2.433072   -2.817522
     72          1           0        3.486011    2.809765    4.264559
     73          1           0       -0.148104    4.977681   -1.779568
     74          1           0       -4.253933    4.294388    0.463621
     75          1           0       -3.698547    3.573072    2.069043
     76          1           0       -3.016720    5.019085    1.410096
     77          1           0        8.661525   -1.802701   -1.401727
     78          1           0       -1.777889    6.838727   -1.742627
     79          1           0       -3.115155    6.068902   -0.845958
 ---------------------------------------------------------------------

 SCF Done:  E(RB3LYP) =  -1947.81965963     A.U. after   28 cycles

 Excitation energies and oscillator strengths:

 Excited State   1:      Singlet-A      0.7261 eV 1707.62 nm  f=0.0052  <S**2>=0.000
     155 ->156         0.70469
 This state for optimization and/or second-order correction.
 Total Energy, E(TD-HF/TD-DFT) =  -1947.79297726
 Copying the excited state density for this state as the 1-particle RhoCI density.

 The electronic state is 1-A.
 Alpha  occ. eigenvalues --  -19.20297 -19.20082 -19.15487 -19.12832 -19.10946
 Alpha  occ. eigenvalues --  -19.10220 -14.37684 -14.37663 -14.32897 -14.30732
 Alpha  occ. eigenvalues --  -10.34028 -10.32491 -10.27225 -10.27148 -10.26902
 Alpha  occ. eigenvalues --  -10.26221 -10.25986 -10.24517 -10.23737 -10.23674
 Alpha  occ. eigenvalues --  -10.23288 -10.23271 -10.23266 -10.21487 -10.21430
 Alpha  occ. eigenvalues --  -10.20996 -10.20894 -10.20382 -10.20317 -10.20307
 Alpha  occ. eigenvalues --  -10.19909 -10.19536 -10.19343 -10.19316 -10.18920
 Alpha  occ. eigenvalues --  -10.18610 -10.18487 -10.18295 -10.18030 -10.17333
 Alpha  occ. eigenvalues --  -10.17186 -10.16211 -10.15773  -1.10087  -1.09950
 Alpha  occ. eigenvalues --   -1.07170  -1.01682  -1.00983  -0.99459  -0.98943
 Alpha  occ. eigenvalues --   -0.96706  -0.94733  -0.91840  -0.84487  -0.83386
 Alpha  occ. eigenvalues --   -0.81053  -0.80705  -0.80225  -0.79650  -0.79365
 Alpha  occ. eigenvalues --   -0.77455  -0.76494  -0.76180  -0.74125  -0.73357
 Alpha  occ. eigenvalues --   -0.70650  -0.70152  -0.69726  -0.68215  -0.67360
 Alpha  occ. eigenvalues --   -0.66381  -0.66178  -0.63890  -0.61101  -0.60477
 Alpha  occ. eigenvalues --   -0.60366  -0.59722  -0.59235  -0.57851  -0.56840
 Alpha  occ. eigenvalues --   -0.55619  -0.54938  -0.54650  -0.53219  -0.52759
 Alpha  occ. eigenvalues --   -0.52038  -0.51776  -0.51405  -0.50884  -0.50175
 Alpha  occ. eigenvalues --   -0.49686  -0.49204  -0.49121  -0.48842  -0.48636
 Alpha  occ. eigenvalues --   -0.48302  -0.47680  -0.47410  -0.46841  -0.45942
 Alpha  occ. eigenvalues --   -0.45779  -0.45234  -0.45014  -0.44376  -0.44245
 Alpha  occ. eigenvalues --   -0.43824  -0.43527  -0.43164  -0.43145  -0.43030
 Alpha  occ. eigenvalues --   -0.41953  -0.41921  -0.41616  -0.41212  -0.41116
 Alpha  occ. eigenvalues --   -0.41010  -0.40757  -0.40409  -0.40337  -0.39699
 Alpha  occ. eigenvalues --   -0.39479  -0.39171  -0.39056  -0.38560  -0.38448
 Alpha  occ. eigenvalues --   -0.37718  -0.37234  -0.37092  -0.36917  -0.36607
 Alpha  occ. eigenvalues --   -0.36389  -0.35713  -0.35131  -0.34854  -0.34355
 Alpha  occ. eigenvalues --   -0.34166  -0.33729  -0.32952  -0.32403  -0.32178
 Alpha  occ. eigenvalues --   -0.31678  -0.30873  -0.29898  -0.29226  -0.28366
 Alpha  occ. eigenvalues --   -0.28044  -0.27508  -0.26182  -0.24926  -0.24274
 Alpha  occ. eigenvalues --   -0.23173  -0.23041  -0.22464  -0.21034  -0.18413
 Alpha virt. eigenvalues --   -0.13204  -0.07456  -0.03140  -0.02459  -0.02083
 Alpha virt. eigenvalues --   -0.01216  -0.00081   0.00494   0.01901   0.02972
 Alpha virt. eigenvalues --    0.03754   0.04119   0.04256   0.05152   0.05218

 Mulliken charges:
               1
     1  O   -0.092136
     2  O   -0.164448
     3  O   -0.273474
     4  O   -0.277399
     5  O   -0.194891
     6  O   -0.250596
     7  N   -0.113684
     8  N   -0.175871
     9  N   -0.154595
    10  N   -0.310484
    11  C    0.099283
    12  C    0.228285
    13  C   -0.120611
    14  C   -0.107450
    15  C   -0.123288
    16  C   -0.032346
    17  C   -0.147593
    18  C    0.043792
    19  C   -0.106000
    20  C   -0.098576
    21  C    0.113852
    22  C    0.107738
    23  C   -0.026092
    24  C    0.058367
    25  C    0.023291
    26  C   -0.138847
    27  C    0.066438
    28  C    0.146727
    29  C    0.063608
    30  C   -0.108506
    31  C   -0.025096
    32  C    0.040188
    33  C   -0.005903
    34  C    0.173271
    35  C    0.141528
    36  C    0.056406
    37  C    0.173318
    38  C    0.005684
    39  C   -0.182837
    40  C    0.175691
    41  C    0.000817
    42  C    0.062595
    43  C   -0.015327
    44  H    0.019458
    45  H   -0.011298
    46  H   -0.019873
    47  H    0.166334
    48  H    0.097831
    49  H    0.040241
    50  H    0.014741
    51  H   -0.000168
    52  H    0.022047
    53  H   -0.001365
    54  H    0.048446
    55  H    0.027132
    56  H    0.031508
    57  H    0.037195
    58  H   -0.001322
    59  H    0.052452
    60  H    0.185592
    61  H    0.034697
    62  H    0.048576
    63  H    0.013282
    64  H    0.043920
    65  H    0.044143
    66  H    0.041284
    67  H    0.071377
    68  H    0.032993
    69  H   -0.126590
    70  H    0.012367
    71  H   -0.012635
    72  H    0.185777
    73  H    0.009920
    74  H    0.041105
    75  H    0.039211
    76  H    0.003631
    77  H    0.233296
    78  H   -0.007529
    79  H    0.047392
 Sum of Mulliken charges =  -0.00000

 Dipole moment (field-independent basis, Debye):
    X=              6.3015    Y=              4.5290    Z=             -1.2830  Tot=              7.8656
 Quadrupole moment (field-independent basis, Debye-Ang):
   XX=           -235.6188   YY=           -239.5771   ZZ=           -269.3394
   XY=              4.1073   XZ=            -25.2880   YZ=             -4.8376

 Normal termination of Gaussian 16 at Mon Jul 29 14:05:32 2019.
