 Gaussian 16, Revision A.03,
 Gaussian 16:  ES64L-G16RevA.03 25-Dec-2016

 --------------------------
 # td=(NStates=1) B3LYP/SVP
 --------------------------

 --
 TD
 --
 Symbolic Z-matrix:
 Charge =  0 Multiplicity = 1

                         Standard orientation:
 ---------------------------------------------------------------------
 Center     Atomic      Atomic             Coordinates (Angstroms)
 Number     Number       Type             X           Y           Z
 ---------------------------------------------------------------------
      1          8           0        5.203404   -0.407398   -3.394327
      2          8           0       -2.989213   -2.847952    3.153261
      3          8           0       -3.276381   -0.652833    2.953810
      4          8           0       -1.605501    7.014202    1.557637
      5          8           0       -1.089465    7.131341   -0.722114
      6          8           0       -1.712527   -4.115449    0.170288
      7          7           0        2.349908    0.921047    0.580403
      8          7           0        4.357677   -0.480025   -1.149598
      9          7           0       -1.897304    0.657069   -0.340335
     10          7           0       -2.480071   -2.030802   -0.514244
     11          6           0        4.826762   -1.024316    0.063227
     12          6           0        4.514295   -0.092696    1.272938
     13          6           0        2.994353    0.094189    1.343663
     14          6           0        2.053619   -0.497951    2.188493
     15          6           0        0.767056    0.071445    1.853398
     16          6           0        0.986529    0.943647    0.742344
     17          6           0        6.172403   -1.256698   -0.090447
     18          6           0       -0.573472   -0.193513    2.562505
     19          6           0        6.613626   -0.828249   -1.407523
     20          6           0        0.119688    1.972378    0.146854
     21          6           0       -1.146112    1.872377   -0.322374
     22          6           0        5.399839   -0.571844   -2.220884
     23          6           0       -1.991925    2.891756   -0.858425
     24          6           0        2.296012   -1.547676    3.245257
     25          6           0        7.175227   -1.637473    0.991001
     26          6           0       -3.188808    2.330873   -1.390124
     27          6           0       -1.066929   -1.595213    2.580870
     28          6           0       -3.045032    0.881913   -1.037798
     29          6           0       -1.540368    4.304462   -0.998817
     30          6           0        7.901510   -0.931707   -2.226023
     31          6           0       -1.813473    5.081660    0.335104
     32          6           0       -4.281698    2.907698   -2.041505
     33          6           0       -3.869006   -0.275341   -1.379129
     34          6           0       -2.586037   -1.661441    2.928148
     35          6           0       -3.601344   -1.609877   -1.009664
     36          6           0        9.101523   -0.865961   -1.528290
     37          6           0       -1.431302    6.487398    0.278921
     38          6           0       -4.463169   -2.707394   -1.520686
     39          6           0       -3.898716   -3.841617   -0.940933
     40          6           0       -2.558163   -3.396934   -0.389068
     41          6           0       -5.791406   -2.556183   -2.050169
     42          6           0       -4.291259   -5.252825   -1.026074
     43          6           0       -6.688130   -3.543010   -2.360796
     44          1           0        4.290246   -1.885393    0.225464
     45          1           0        5.091517    0.843263    1.083101
     46          1           0        5.035507   -0.614917    2.112207
     47          1           0        2.859712    1.347325   -0.340005
     48          1           0        3.380093   -0.563313   -1.374291
     49          1           0       -0.342990    0.231458    3.659780
     50          1           0       -1.370944    0.637691    2.328943
     51          1           0        0.703340    2.887193    0.003796
     52          1           0        3.409481   -1.405963    3.525810
     53          1           0        1.747544   -0.984275    4.145174
     54          1           0        1.914343   -2.641528    3.311774
     55          1           0        6.795033   -2.270764    1.907944
     56          1           0        7.635147   -0.737945    1.580357
     57          1           0        8.041774   -2.210496    0.509321
     58          1           0       -0.852115   -1.903985    1.499259
     59          1           0       -0.592556   -1.992345    3.370417
     60          1           0       -1.539353   -0.219556   -0.320829
     61          1           0       -2.214602    4.853513   -1.893806
     62          1           0       -0.594013    4.267461   -1.388294
     63          1           0        7.894183   -0.827745   -3.256677
     64          1           0       -1.146747    4.802858    1.193241
     65          1           0       -2.787585    4.897083    0.684310
     66          1           0       -4.159409    4.059372   -2.414691
     67          1           0       -5.250344    3.107475   -1.511567
     68          1           0       -4.474154    2.171233   -2.913929
     69          1           0       -4.901408    0.047482   -1.767611
     70          1           0        9.249266   -0.774127   -0.510472
     71          1           0        9.933051   -0.795813   -2.048559
     72          1           0       -4.068772   -2.778598    3.271065
     73          1           0       -5.884327   -1.435779   -2.672664
     74          1           0       -5.261774   -5.293026   -0.429278
     75          1           0       -4.379173   -5.636277   -1.865439
     76          1           0       -3.480874   -5.710990   -0.527088
     77          1           0       -1.543883    8.196117    1.466370
     78          1           0       -7.774419   -3.222799   -2.596614
     79          1           0       -6.491348   -4.601455   -2.232479
 ---------------------------------------------------------------------

 SCF Done:  E(RB3LYP) =  -1947.79183000     A.U. after   17 cycles

 Excitation energies and oscillator strengths:

 Excited State   1:      Singlet-A      2.1273 eV  582.83 nm  f=0.4266  <S**2>=0.000
     154 ->156        -0.17394
     155 ->156         0.67830
 This state for optimization and/or second-order correction.
 Total Energy, E(TD-HF/TD-DFT) =  -1947.71365400
 Copying the excited state density for this state as the 1-particle RhoCI density.

 The electronic state is 1-A.
 Alpha  occ. eigenvalues --  -19.19627 -19.18922 -19.13746 -19.11588 -19.10195
 Alpha  occ. eigenvalues --  -19.09719 -14.39147 -14.36243 -14.34340 -14.28165
 Alpha  occ. eigenvalues --  -10.32867 -10.30079 -10.29256 -10.25778 -10.25634
 Alpha  occ. eigenvalues --  -10.24393 -10.23271 -10.23149 -10.23109 -10.22919
 Alpha  occ. eigenvalues --  -10.22812 -10.22671 -10.22565 -10.22531 -10.22071
 Alpha  occ. eigenvalues --  -10.21960 -10.21943 -10.21925 -10.21871 -10.21752
 Alpha  occ. eigenvalues --  -10.21445 -10.21288 -10.20905 -10.19964 -10.19356
 Alpha  occ. eigenvalues --  -10.19288 -10.19197 -10.19017 -10.19013 -10.18945
 Alpha  occ. eigenvalues --  -10.18875 -10.17618 -10.16492  -1.10034  -1.06895
 Alpha  occ. eigenvalues --   -1.03557  -1.00169  -0.99828  -0.99043  -0.98446
 Alpha  occ. eigenvalues --   -0.98200  -0.95025  -0.92468  -0.83822  -0.81746
 Alpha  occ. eigenvalues --   -0.81382  -0.80082  -0.79993  -0.79825  -0.78829
 Alpha  occ. eigenvalues --   -0.77073  -0.75929  -0.75652  -0.74417  -0.73185
 Alpha  occ. eigenvalues --   -0.71544  -0.70718  -0.69680  -0.69212  -0.68470
 Alpha  occ. eigenvalues --   -0.66635  -0.65422  -0.64176  -0.61774  -0.60117
 Alpha  occ. eigenvalues --   -0.58923  -0.58538  -0.57731  -0.56980  -0.56683
 Alpha  occ. eigenvalues --   -0.55932  -0.55338  -0.54661  -0.54504  -0.53427
 Alpha  occ. eigenvalues --   -0.52347  -0.52025  -0.51529  -0.50433  -0.49970
 Alpha  occ. eigenvalues --   -0.48854  -0.48633  -0.48315  -0.48157  -0.47827
 Alpha  occ. eigenvalues --   -0.47320  -0.47269  -0.46599  -0.46413  -0.45715
 Alpha  occ. eigenvalues --   -0.45432  -0.44804  -0.44541  -0.44366  -0.43877
 Alpha  occ. eigenvalues --   -0.43054  -0.42986  -0.42862  -0.42788  -0.42359
 Alpha  occ. eigenvalues --   -0.42246  -0.41866  -0.41432  -0.41051  -0.40873
 Alpha  occ. eigenvalues --   -0.40804  -0.40681  -0.40605  -0.40083  -0.39934
 Alpha  occ. eigenvalues --   -0.39607  -0.39229  -0.39107  -0.38995  -0.38574
 Alpha  occ. eigenvalues --   -0.38452  -0.37629  -0.37555  -0.36573  -0.36471
 Alpha  occ. eigenvalues --   -0.36299  -0.35626  -0.35100  -0.34992  -0.34268
 Alpha  occ. eigenvalues --   -0.33250  -0.32947  -0.32576  -0.31235  -0.31117
 Alpha  occ. eigenvalues --   -0.30623  -0.30438  -0.28851  -0.28476  -0.27037
 Alpha  occ. eigenvalues --   -0.26648  -0.26033  -0.25963  -0.25911  -0.24209
 Alpha  occ. eigenvalues --   -0.23819  -0.23462  -0.22971  -0.21657  -0.19294
 Alpha virt. eigenvalues --   -0.10754  -0.07272  -0.06605  -0.02029  -0.01588
 Alpha virt. eigenvalues --   -0.00863  -0.00663   0.01390   0.02168   0.02551
 Alpha virt. eigenvalues --    0.02969   0.03111   0.03232   0.03835   0.04709

 Mulliken charges:
               1
     1  O   -0.188359
     2  O   -0.156487
     3  O   -0.259321
     4  O   -0.316793
     5  O   -0.242309
     6  O   -0.229224
     7  N   -0.053065
     8  N   -0.280546
     9  N   -0.024629
    10  N   -0.219689
    11  C    0.188250
    12  C    0.168420
    13  C   -0.103548
    14  C   -0.132610
    15  C   -0.078518
    16  C   -0.002392
    17  C   -0.158615
    18  C   -0.041529
    19  C   -0.091429
    20  C   -0.116656
    21  C    0.162369
    22  C    0.178504
    23  C   -0.096778
    24  C    0.013787
    25  C   -0.021440
    26  C   -0.021817
    27  C    0.107030
    28  C    0.043682
    29  C    0.084613
    30  C    0.024459
    31  C    0.028090
    32  C   -0.038567
    33  C   -0.127399
    34  C    0.095195
    35  C    0.093769
    36  C    0.050285
    37  C    0.183048
    38  C   -0.005142
    39  C   -0.246754
    40  C    0.139571
    41  C   -0.061000
    42  C    0.223796
    43  C   -0.065178
    44  H   -0.010622
    45  H   -0.001096
    46  H    0.005354
    47  H    0.161419
    48  H    0.119395
    49  H    0.002547
    50  H    0.038491
    51  H   -0.003166
    52  H    0.004530
    53  H    0.023792
    54  H    0.075434
    55  H    0.038358
    56  H    0.056504
    57  H    0.059207
    58  H    0.099005
    59  H   -0.018206
    60  H    0.100358
    61  H    0.044121
    62  H   -0.001837
    63  H    0.002249
    64  H    0.049328
    65  H    0.037631
    66  H    0.032109
    67  H    0.049445
    68  H    0.054220
    69  H    0.004032
    70  H    0.000098
    71  H   -0.019771
    72  H    0.227344
    73  H    0.044438
    74  H    0.027115
    75  H   -0.036241
    76  H    0.001944
    77  H    0.260898
    78  H    0.044270
    79  H    0.022227
 Sum of Mulliken charges =  -0.00000

 Dipole moment (field-independent basis, Debye):
    X=              1.3500    Y=              3.4236    Z=              3.0170  Tot=              4.7588
 Quadrupole moment (field-independent basis, Debye-Ang):
   XX=           -207.8409   YY=           -247.4149   ZZ=           -264.2253
   XY=             -7.6480   XZ=             24.4250   YZ=              3.2296

 Normal termination of Gaussian 16 at Sun Sep 29 04:33:45 2019.
