 Gaussian 16, Revision A.03,
 Gaussian 16:  ES64L-G16RevA.03 25-Dec-2016

 --------------------------
 # td=(NStates=1) B3LYP/SVP
 --------------------------

 --
 TD
 --
 Symbolic Z-matrix:
 Charge =  0 Multiplicity = 1

                         Standard orientation:
 ---------------------------------------------------------------------
 Center     Atomic      Atomic             Coordinates (Angstroms)
 Number     Number       Type             X           Y           Z
 ---------------------------------------------------------------------
      1          8           0       -3.063536   -1.243028   -2.903279
      2          8           0        2.625679    3.068191    3.492690
      3          8           0        4.117792    1.058837    3.933428
      4          8           0        7.811952   -1.202004   -0.919306
      5          8           0        6.693380   -2.813344   -2.110372
      6          8           0       -2.658785    1.508587    1.633764
      7          7           0       -0.289880   -2.474678    0.841347
      8          7           0       -2.651110   -1.174766   -0.677181
      9          7           0        1.208838    0.012824   -0.704004
     10          7           0       -1.029956    1.389719   -0.081240
     11          6           0       -3.425862   -1.263972    0.476305
     12          6           0       -2.642982   -2.300580    1.529293
     13          6           0       -1.215914   -2.134000    1.745966
     14          6           0       -0.578001   -1.353616    2.838792
     15          6           0        0.785597   -1.346585    2.429102
     16          6           0        0.948791   -1.954633    1.242702
     17          6           0       -4.687987   -1.788383    0.100725
     18          6           0        1.829931   -0.561245    3.176629
     19          6           0       -4.719104   -2.002192   -1.265335
     20          6           0        2.141253   -1.843447    0.261476
     21          6           0        2.085631   -0.956988   -0.732548
     22          6           0       -3.409505   -1.451166   -1.824894
     23          6           0        3.068792   -0.640520   -1.767378
     24          6           0       -1.360033   -0.763733    4.021698
     25          6           0       -5.772936   -2.332494    0.982921
     26          6           0        2.607315    0.532304   -2.271142
     27          6           0        1.730331    0.900925    2.865588
     28          6           0        1.416792    0.949495   -1.735877
     29          6           0        4.347136   -1.412580   -2.034401
     30          6           0       -5.800137   -2.264543   -2.221738
     31          6           0        5.489410   -0.872887   -1.209185
     32          6           0        3.150669    1.323336   -3.534814
     33          6           0        0.422547    2.006400   -1.898404
     34          6           0        2.941867    1.608921    3.514601
     35          6           0       -0.657681    2.253336   -1.106785
     36          6           0       -6.979636   -2.944239   -1.901721
     37          6           0        6.677537   -1.709785   -1.423107
     38          6           0       -1.426317    3.511268   -1.049003
     39          6           0       -2.322365    3.370192   -0.012026
     40          6           0       -2.108007    2.017270    0.580898
     41          6           0       -1.288571    4.526821   -2.037200
     42          6           0       -3.391500    4.311748    0.427568
     43          6           0       -2.159454    5.716183   -2.087228
     44          1           0       -3.259799   -0.359678    1.076486
     45          1           0       -3.003172   -3.349309    0.950275
     46          1           0       -3.140388   -2.452221    2.488639
     47          1           0       -0.565870   -2.480410   -0.263204
     48          1           0       -1.966833   -0.345444   -0.800683
     49          1           0        1.708286   -0.981677    4.169382
     50          1           0        2.848405   -1.018641    2.815570
     51          1           0        2.757310   -2.715045    0.229933
     52          1           0       -2.007677   -1.684683    4.425333
     53          1           0       -0.812006   -0.649612    4.830803
     54          1           0       -1.982297    0.093510    3.662059
     55          1           0       -6.029207   -1.536030    1.881238
     56          1           0       -5.722629   -3.344812    1.323915
     57          1           0       -6.799381   -2.382226    0.606248
     58          1           0        1.815509    1.127583    1.840467
     59          1           0        0.672179    1.246259    3.122775
     60          1           0        0.610357    0.097855   -0.006442
     61          1           0        4.478550   -1.106089   -3.117292
     62          1           0        4.144644   -2.496261   -1.855104
     63          1           0       -5.584587   -1.769955   -3.176995
     64          1           0        5.274074   -0.854651   -0.129563
     65          1           0        5.852443    0.302400   -1.600176
     66          1           0        3.863459    0.467288   -4.136352
     67          1           0        3.885937    2.136015   -3.142664
     68          1           0        2.163473    1.621329   -4.162374
     69          1           0        0.676878    2.707254   -2.620075
     70          1           0       -7.114086   -3.412754   -0.856781
     71          1           0       -7.861597   -3.037695   -2.508120
     72          1           0        3.630738    3.509985    3.736441
     73          1           0       -0.345207    4.456804   -2.716208
     74          1           0       -4.160870    4.698325   -0.329708
     75          1           0       -4.127518    3.825457    1.266451
     76          1           0       -2.875526    5.268631    0.903522
     77          1           0        8.650307   -1.869802   -1.029183
     78          1           0       -1.823020    6.543533   -2.646170
     79          1           0       -2.913626    5.671489   -1.389158
 ---------------------------------------------------------------------

 SCF Done:  E(RB3LYP) =  -1947.74249310     A.U. after   23 cycles

 Excitation energies and oscillator strengths:

 Excited State   1:      Singlet-A      0.5720 eV 2167.54 nm  f=0.0004  <S**2>=0.000
     155 ->156         0.70429
 This state for optimization and/or second-order correction.
 Total Energy, E(TD-HF/TD-DFT) =  -1947.72147233
 Copying the excited state density for this state as the 1-particle RhoCI density.

 The electronic state is 1-A.
 Alpha  occ. eigenvalues --  -19.20768 -19.19382 -19.14602 -19.13264 -19.12003
 Alpha  occ. eigenvalues --  -19.08950 -14.37524 -14.36643 -14.31923 -14.31015
 Alpha  occ. eigenvalues --  -10.34488 -10.33984 -10.28523 -10.27900 -10.25910
 Alpha  occ. eigenvalues --  -10.25246 -10.25165 -10.25114 -10.24910 -10.23808
 Alpha  occ. eigenvalues --  -10.23471 -10.23140 -10.23094 -10.23062 -10.22095
 Alpha  occ. eigenvalues --  -10.21821 -10.21750 -10.21661 -10.21510 -10.21281
 Alpha  occ. eigenvalues --  -10.20925 -10.20439 -10.20062 -10.20056 -10.19624
 Alpha  occ. eigenvalues --  -10.19413 -10.19378 -10.19002 -10.18986 -10.18189
 Alpha  occ. eigenvalues --  -10.17713 -10.17218 -10.16853  -1.09088  -1.04437
 Alpha  occ. eigenvalues --   -1.02984  -1.01997  -0.99559  -0.97733  -0.96025
 Alpha  occ. eigenvalues --   -0.95083  -0.92996  -0.92404  -0.85628  -0.83845
 Alpha  occ. eigenvalues --   -0.81415  -0.81033  -0.80222  -0.79708  -0.78289
 Alpha  occ. eigenvalues --   -0.75984  -0.75482  -0.74684  -0.73774  -0.72446
 Alpha  occ. eigenvalues --   -0.70927  -0.70596  -0.70056  -0.68977  -0.67720
 Alpha  occ. eigenvalues --   -0.66286  -0.65425  -0.63429  -0.62146  -0.61404
 Alpha  occ. eigenvalues --   -0.60143  -0.59377  -0.58866  -0.57471  -0.56417
 Alpha  occ. eigenvalues --   -0.55710  -0.54696  -0.54107  -0.53376  -0.53183
 Alpha  occ. eigenvalues --   -0.52726  -0.52039  -0.51561  -0.50537  -0.49643
 Alpha  occ. eigenvalues --   -0.48857  -0.48797  -0.48592  -0.48375  -0.47928
 Alpha  occ. eigenvalues --   -0.47326  -0.46564  -0.46294  -0.45852  -0.45658
 Alpha  occ. eigenvalues --   -0.44833  -0.44536  -0.44146  -0.43767  -0.43454
 Alpha  occ. eigenvalues --   -0.43095  -0.42988  -0.42654  -0.42302  -0.41935
 Alpha  occ. eigenvalues --   -0.41784  -0.41592  -0.41466  -0.41174  -0.40498
 Alpha  occ. eigenvalues --   -0.40421  -0.40240  -0.39992  -0.39825  -0.39521
 Alpha  occ. eigenvalues --   -0.39422  -0.39351  -0.38980  -0.38933  -0.38456
 Alpha  occ. eigenvalues --   -0.37937  -0.37667  -0.37291  -0.36828  -0.36223
 Alpha  occ. eigenvalues --   -0.35963  -0.35707  -0.35491  -0.35345  -0.33840
 Alpha  occ. eigenvalues --   -0.32601  -0.32334  -0.32147  -0.32041  -0.31031
 Alpha  occ. eigenvalues --   -0.30606  -0.29775  -0.29657  -0.29113  -0.28519
 Alpha  occ. eigenvalues --   -0.28239  -0.27801  -0.25883  -0.24710  -0.23947
 Alpha  occ. eigenvalues --   -0.23679  -0.23541  -0.22375  -0.21981  -0.18463
 Alpha virt. eigenvalues --   -0.13926  -0.08994  -0.04709  -0.04462  -0.03593
 Alpha virt. eigenvalues --   -0.03260   0.00405   0.00806   0.00855   0.01480
 Alpha virt. eigenvalues --    0.02795   0.02952   0.03499   0.04837   0.05045

 Mulliken charges:
               1
     1  O   -0.156333
     2  O   -0.318793
     3  O   -0.325559
     4  O   -0.225264
     5  O   -0.307731
     6  O   -0.275567
     7  N   -0.091233
     8  N   -0.244737
     9  N    0.014671
    10  N   -0.336719
    11  C    0.084875
    12  C    0.060700
    13  C   -0.072297
    14  C   -0.144173
    15  C   -0.157155
    16  C   -0.082937
    17  C   -0.073642
    18  C    0.103708
    19  C   -0.122988
    20  C   -0.059080
    21  C    0.057714
    22  C    0.098829
    23  C   -0.082832
    24  C    0.137392
    25  C    0.044844
    26  C   -0.133086
    27  C    0.050661
    28  C    0.114222
    29  C    0.150217
    30  C    0.005570
    31  C   -0.048428
    32  C   -0.037300
    33  C   -0.037885
    34  C    0.261043
    35  C    0.135351
    36  C   -0.052038
    37  C    0.178099
    38  C    0.086599
    39  C   -0.142301
    40  C    0.207448
    41  C   -0.121106
    42  C   -0.031958
    43  C    0.065172
    44  H    0.054057
    45  H   -0.008573
    46  H   -0.003199
    47  H    0.176261
    48  H    0.160230
    49  H    0.017662
    50  H    0.006049
    51  H    0.011309
    52  H    0.013915
    53  H   -0.047913
    54  H    0.070760
    55  H    0.022859
    56  H    0.028734
    57  H    0.011097
    58  H    0.018416
    59  H    0.073197
    60  H    0.105394
    61  H    0.022913
    62  H    0.049223
    63  H    0.015624
    64  H    0.065422
    65  H    0.081555
    66  H    0.052695
    67  H    0.063774
    68  H    0.085034
    69  H   -0.068855
    70  H    0.030209
    71  H    0.017915
    72  H    0.238235
    73  H    0.024699
    74  H    0.064051
    75  H    0.055934
    76  H    0.055629
    77  H    0.249078
    78  H    0.028712
    79  H   -0.018073
 Sum of Mulliken charges =  -0.00000

 Dipole moment (field-independent basis, Debye):
    X=              4.1966    Y=              4.3642    Z=             -1.6373  Tot=              6.2720
 Quadrupole moment (field-independent basis, Debye-Ang):
   XX=           -228.9250   YY=           -241.9940   ZZ=           -269.7406
   XY=              5.1264   XZ=            -17.8946   YZ=            -14.9834

 Normal termination of Gaussian 16 at Thu Jul 25 19:07:32 2019.
