 Gaussian 16, Revision A.03,
 Gaussian 16:  ES64L-G16RevA.03 25-Dec-2016

 --------------------------
 # td=(NStates=1) B3LYP/SVP
 --------------------------

 --
 TD
 --
 Symbolic Z-matrix:
 Charge =  0 Multiplicity = 1

                         Standard orientation:
 ---------------------------------------------------------------------
 Center     Atomic      Atomic             Coordinates (Angstroms)
 Number     Number       Type             X           Y           Z
 ---------------------------------------------------------------------
      1          8           0       -3.336683   -0.816176   -2.899523
      2          8           0        3.004728    2.920145    3.382184
      3          8           0        3.628790    1.079619    4.537348
      4          8           0        7.748904   -1.476077   -0.878060
      5          8           0        6.608592   -2.609993   -2.435095
      6          8           0       -2.639697    1.613737    1.649730
      7          7           0       -0.260202   -2.501417    0.654426
      8          7           0       -2.597454   -1.123065   -0.706136
      9          7           0        1.154484    0.188010   -0.680410
     10          7           0       -1.068547    1.397813   -0.063133
     11          6           0       -3.263029   -1.433875    0.501368
     12          6           0       -2.534752   -2.480914    1.457781
     13          6           0       -1.090563   -2.170038    1.654272
     14          6           0       -0.489657   -1.495461    2.709368
     15          6           0        0.860670   -1.421483    2.285415
     16          6           0        1.020840   -1.949577    1.076767
     17          6           0       -4.606538   -2.064030    0.157204
     18          6           0        1.986427   -0.663366    3.054346
     19          6           0       -4.698062   -1.957010   -1.181368
     20          6           0        2.142119   -1.861130    0.134059
     21          6           0        2.075348   -0.908735   -0.755365
     22          6           0       -3.502698   -1.256965   -1.756856
     23          6           0        2.986617   -0.381445   -1.746920
     24          6           0       -1.296358   -0.803288    3.817473
     25          6           0       -5.594156   -2.555992    1.125615
     26          6           0        2.506886    0.721450   -2.382036
     27          6           0        1.938034    0.829964    2.806425
     28          6           0        1.376110    1.122304   -1.596142
     29          6           0        4.216351   -1.219841   -2.215070
     30          6           0       -5.839461   -2.359269   -2.178500
     31          6           0        5.504615   -0.977653   -1.243454
     32          6           0        3.070500    1.482329   -3.580600
     33          6           0        0.544476    2.175140   -1.807134
     34          6           0        2.902133    1.559680    3.683958
     35          6           0       -0.615117    2.283929   -0.985744
     36          6           0       -6.822992   -3.136094   -1.955779
     37          6           0        6.633328   -1.733499   -1.586509
     38          6           0       -1.499376    3.598943   -0.975311
     39          6           0       -2.383406    3.350778    0.017224
     40          6           0       -2.002723    2.018568    0.609532
     41          6           0       -1.458158    4.674275   -1.927525
     42          6           0       -3.525266    4.154383    0.691665
     43          6           0       -2.319831    5.677794   -2.012726
     44          1           0       -3.400103   -0.495425    1.033609
     45          1           0       -2.765756   -3.420647    1.002354
     46          1           0       -3.106629   -2.498295    2.314791
     47          1           0       -0.309847   -3.142359   -0.399046
     48          1           0       -1.962689   -0.253781   -0.676695
     49          1           0        1.850373   -0.993847    4.205863
     50          1           0        2.917421   -1.133669    2.712694
     51          1           0        2.759388   -2.826311    0.049733
     52          1           0       -1.790645   -1.487499    4.426205
     53          1           0       -0.614206   -0.557882    4.699379
     54          1           0       -1.677212    0.005009    3.582416
     55          1           0       -5.443493   -2.117743    2.197128
     56          1           0       -5.550324   -3.583093    1.372943
     57          1           0       -6.576561   -2.075052    0.806933
     58          1           0        2.090539    1.091794    1.773474
     59          1           0        0.985362    1.262263    2.909772
     60          1           0        0.408495    0.209358   -0.096446
     61          1           0        4.483412   -0.847925   -3.279818
     62          1           0        3.958467   -2.461351   -2.119872
     63          1           0       -5.412340   -1.818299   -3.110889
     64          1           0        5.035670   -1.300479   -0.205436
     65          1           0        5.662065    0.001306   -0.860550
     66          1           0        3.717712    0.576285   -4.166688
     67          1           0        3.629912    2.429076   -3.400245
     68          1           0        2.276325    1.956698   -4.343122
     69          1           0        0.737377    3.062935   -2.289065
     70          1           0       -7.014584   -3.628762   -0.931451
     71          1           0       -7.624138   -3.354929   -2.757409
     72          1           0        3.653433    3.384760    3.984223
     73          1           0       -0.920821    4.696736   -2.832260
     74          1           0       -4.344888    4.325887   -0.116046
     75          1           0       -3.969441    3.540620    1.561109
     76          1           0       -3.124046    4.916804    1.231690
     77          1           0        8.414763   -2.127310   -1.251130
     78          1           0       -2.101808    6.635237   -2.561047
     79          1           0       -2.920072    5.691220   -1.125614
 ---------------------------------------------------------------------

 SCF Done:  E(RB3LYP) =  -1947.80800076     A.U. after   24 cycles

 Excitation energies and oscillator strengths:

 Excited State   1:      Singlet-A      1.1770 eV 1053.41 nm  f=0.0003  <S**2>=0.000
     155 ->156         0.70417
 This state for optimization and/or second-order correction.
 Total Energy, E(TD-HF/TD-DFT) =  -1947.76474736
 Copying the excited state density for this state as the 1-particle RhoCI density.

 The electronic state is 1-A.
 Alpha  occ. eigenvalues --  -19.19469 -19.17040 -19.13127 -19.12399 -19.11214
 Alpha  occ. eigenvalues --  -19.08333 -14.37771 -14.37656 -14.32405 -14.32007
 Alpha  occ. eigenvalues --  -10.32738 -10.31833 -10.27753 -10.26989 -10.26824
 Alpha  occ. eigenvalues --  -10.26452 -10.26094 -10.24997 -10.24476 -10.23633
 Alpha  occ. eigenvalues --  -10.23368 -10.23350 -10.22820 -10.21708 -10.20935
 Alpha  occ. eigenvalues --  -10.20898 -10.20554 -10.20454 -10.20249 -10.20247
 Alpha  occ. eigenvalues --  -10.20114 -10.20047 -10.19938 -10.19793 -10.19628
 Alpha  occ. eigenvalues --  -10.19389 -10.18539 -10.18303 -10.18264 -10.17798
 Alpha  occ. eigenvalues --  -10.17284 -10.16565 -10.16026  -1.10797  -1.07252
 Alpha  occ. eigenvalues --   -1.01894  -1.00943  -1.00687  -0.99740  -0.98801
 Alpha  occ. eigenvalues --   -0.95723  -0.94045  -0.91896  -0.84724  -0.84095
 Alpha  occ. eigenvalues --   -0.82409  -0.80575  -0.80120  -0.79823  -0.79072
 Alpha  occ. eigenvalues --   -0.76773  -0.76445  -0.76286  -0.74798  -0.73048
 Alpha  occ. eigenvalues --   -0.71243  -0.70576  -0.70258  -0.69986  -0.67828
 Alpha  occ. eigenvalues --   -0.66485  -0.65678  -0.63313  -0.61265  -0.60823
 Alpha  occ. eigenvalues --   -0.60363  -0.59363  -0.58367  -0.57902  -0.56773
 Alpha  occ. eigenvalues --   -0.56285  -0.55605  -0.54941  -0.54659  -0.53243
 Alpha  occ. eigenvalues --   -0.53082  -0.51813  -0.51054  -0.50113  -0.49610
 Alpha  occ. eigenvalues --   -0.49118  -0.48959  -0.48617  -0.48355  -0.48016
 Alpha  occ. eigenvalues --   -0.47606  -0.47198  -0.46534  -0.46152  -0.45838
 Alpha  occ. eigenvalues --   -0.45556  -0.45222  -0.44980  -0.44691  -0.44366
 Alpha  occ. eigenvalues --   -0.44086  -0.43755  -0.43241  -0.42350  -0.42088
 Alpha  occ. eigenvalues --   -0.41736  -0.41634  -0.41122  -0.41110  -0.40860
 Alpha  occ. eigenvalues --   -0.40554  -0.40380  -0.39916  -0.39753  -0.39440
 Alpha  occ. eigenvalues --   -0.39381  -0.38781  -0.38650  -0.38197  -0.37851
 Alpha  occ. eigenvalues --   -0.37733  -0.37348  -0.36845  -0.36047  -0.35741
 Alpha  occ. eigenvalues --   -0.35456  -0.35225  -0.34879  -0.34729  -0.34272
 Alpha  occ. eigenvalues --   -0.33875  -0.33109  -0.33012  -0.31925  -0.31522
 Alpha  occ. eigenvalues --   -0.30411  -0.30245  -0.29462  -0.29319  -0.29223
 Alpha  occ. eigenvalues --   -0.28301  -0.27746  -0.25614  -0.24776  -0.24313
 Alpha  occ. eigenvalues --   -0.24282  -0.23679  -0.23489  -0.23204  -0.19739
 Alpha virt. eigenvalues --   -0.12866  -0.07676  -0.03024  -0.02572  -0.02196
 Alpha virt. eigenvalues --   -0.00046   0.00107   0.01615   0.02294   0.02784
 Alpha virt. eigenvalues --    0.03537   0.03951   0.04376   0.04834   0.05128

 Mulliken charges:
               1
     1  O   -0.260814
     2  O   -0.248922
     3  O   -0.226119
     4  O   -0.191291
     5  O   -0.243375
     6  O   -0.274495
     7  N   -0.176899
     8  N   -0.208868
     9  N   -0.041118
    10  N   -0.248007
    11  C    0.044434
    12  C    0.257722
    13  C   -0.062090
    14  C   -0.150429
    15  C   -0.130902
    16  C   -0.044569
    17  C   -0.185879
    18  C    0.092505
    19  C   -0.137949
    20  C   -0.137331
    21  C    0.199803
    22  C    0.149846
    23  C   -0.085970
    24  C    0.269036
    25  C    0.069106
    26  C   -0.079225
    27  C    0.071942
    28  C    0.183446
    29  C    0.010128
    30  C    0.060592
    31  C   -0.027533
    32  C   -0.011028
    33  C   -0.062900
    34  C    0.148502
    35  C    0.044727
    36  C   -0.082212
    37  C    0.158281
    38  C    0.088840
    39  C   -0.212558
    40  C    0.149833
    41  C   -0.063517
    42  C    0.110872
    43  C   -0.018848
    44  H    0.031292
    45  H   -0.048036
    46  H   -0.052420
    47  H    0.210677
    48  H    0.171178
    49  H    0.043396
    50  H   -0.005373
    51  H    0.046869
    52  H   -0.022894
    53  H   -0.035800
    54  H   -0.034997
    55  H    0.019512
    56  H    0.026773
    57  H    0.056706
    58  H    0.011029
    59  H    0.023061
    60  H    0.123385
    61  H    0.043166
    62  H    0.071785
    63  H    0.030966
    64  H    0.064834
    65  H    0.017617
    66  H    0.062624
    67  H    0.051697
    68  H    0.052216
    69  H   -0.043859
    70  H    0.031650
    71  H    0.034881
    72  H    0.195520
    73  H   -0.017646
    74  H    0.060922
    75  H    0.037091
    76  H    0.011545
    77  H    0.198508
    78  H    0.042829
    79  H   -0.007475
 Sum of Mulliken charges =  -0.00000

 Dipole moment (field-independent basis, Debye):
    X=              4.1158    Y=              2.1073    Z=             -0.5869  Tot=              4.6610
 Quadrupole moment (field-independent basis, Debye-Ang):
   XX=           -244.1522   YY=           -230.3347   ZZ=           -272.3635
   XY=              8.6570   XZ=            -23.4356   YZ=            -11.9344

 Normal termination of Gaussian 16 at Fri Jul 26 10:39:29 2019.
