 Gaussian 16, Revision A.03,
 Gaussian 16:  ES64L-G16RevA.03 25-Dec-2016

 --------------------------
 # td=(NStates=1) B3LYP/SVP
 --------------------------

 --
 TD
 --
 Symbolic Z-matrix:
 Charge =  0 Multiplicity = 1

                         Standard orientation:
 ---------------------------------------------------------------------
 Center     Atomic      Atomic             Coordinates (Angstroms)
 Number     Number       Type             X           Y           Z
 ---------------------------------------------------------------------
      1          8           0       -3.442774   -1.090494   -3.013930
      2          8           0        3.221429    2.754046    3.417998
      3          8           0        3.695665    0.987851    4.591594
      4          8           0        7.712998   -1.518678   -0.775004
      5          8           0        6.597799   -2.922042   -2.237600
      6          8           0       -2.338359    1.558223    1.633974
      7          7           0       -0.347102   -2.450435    0.724285
      8          7           0       -2.673075   -1.201673   -0.719640
      9          7           0        1.187651    0.179503   -0.713471
     10          7           0       -0.843892    1.440449   -0.126777
     11          6           0       -3.371096   -1.301709    0.506384
     12          6           0       -2.668411   -2.455531    1.556119
     13          6           0       -1.246238   -2.156315    1.706270
     14          6           0       -0.674965   -1.358118    2.620789
     15          6           0        0.728648   -1.306104    2.381853
     16          6           0        0.897426   -1.970746    1.067846
     17          6           0       -4.818260   -1.799592    0.160309
     18          6           0        1.781557   -0.618806    3.243101
     19          6           0       -4.883241   -1.916822   -1.196708
     20          6           0        1.990348   -1.952847    0.197535
     21          6           0        2.075945   -0.909964   -0.757260
     22          6           0       -3.586058   -1.371918   -1.792506
     23          6           0        2.969269   -0.555484   -1.849752
     24          6           0       -1.340884   -0.578395    3.731180
     25          6           0       -5.849567   -2.068978    1.175964
     26          6           0        2.589951    0.562969   -2.480281
     27          6           0        1.987633    0.923500    2.846799
     28          6           0        1.412612    1.069831   -1.778251
     29          6           0        4.266830   -1.301636   -2.196049
     30          6           0       -5.900221   -2.344059   -2.020508
     31          6           0        5.474687   -1.005202   -1.314674
     32          6           0        3.175051    1.287782   -3.708859
     33          6           0        0.521785    2.181395   -1.970733
     34          6           0        3.120693    1.474993    3.674412
     35          6           0       -0.596270    2.367133   -1.114923
     36          6           0       -6.936321   -3.184785   -1.634150
     37          6           0        6.576377   -1.967884   -1.507945
     38          6           0       -1.464662    3.480571   -1.119906
     39          6           0       -2.238505    3.376729    0.015189
     40          6           0       -1.857394    2.110332    0.678339
     41          6           0       -1.373150    4.602304   -1.978486
     42          6           0       -3.218297    4.291925    0.600899
     43          6           0       -1.974201    5.793772   -2.090604
     44          1           0       -3.455182   -0.309422    1.148249
     45          1           0       -2.713662   -3.408380    1.181646
     46          1           0       -3.140828   -2.070117    2.528005
     47          1           0       -0.508158   -2.551870   -0.311644
     48          1           0       -2.319323   -0.245032   -0.508484
     49          1           0        1.462307   -0.567053    4.264962
     50          1           0        2.754598   -1.127866    3.237259
     51          1           0        2.592520   -2.825379    0.213035
     52          1           0       -1.749834   -1.368912    4.555478
     53          1           0       -0.479556    0.286300    4.262948
     54          1           0       -2.257671    0.019925    3.242413
     55          1           0       -5.670874   -1.703890    2.191375
     56          1           0       -6.062498   -3.080352    1.438538
     57          1           0       -6.817274   -1.636186    0.712801
     58          1           0        2.432354    1.106429    1.689881
     59          1           0        1.112633    1.605402    3.034418
     60          1           0        0.357215    0.291744   -0.316309
     61          1           0        4.659691   -1.177557   -3.176188
     62          1           0        4.129900   -2.409688   -2.034452
     63          1           0       -6.016836   -2.213737   -3.145543
     64          1           0        5.192270   -1.071726   -0.198809
     65          1           0        5.862837    0.022985   -1.581670
     66          1           0        3.940155    0.849408   -4.227334
     67          1           0        3.485761    2.313780   -3.438616
     68          1           0        2.379351    1.500224   -4.399227
     69          1           0        0.915550    2.839322   -2.776884
     70          1           0       -6.696950   -3.711911   -0.505289
     71          1           0       -7.850133   -3.531520   -2.391799
     72          1           0        3.741156    3.021020    4.209661
     73          1           0       -0.905015    4.285672   -2.963592
     74          1           0       -4.278531    4.288246   -0.021333
     75          1           0       -3.426998    4.070264    1.749507
     76          1           0       -2.944845    5.486765    0.577844
     77          1           0        8.537721   -2.089104   -0.838198
     78          1           0       -1.746012    6.601894   -3.009536
     79          1           0       -2.781400    6.194110   -1.388497
 ---------------------------------------------------------------------

 SCF Done:  E(RB3LYP) =  -1947.81806411     A.U. after   19 cycles

 Excitation energies and oscillator strengths:

 Excited State   1:      Singlet-A      0.7720 eV 1606.07 nm  f=0.0001  <S**2>=0.000
     155 ->156         0.70142
 This state for optimization and/or second-order correction.
 Total Energy, E(TD-HF/TD-DFT) =  -1947.78969469
 Copying the excited state density for this state as the 1-particle RhoCI density.

 The electronic state is 1-A.
 Alpha  occ. eigenvalues --  -19.17687 -19.17487 -19.14524 -19.12992 -19.11823
 Alpha  occ. eigenvalues --  -19.09871 -14.36119 -14.35951 -14.33797 -14.30388
 Alpha  occ. eigenvalues --  -10.33316 -10.30386 -10.28575 -10.28276 -10.26595
 Alpha  occ. eigenvalues --  -10.26170 -10.24995 -10.23334 -10.22960 -10.22770
 Alpha  occ. eigenvalues --  -10.22729 -10.22702 -10.22530 -10.22506 -10.21734
 Alpha  occ. eigenvalues --  -10.21589 -10.21516 -10.21475 -10.21444 -10.21160
 Alpha  occ. eigenvalues --  -10.21098 -10.21061 -10.20903 -10.20605 -10.20139
 Alpha  occ. eigenvalues --  -10.19752 -10.19302 -10.19234 -10.18878 -10.18868
 Alpha  occ. eigenvalues --  -10.18743 -10.17376 -10.15910  -1.11596  -1.08321
 Alpha  occ. eigenvalues --   -1.04600  -1.00722  -1.00443  -0.99530  -0.99005
 Alpha  occ. eigenvalues --   -0.96256  -0.93221  -0.92958  -0.84122  -0.82308
 Alpha  occ. eigenvalues --   -0.81683  -0.81625  -0.79627  -0.78890  -0.78406
 Alpha  occ. eigenvalues --   -0.76689  -0.75455  -0.75159  -0.74111  -0.73395
 Alpha  occ. eigenvalues --   -0.71238  -0.69983  -0.69748  -0.68538  -0.67004
 Alpha  occ. eigenvalues --   -0.65524  -0.65253  -0.63820  -0.61026  -0.60341
 Alpha  occ. eigenvalues --   -0.59381  -0.59046  -0.57495  -0.57199  -0.56494
 Alpha  occ. eigenvalues --   -0.55901  -0.55299  -0.53785  -0.53049  -0.52910
 Alpha  occ. eigenvalues --   -0.52124  -0.51302  -0.50812  -0.50026  -0.49407
 Alpha  occ. eigenvalues --   -0.48887  -0.48680  -0.48549  -0.47990  -0.47892
 Alpha  occ. eigenvalues --   -0.47696  -0.47276  -0.46878  -0.45759  -0.45613
 Alpha  occ. eigenvalues --   -0.45195  -0.44906  -0.44635  -0.44054  -0.43930
 Alpha  occ. eigenvalues --   -0.43484  -0.43377  -0.42780  -0.42465  -0.41908
 Alpha  occ. eigenvalues --   -0.41494  -0.41341  -0.41165  -0.40883  -0.40320
 Alpha  occ. eigenvalues --   -0.39978  -0.39879  -0.39670  -0.39627  -0.39494
 Alpha  occ. eigenvalues --   -0.39022  -0.38758  -0.38483  -0.38254  -0.37735
 Alpha  occ. eigenvalues --   -0.37491  -0.37328  -0.36971  -0.36566  -0.36470
 Alpha  occ. eigenvalues --   -0.35779  -0.35581  -0.34820  -0.34274  -0.33949
 Alpha  occ. eigenvalues --   -0.33718  -0.32987  -0.32685  -0.32081  -0.31761
 Alpha  occ. eigenvalues --   -0.31339  -0.30849  -0.29958  -0.29594  -0.28581
 Alpha  occ. eigenvalues --   -0.27807  -0.27423  -0.26496  -0.26069  -0.24394
 Alpha  occ. eigenvalues --   -0.24005  -0.22399  -0.22225  -0.21942  -0.18425
 Alpha virt. eigenvalues --   -0.13015  -0.08280  -0.04984  -0.01976  -0.01423
 Alpha virt. eigenvalues --    0.00128   0.01285   0.01833   0.02609   0.03108
 Alpha virt. eigenvalues --    0.03613   0.04071   0.04129   0.04867   0.05034

 Mulliken charges:
               1
     1  O   -0.254012
     2  O   -0.153460
     3  O   -0.224624
     4  O   -0.277773
     5  O   -0.193897
     6  O   -0.178803
     7  N   -0.068003
     8  N   -0.181090
     9  N   -0.028128
    10  N   -0.369202
    11  C   -0.085520
    12  C    0.258422
    13  C   -0.109426
    14  C   -0.073760
    15  C   -0.073564
    16  C   -0.045970
    17  C   -0.113345
    18  C    0.140880
    19  C    0.018028
    20  C   -0.087055
    21  C    0.136948
    22  C    0.165371
    23  C   -0.074511
    24  C   -0.061757
    25  C    0.069881
    26  C   -0.097665
    27  C   -0.094119
    28  C    0.020159
    29  C    0.096299
    30  C   -0.071126
    31  C   -0.036117
    32  C    0.169567
    33  C   -0.081714
    34  C    0.103188
    35  C    0.164078
    36  C   -0.154938
    37  C    0.162275
    38  C    0.091921
    39  C   -0.146436
    40  C    0.174316
    41  C   -0.009601
    42  C   -0.068607
    43  C   -0.121213
    44  H    0.076798
    45  H   -0.043672
    46  H    0.004588
    47  H    0.144448
    48  H    0.171364
    49  H   -0.002281
    50  H    0.003643
    51  H    0.001047
    52  H    0.036746
    53  H    0.033898
    54  H    0.073592
    55  H    0.005771
    56  H    0.027447
    57  H    0.053245
    58  H    0.059725
    59  H    0.063242
    60  H    0.091733
    61  H    0.002460
    62  H    0.021862
    63  H    0.027433
    64  H    0.061374
    65  H    0.053039
    66  H   -0.005786
    67  H    0.022361
    68  H    0.018734
    69  H   -0.013532
    70  H    0.043889
    71  H    0.062050
    72  H    0.164655
    73  H    0.022383
    74  H    0.066366
    75  H    0.060045
    76  H    0.054468
    77  H    0.202547
    78  H    0.062125
    79  H    0.036300
 Sum of Mulliken charges =  -0.00000

 Dipole moment (field-independent basis, Debye):
    X=              2.1468    Y=              3.7537    Z=             -1.2974  Tot=              4.5146
 Quadrupole moment (field-independent basis, Debye-Ang):
   XX=           -232.5199   YY=           -236.4027   ZZ=           -267.8259
   XY=              1.7696   XZ=            -21.1551   YZ=            -10.9521

 Normal termination of Gaussian 16 at Mon Jul 29 20:37:30 2019.
