 Gaussian 16, Revision A.03,
 Gaussian 16:  ES64L-G16RevA.03 25-Dec-2016

 --------------------------
 # td=(NStates=1) B3LYP/SVP
 --------------------------

 --
 TD
 --
 Symbolic Z-matrix:
 Charge =  0 Multiplicity = 1

                         Standard orientation:
 ---------------------------------------------------------------------
 Center     Atomic      Atomic             Coordinates (Angstroms)
 Number     Number       Type             X           Y           Z
 ---------------------------------------------------------------------
      1          8           0       -3.187775   -1.146898   -2.900530
      2          8           0        3.008513    2.883219    3.548079
      3          8           0        4.133535    0.908346    4.169616
      4          8           0        7.716297   -1.496050   -0.953659
      5          8           0        6.528203   -2.898638   -2.414757
      6          8           0       -2.634176    1.480591    1.657605
      7          7           0       -0.214309   -2.395922    0.730803
      8          7           0       -2.697450   -1.060483   -0.607381
      9          7           0        1.153094    0.164252   -0.674853
     10          7           0       -1.157157    1.412428   -0.084802
     11          6           0       -3.372723   -1.350642    0.625397
     12          6           0       -2.558874   -2.390179    1.544063
     13          6           0       -1.156705   -2.080080    1.654020
     14          6           0       -0.474716   -1.435393    2.732386
     15          6           0        0.882660   -1.425246    2.329522
     16          6           0        0.974611   -1.942619    1.041986
     17          6           0       -4.711097   -1.877237    0.135877
     18          6           0        2.022372   -0.741919    2.997614
     19          6           0       -4.826887   -1.985726   -1.252794
     20          6           0        2.156142   -1.982840    0.037965
     21          6           0        2.107909   -0.783855   -0.700841
     22          6           0       -3.487784   -1.350001   -1.740788
     23          6           0        2.988186   -0.427494   -1.891016
     24          6           0       -1.253727   -0.856235    3.884001
     25          6           0       -5.816445   -2.355851    1.142504
     26          6           0        2.554534    0.737801   -2.311501
     27          6           0        2.041247    0.814601    2.910599
     28          6           0        1.208333    1.157752   -1.632920
     29          6           0        4.181380   -1.196722   -2.257336
     30          6           0       -5.817491   -2.464843   -2.210854
     31          6           0        5.488247   -0.982846   -1.360680
     32          6           0        3.166091    1.640055   -3.450970
     33          6           0        0.422147    2.234999   -1.709638
     34          6           0        3.144744    1.510880    3.652997
     35          6           0       -0.689109    2.402800   -0.939028
     36          6           0       -6.869835   -3.235166   -1.978206
     37          6           0        6.579155   -1.918041   -1.607151
     38          6           0       -1.504340    3.590395   -0.943608
     39          6           0       -2.359693    3.396473    0.132417
     40          6           0       -2.134181    2.090759    0.710634
     41          6           0       -1.380967    4.695861   -2.019690
     42          6           0       -3.615050    4.203555    0.571132
     43          6           0       -2.174738    5.814436   -2.032273
     44          1           0       -3.697374   -0.509606    1.267192
     45          1           0       -2.769176   -3.477519    1.175755
     46          1           0       -3.099375   -2.651823    2.574930
     47          1           0       -0.434898   -2.751823   -0.258970
     48          1           0       -2.122291   -0.099065   -0.736815
     49          1           0        2.154741   -0.909803    4.162441
     50          1           0        2.983254   -1.157519    2.718807
     51          1           0        2.950059   -2.615103    0.106582
     52          1           0       -2.126090   -1.623557    4.378461
     53          1           0       -0.578325   -0.537234    4.608033
     54          1           0       -1.586008    0.100777    3.554458
     55          1           0       -5.856111   -1.756470    2.181481
     56          1           0       -5.671197   -3.418707    1.291861
     57          1           0       -6.953454   -2.384008    0.972677
     58          1           0        1.954046    1.037418    1.835978
     59          1           0        0.909047    1.391601    3.140554
     60          1           0        0.231861    0.165032   -0.113191
     61          1           0        4.478233   -0.863849   -3.189819
     62          1           0        3.813990   -2.125593   -2.244219
     63          1           0       -5.431038   -2.161900   -3.250716
     64          1           0        5.276070   -1.128220   -0.365079
     65          1           0        5.768036   -0.004362   -1.486582
     66          1           0        4.182477    1.354329   -3.760300
     67          1           0        3.138467    2.862054   -3.339697
     68          1           0        2.456607    1.464473   -4.342679
     69          1           0        0.916614    3.072232   -2.370025
     70          1           0       -7.101212   -3.458809   -0.923179
     71          1           0       -7.662727   -3.379552   -2.691393
     72          1           0        3.725302    3.383714    4.054872
     73          1           0       -0.595165    4.493859   -2.744388
     74          1           0       -4.257381    4.251510   -0.359202
     75          1           0       -4.051401    3.801895    1.491066
     76          1           0       -3.389312    5.389284    0.616970
     77          1           0        8.466436   -1.984121   -0.978766
     78          1           0       -1.633787    6.616897   -2.605171
     79          1           0       -2.775318    5.882497   -1.152034
 ---------------------------------------------------------------------

 SCF Done:  E(RB3LYP) =  -1947.83198836     A.U. after   17 cycles

 Excitation energies and oscillator strengths:

 Excited State   1:      Singlet-A      0.8296 eV 1494.56 nm  f=0.0011  <S**2>=0.000
     155 ->156         0.70454
 This state for optimization and/or second-order correction.
 Total Energy, E(TD-HF/TD-DFT) =  -1947.80150225
 Copying the excited state density for this state as the 1-particle RhoCI density.

 The electronic state is 1-A.
 Alpha  occ. eigenvalues --  -19.18922 -19.18540 -19.13700 -19.13118 -19.12626
 Alpha  occ. eigenvalues --  -19.08686 -14.38504 -14.36776 -14.32469 -14.31391
 Alpha  occ. eigenvalues --  -10.34091 -10.32660 -10.28987 -10.27576 -10.26595
 Alpha  occ. eigenvalues --  -10.26258 -10.25622 -10.23422 -10.23402 -10.23208
 Alpha  occ. eigenvalues --  -10.23058 -10.22849 -10.22603 -10.22341 -10.22275
 Alpha  occ. eigenvalues --  -10.21909 -10.21806 -10.21714 -10.21327 -10.21147
 Alpha  occ. eigenvalues --  -10.21079 -10.20512 -10.20416 -10.20388 -10.20155
 Alpha  occ. eigenvalues --  -10.19016 -10.18864 -10.18792 -10.18574 -10.17631
 Alpha  occ. eigenvalues --  -10.17382 -10.16472 -10.16444  -1.09530  -1.06736
 Alpha  occ. eigenvalues --   -1.03432  -1.00469  -1.00238  -0.99783  -0.98123
 Alpha  occ. eigenvalues --   -0.97926  -0.93771  -0.90721  -0.84739  -0.82941
 Alpha  occ. eigenvalues --   -0.81318  -0.79947  -0.79264  -0.78824  -0.78573
 Alpha  occ. eigenvalues --   -0.76943  -0.75928  -0.74875  -0.73970  -0.73066
 Alpha  occ. eigenvalues --   -0.72092  -0.70146  -0.69778  -0.68321  -0.68014
 Alpha  occ. eigenvalues --   -0.66569  -0.66022  -0.64039  -0.63469  -0.61510
 Alpha  occ. eigenvalues --   -0.60380  -0.58661  -0.58598  -0.58272  -0.57182
 Alpha  occ. eigenvalues --   -0.56253  -0.54178  -0.53479  -0.53358  -0.53214
 Alpha  occ. eigenvalues --   -0.52717  -0.51907  -0.51326  -0.50343  -0.49918
 Alpha  occ. eigenvalues --   -0.49594  -0.48988  -0.48513  -0.47908  -0.47500
 Alpha  occ. eigenvalues --   -0.47247  -0.46769  -0.46340  -0.45749  -0.45272
 Alpha  occ. eigenvalues --   -0.44861  -0.44712  -0.44361  -0.43816  -0.43659
 Alpha  occ. eigenvalues --   -0.43353  -0.42928  -0.42830  -0.42646  -0.41716
 Alpha  occ. eigenvalues --   -0.41649  -0.41272  -0.40889  -0.40594  -0.40454
 Alpha  occ. eigenvalues --   -0.40107  -0.39788  -0.39624  -0.39462  -0.39124
 Alpha  occ. eigenvalues --   -0.38812  -0.38714  -0.38434  -0.38123  -0.37997
 Alpha  occ. eigenvalues --   -0.37839  -0.37617  -0.37249  -0.37101  -0.36749
 Alpha  occ. eigenvalues --   -0.36506  -0.36011  -0.35790  -0.35476  -0.34045
 Alpha  occ. eigenvalues --   -0.32894  -0.32652  -0.32335  -0.31475  -0.31260
 Alpha  occ. eigenvalues --   -0.30454  -0.30133  -0.29868  -0.29125  -0.28728
 Alpha  occ. eigenvalues --   -0.27990  -0.27637  -0.26866  -0.24814  -0.24601
 Alpha  occ. eigenvalues --   -0.23580  -0.23053  -0.22390  -0.22103  -0.18947
 Alpha virt. eigenvalues --   -0.13545  -0.07839  -0.04027  -0.03216  -0.02373
 Alpha virt. eigenvalues --   -0.01696   0.01917   0.02011   0.02781   0.03297
 Alpha virt. eigenvalues --    0.03691   0.03893   0.04507   0.04635   0.05051

 Mulliken charges:
               1
     1  O   -0.235201
     2  O   -0.229450
     3  O   -0.272991
     4  O   -0.171439
     5  O   -0.265068
     6  O   -0.191790
     7  N    0.003374
     8  N   -0.276869
     9  N   -0.101236
    10  N   -0.379041
    11  C    0.153396
    12  C    0.076165
    13  C   -0.062163
    14  C   -0.133549
    15  C   -0.079408
    16  C   -0.102572
    17  C   -0.189643
    18  C    0.082733
    19  C   -0.061574
    20  C   -0.017462
    21  C    0.084136
    22  C    0.132224
    23  C   -0.127272
    24  C    0.142882
    25  C   -0.009361
    26  C   -0.099217
    27  C   -0.090081
    28  C    0.103902
    29  C    0.231153
    30  C   -0.005149
    31  C    0.085815
    32  C   -0.004581
    33  C   -0.139332
    34  C    0.216159
    35  C    0.153025
    36  C   -0.014712
    37  C    0.169184
    38  C    0.024594
    39  C   -0.194399
    40  C    0.186142
    41  C   -0.021019
    42  C    0.033304
    43  C    0.039412
    44  H    0.045560
    45  H   -0.009444
    46  H    0.010253
    47  H    0.140573
    48  H    0.199263
    49  H    0.011340
    50  H   -0.011126
    51  H   -0.012930
    52  H    0.037209
    53  H   -0.036416
    54  H    0.014551
    55  H    0.032147
    56  H    0.030795
    57  H    0.038547
    58  H    0.031366
    59  H    0.056126
    60  H    0.213330
    61  H   -0.017111
    62  H   -0.012188
    63  H    0.020886
    64  H    0.014585
    65  H    0.014456
    66  H    0.030690
    67  H    0.052225
    68  H    0.052010
    69  H    0.022443
    70  H    0.004060
    71  H    0.019300
    72  H    0.204136
    73  H   -0.000732
    74  H    0.052680
    75  H    0.052903
    76  H    0.050787
    77  H    0.150777
    78  H    0.052834
    79  H    0.001093
 Sum of Mulliken charges =  -0.00000

 Dipole moment (field-independent basis, Debye):
    X=              3.1917    Y=              5.6668    Z=             -0.7567  Tot=              6.5477
 Quadrupole moment (field-independent basis, Debye-Ang):
   XX=           -234.2888   YY=           -232.1788   ZZ=           -271.5103
   XY=              7.3141   XZ=            -20.1990   YZ=            -12.4450

 Normal termination of Gaussian 16 at Thu Jul 25 20:46:05 2019.
