 Gaussian 16, Revision A.03,
 Gaussian 16:  ES64L-G16RevA.03 25-Dec-2016

 --------------------------
 # td=(NStates=1) B3LYP/SVP
 --------------------------

 --
 TD
 --
 Symbolic Z-matrix:
 Charge =  0 Multiplicity = 1

                         Standard orientation:
 ---------------------------------------------------------------------
 Center     Atomic      Atomic             Coordinates (Angstroms)
 Number     Number       Type             X           Y           Z
 ---------------------------------------------------------------------
      1          8           0       -3.105971   -2.031281   -2.671897
      2          8           0        2.655564    3.885452    2.821050
      3          8           0        3.638899    2.199110    3.899090
      4          8           0        7.611381   -1.732110   -0.149584
      5          8           0        6.772059   -3.057589   -1.860926
      6          8           0       -2.554517    1.862071    1.150045
      7          7           0       -0.188174   -2.165741    1.299872
      8          7           0       -2.571969   -1.394796   -0.470043
      9          7           0        1.159705   -0.059732   -0.766233
     10          7           0       -0.990185    1.380197   -0.528156
     11          6           0       -3.288147   -1.192300    0.829675
     12          6           0       -2.572394   -1.995972    1.980626
     13          6           0       -1.188586   -1.653251    2.160569
     14          6           0       -0.592933   -0.648562    2.989131
     15          6           0        0.776356   -0.661371    2.647300
     16          6           0        0.973985   -1.592880    1.548000
     17          6           0       -4.600973   -1.816339    0.530031
     18          6           0        1.801704    0.313381    3.262959
     19          6           0       -4.633428   -2.285674   -0.761334
     20          6           0        2.141600   -1.720242    0.670807
     21          6           0        2.124294   -1.026598   -0.493145
     22          6           0       -3.395831   -1.888862   -1.505445
     23          6           0        3.017822   -0.976756   -1.650127
     24          6           0       -1.302714    0.186886    4.079764
     25          6           0       -5.685051   -1.980628    1.485031
     26          6           0        2.592418    0.049352   -2.500596
     27          6           0        1.674617    1.733744    2.780996
     28          6           0        1.324145    0.542855   -2.033623
     29          6           0        4.186038   -1.956587   -1.679030
     30          6           0       -5.707465   -2.875507   -1.502965
     31          6           0        5.407944   -1.255403   -0.904415
     32          6           0        3.220977    0.437943   -3.789472
     33          6           0        0.456377    1.614219   -2.380254
     34          6           0        2.771960    2.588754    3.226395
     35          6           0       -0.544259    1.978908   -1.572865
     36          6           0       -6.740831   -3.622576   -1.038728
     37          6           0        6.683957   -2.116923   -1.015569
     38          6           0       -1.492926    3.240649   -1.757288
     39          6           0       -2.351566    3.205314   -0.808006
     40          6           0       -1.920814    2.071111    0.043047
     41          6           0       -1.380979    4.002433   -3.025772
     42          6           0       -3.543347    4.174071   -0.543114
     43          6           0       -2.145158    5.217763   -3.233011
     44          1           0       -3.367332   -0.234170    1.154878
     45          1           0       -2.805501   -3.118406    1.559872
     46          1           0       -3.161010   -1.958709    3.079147
     47          1           0       -0.407927   -2.713347    0.436960
     48          1           0       -1.899383   -0.728678   -0.543212
     49          1           0        1.401050    0.278934    4.280254
     50          1           0        2.663236   -0.197625    2.956777
     51          1           0        2.877468   -2.406368    0.594804
     52          1           0       -1.954057   -0.560973    4.569134
     53          1           0       -0.681423    0.443355    4.751575
     54          1           0       -1.883326    0.960580    3.491894
     55          1           0       -5.440084   -1.052149    2.194326
     56          1           0       -5.375106   -3.028415    2.230922
     57          1           0       -6.616169   -1.788427    0.991825
     58          1           0        1.874813    1.679849    1.534370
     59          1           0        0.771806    2.285257    2.976496
     60          1           0        0.325527    0.289961   -0.265911
     61          1           0        4.639656   -2.108060   -2.738951
     62          1           0        4.108582   -2.794935   -1.305558
     63          1           0       -5.476875   -2.587715   -2.555636
     64          1           0        5.080661   -1.067959    0.076014
     65          1           0        5.646157   -0.290874   -1.337411
     66          1           0        4.015613   -0.330069   -4.135266
     67          1           0        3.734154    1.555731   -3.814845
     68          1           0        2.362846    0.302180   -4.613447
     69          1           0        0.623891    2.267944   -3.350243
     70          1           0       -7.111017   -3.526797    0.190720
     71          1           0       -7.481213   -4.167189   -1.656942
     72          1           0        3.309022    4.367298    3.136797
     73          1           0       -0.660700    3.709811   -3.813237
     74          1           0       -4.257331    4.344605   -1.409979
     75          1           0       -4.133285    3.808698    0.303118
     76          1           0       -2.994737    5.093324   -0.435396
     77          1           0        8.326045   -2.352414   -0.356905
     78          1           0       -1.965697    5.868934   -4.313081
     79          1           0       -2.494050    5.886400   -2.351590
 ---------------------------------------------------------------------

 SCF Done:  E(RB3LYP) =  -1947.75902403     A.U. after   19 cycles

 Excitation energies and oscillator strengths:

 Excited State   1:      Singlet-A      0.9179 eV 1350.74 nm  f=0.0026  <S**2>=0.000
     155 ->156         0.70431
 This state for optimization and/or second-order correction.
 Total Energy, E(TD-HF/TD-DFT) =  -1947.72529189
 Copying the excited state density for this state as the 1-particle RhoCI density.

 The electronic state is 1-A.
 Alpha  occ. eigenvalues --  -19.21896 -19.16373 -19.14602 -19.11879 -19.10783
 Alpha  occ. eigenvalues --  -19.09545 -14.37499 -14.37061 -14.32520 -14.31090
 Alpha  occ. eigenvalues --  -10.34654 -10.30598 -10.27842 -10.27592 -10.27457
 Alpha  occ. eigenvalues --  -10.25621 -10.24890 -10.24146 -10.23949 -10.23619
 Alpha  occ. eigenvalues --  -10.23080 -10.22734 -10.22462 -10.22418 -10.21861
 Alpha  occ. eigenvalues --  -10.21752 -10.21657 -10.21428 -10.21324 -10.21279
 Alpha  occ. eigenvalues --  -10.20358 -10.20336 -10.20221 -10.19809 -10.19769
 Alpha  occ. eigenvalues --  -10.19640 -10.19407 -10.18808 -10.18477 -10.17798
 Alpha  occ. eigenvalues --  -10.17437 -10.17333 -10.17177  -1.12754  -1.10756
 Alpha  occ. eigenvalues --   -1.02466  -1.01621  -1.01509  -1.00868  -0.99098
 Alpha  occ. eigenvalues --   -0.97103  -0.94968  -0.91984  -0.84326  -0.83205
 Alpha  occ. eigenvalues --   -0.81559  -0.80974  -0.80616  -0.79706  -0.79076
 Alpha  occ. eigenvalues --   -0.77449  -0.76341  -0.74637  -0.73875  -0.72902
 Alpha  occ. eigenvalues --   -0.70909  -0.70066  -0.69609  -0.69376  -0.68563
 Alpha  occ. eigenvalues --   -0.68054  -0.67070  -0.63132  -0.62210  -0.61213
 Alpha  occ. eigenvalues --   -0.60382  -0.60333  -0.60007  -0.58989  -0.56958
 Alpha  occ. eigenvalues --   -0.55773  -0.55262  -0.54814  -0.53780  -0.53074
 Alpha  occ. eigenvalues --   -0.52363  -0.51746  -0.51181  -0.50817  -0.50533
 Alpha  occ. eigenvalues --   -0.49895  -0.49379  -0.48750  -0.48382  -0.47771
 Alpha  occ. eigenvalues --   -0.47398  -0.47313  -0.47256  -0.46610  -0.45767
 Alpha  occ. eigenvalues --   -0.45382  -0.45194  -0.45095  -0.44978  -0.44210
 Alpha  occ. eigenvalues --   -0.43035  -0.42924  -0.42506  -0.42182  -0.42100
 Alpha  occ. eigenvalues --   -0.41788  -0.41717  -0.41397  -0.41159  -0.41091
 Alpha  occ. eigenvalues --   -0.40724  -0.40412  -0.40305  -0.39862  -0.39646
 Alpha  occ. eigenvalues --   -0.39464  -0.39251  -0.39141  -0.38888  -0.38186
 Alpha  occ. eigenvalues --   -0.38015  -0.37488  -0.37426  -0.37012  -0.36806
 Alpha  occ. eigenvalues --   -0.36381  -0.35943  -0.35327  -0.34950  -0.33996
 Alpha  occ. eigenvalues --   -0.33915  -0.33597  -0.32829  -0.32713  -0.31866
 Alpha  occ. eigenvalues --   -0.31522  -0.29913  -0.29562  -0.28689  -0.28486
 Alpha  occ. eigenvalues --   -0.27567  -0.27086  -0.25854  -0.25178  -0.24641
 Alpha  occ. eigenvalues --   -0.24017  -0.23262  -0.23028  -0.22084  -0.19015
 Alpha virt. eigenvalues --   -0.13023  -0.07492  -0.04676  -0.03148  -0.02486
 Alpha virt. eigenvalues --    0.01114   0.01340   0.02113   0.02207   0.02655
 Alpha virt. eigenvalues --    0.03409   0.03599   0.04556   0.04767   0.05339

 Mulliken charges:
               1
     1  O   -0.213747
     2  O   -0.142766
     3  O   -0.174790
     4  O   -0.127968
     5  O   -0.282210
     6  O   -0.293974
     7  N   -0.046990
     8  N   -0.219112
     9  N   -0.148461
    10  N   -0.172435
    11  C    0.174120
    12  C    0.021132
    13  C   -0.053489
    14  C   -0.145339
    15  C   -0.191224
    16  C    0.016077
    17  C   -0.197498
    18  C    0.228910
    19  C   -0.094232
    20  C    0.006523
    21  C    0.055556
    22  C    0.186209
    23  C   -0.044284
    24  C    0.206933
    25  C    0.026861
    26  C   -0.104207
    27  C   -0.040203
    28  C    0.135774
    29  C    0.185070
    30  C    0.015840
    31  C   -0.008191
    32  C   -0.029389
    33  C   -0.130926
    34  C    0.084739
    35  C    0.063779
    36  C   -0.104916
    37  C    0.162289
    38  C    0.057601
    39  C   -0.197738
    40  C    0.132892
    41  C   -0.035178
    42  C    0.096057
    43  C   -0.115333
    44  H    0.001097
    45  H    0.005938
    46  H    0.029162
    47  H    0.133873
    48  H    0.091513
    49  H    0.005105
    50  H   -0.015654
    51  H   -0.067141
    52  H   -0.000410
    53  H   -0.070569
    54  H    0.069523
    55  H    0.026658
    56  H    0.076570
    57  H    0.046601
    58  H    0.046898
    59  H    0.038684
    60  H    0.185294
    61  H    0.041776
    62  H   -0.067571
    63  H    0.017293
    64  H    0.021912
    65  H    0.038787
    66  H    0.039455
    67  H    0.067801
    68  H    0.060507
    69  H    0.025003
    70  H    0.047875
    71  H    0.031386
    72  H    0.117437
    73  H    0.017454
    74  H    0.038090
    75  H    0.033049
    76  H    0.029534
    77  H    0.181074
    78  H    0.052735
    79  H    0.061500
 Sum of Mulliken charges =  -0.00000

 Dipole moment (field-independent basis, Debye):
    X=              4.7618    Y=              2.6178    Z=             -0.9476  Tot=              5.5160
 Quadrupole moment (field-independent basis, Debye-Ang):
   XX=           -234.8081   YY=           -246.8895   ZZ=           -263.4393
   XY=             -2.4381   XZ=            -19.1209   YZ=            -17.9274

 Normal termination of Gaussian 16 at Wed Jul 24 21:20:05 2019.
