 Gaussian 16, Revision A.03,
 Gaussian 16:  ES64L-G16RevA.03 25-Dec-2016

 --------------------------
 # td=(NStates=1) B3LYP/SVP
 --------------------------

 --
 TD
 --
 Symbolic Z-matrix:
 Charge =  0 Multiplicity = 1

                         Standard orientation:
 ---------------------------------------------------------------------
 Center     Atomic      Atomic             Coordinates (Angstroms)
 Number     Number       Type             X           Y           Z
 ---------------------------------------------------------------------
      1          8           0       -3.453715   -0.466410   -2.944370
      2          8           0        3.385113    2.060751    3.862250
      3          8           0        4.103107   -0.049543    4.240501
      4          8           0        7.774463   -1.212366   -1.160703
      5          8           0        6.514032   -2.283411   -2.778856
      6          8           0       -2.872030    1.315779    1.663380
      7          7           0       -0.343075   -2.664155    0.262551
      8          7           0       -2.703825   -0.832509   -0.792523
      9          7           0        1.141177    0.254308   -0.631335
     10          7           0       -1.093484    1.490229    0.180685
     11          6           0       -3.331561   -1.462121    0.428674
     12          6           0       -2.683612   -2.700304    0.981196
     13          6           0       -1.182055   -2.439030    1.252950
     14          6           0       -0.513243   -2.017958    2.416753
     15          6           0        0.865389   -1.844971    2.018187
     16          6           0        0.953838   -2.266147    0.701264
     17          6           0       -4.801227   -1.896849   -0.162735
     18          6           0        1.948741   -1.302065    2.869870
     19          6           0       -4.887974   -1.596113   -1.503851
     20          6           0        1.962825   -1.985754   -0.276225
     21          6           0        2.093313   -0.747312   -0.821657
     22          6           0       -3.593804   -0.841792   -1.852070
     23          6           0        3.017959   -0.158427   -1.843215
     24          6           0       -1.176855   -1.625418    3.709218
     25          6           0       -5.807588   -2.460885    0.839510
     26          6           0        2.534599    1.040852   -2.180069
     27          6           0        2.043994    0.323569    2.864718
     28          6           0        1.347390    1.277294   -1.507147
     29          6           0        4.176075   -0.889424   -2.270732
     30          6           0       -5.932819   -1.877095   -2.424434
     31          6           0        5.407815   -0.494733   -1.464776
     32          6           0        2.986212    2.002197   -3.243442
     33          6           0        0.569275    2.390177   -1.401219
     34          6           0        3.289644    0.763931    3.770131
     35          6           0       -0.541060    2.536096   -0.530738
     36          6           0       -6.879070   -2.835613   -2.379964
     37          6           0        6.634398   -1.380569   -2.020743
     38          6           0       -1.388831    3.812400   -0.311397
     39          6           0       -2.364926    3.389588    0.698979
     40          6           0       -2.084682    1.982454    0.947199
     41          6           0       -1.305064    5.036221   -1.102970
     42          6           0       -3.526214    4.178992    1.338898
     43          6           0       -1.918863    6.293877   -0.838974
     44          1           0       -3.368297   -0.577118    1.217732
     45          1           0       -2.750408   -3.407058    0.217509
     46          1           0       -3.275976   -3.112297    1.900064
     47          1           0       -0.595824   -2.734270   -0.751283
     48          1           0       -1.924601   -0.151725   -0.830384
     49          1           0        2.018749   -1.617427    3.897573
     50          1           0        2.931508   -1.729640    2.420941
     51          1           0        2.769202   -2.765184   -0.211233
     52          1           0       -1.929760   -2.312171    3.904764
     53          1           0       -0.636777   -1.886366    4.695835
     54          1           0       -1.636580   -0.516156    3.465387
     55          1           0       -5.610224   -2.118481    1.932125
     56          1           0       -5.553522   -3.510017    0.889542
     57          1           0       -6.938926   -2.418010    0.439291
     58          1           0        2.422106    0.704648    1.931169
     59          1           0        1.034102    0.760937    2.965044
     60          1           0        0.304139    0.314756   -0.037733
     61          1           0        4.419099   -0.588635   -3.216822
     62          1           0        4.033069   -2.064847   -2.352490
     63          1           0       -5.939317   -1.210979   -3.264326
     64          1           0        5.420844   -0.967885   -0.346889
     65          1           0        5.894129    0.518001   -1.650540
     66          1           0        3.323506    1.325516   -4.221904
     67          1           0        3.849408    2.796183   -2.819699
     68          1           0        2.016371    2.729994   -3.575222
     69          1           0        0.748870    3.317529   -2.082335
     70          1           0       -7.060083   -3.747829   -1.471783
     71          1           0       -7.706231   -2.792945   -3.090457
     72          1           0        4.100375    2.048057    4.309975
     73          1           0       -0.695150    5.084915   -2.045514
     74          1           0       -4.146941    5.040170    0.507232
     75          1           0       -4.317282    3.456451    1.768821
     76          1           0       -3.242242    4.731532    2.211849
     77          1           0        8.310604   -1.924380   -1.541262
     78          1           0       -1.782781    6.972107   -1.630507
     79          1           0       -2.570576    6.468685    0.065133
 ---------------------------------------------------------------------

 SCF Done:  E(RB3LYP) =  -1947.81059013     A.U. after   20 cycles

 Excitation energies and oscillator strengths:

 Excited State   1:      Singlet-A      0.9435 eV 1314.15 nm  f=0.0001  <S**2>=0.000
     155 ->156         0.70322
 This state for optimization and/or second-order correction.
 Total Energy, E(TD-HF/TD-DFT) =  -1947.77591881
 Copying the excited state density for this state as the 1-particle RhoCI density.

 The electronic state is 1-A.
 Alpha  occ. eigenvalues --  -19.19623 -19.18973 -19.16121 -19.13098 -19.11568
 Alpha  occ. eigenvalues --  -19.07661 -14.37477 -14.36755 -14.32238 -14.31569
 Alpha  occ. eigenvalues --  -10.34019 -10.33029 -10.27859 -10.26669 -10.26267
 Alpha  occ. eigenvalues --  -10.25987 -10.25668 -10.25426 -10.24802 -10.23242
 Alpha  occ. eigenvalues --  -10.23228 -10.22631 -10.22508 -10.22341 -10.22280
 Alpha  occ. eigenvalues --  -10.22245 -10.22120 -10.22070 -10.21832 -10.21421
 Alpha  occ. eigenvalues --  -10.20617 -10.20370 -10.20214 -10.20203 -10.20087
 Alpha  occ. eigenvalues --  -10.19403 -10.19358 -10.19306 -10.18392 -10.18209
 Alpha  occ. eigenvalues --  -10.17483 -10.17441 -10.16618  -1.15512  -1.10694
 Alpha  occ. eigenvalues --   -1.02792  -1.02577  -1.01727  -1.00761  -1.00717
 Alpha  occ. eigenvalues --   -0.96926  -0.93147  -0.89518  -0.85613  -0.83593
 Alpha  occ. eigenvalues --   -0.80114  -0.79809  -0.79464  -0.79341  -0.78208
 Alpha  occ. eigenvalues --   -0.76182  -0.75280  -0.74942  -0.73432  -0.72437
 Alpha  occ. eigenvalues --   -0.70463  -0.69683  -0.69368  -0.68407  -0.67400
 Alpha  occ. eigenvalues --   -0.67120  -0.65678  -0.62339  -0.61281  -0.61118
 Alpha  occ. eigenvalues --   -0.59547  -0.59117  -0.58154  -0.57096  -0.56422
 Alpha  occ. eigenvalues --   -0.55534  -0.54718  -0.54603  -0.53762  -0.53336
 Alpha  occ. eigenvalues --   -0.51764  -0.51242  -0.51086  -0.50732  -0.50444
 Alpha  occ. eigenvalues --   -0.49461  -0.48853  -0.48805  -0.48432  -0.48089
 Alpha  occ. eigenvalues --   -0.47476  -0.47316  -0.47017  -0.46313  -0.45767
 Alpha  occ. eigenvalues --   -0.44903  -0.44547  -0.44283  -0.43965  -0.43612
 Alpha  occ. eigenvalues --   -0.43367  -0.42762  -0.42314  -0.42125  -0.41981
 Alpha  occ. eigenvalues --   -0.41731  -0.41525  -0.41445  -0.41291  -0.40945
 Alpha  occ. eigenvalues --   -0.40472  -0.40223  -0.39788  -0.39712  -0.39642
 Alpha  occ. eigenvalues --   -0.39559  -0.38987  -0.38713  -0.38338  -0.38121
 Alpha  occ. eigenvalues --   -0.37708  -0.37613  -0.37399  -0.36946  -0.36485
 Alpha  occ. eigenvalues --   -0.35961  -0.35392  -0.35324  -0.34650  -0.34467
 Alpha  occ. eigenvalues --   -0.34239  -0.34104  -0.33037  -0.32240  -0.31729
 Alpha  occ. eigenvalues --   -0.30774  -0.30312  -0.29754  -0.29368  -0.29105
 Alpha  occ. eigenvalues --   -0.28417  -0.27825  -0.25785  -0.23883  -0.23425
 Alpha  occ. eigenvalues --   -0.23388  -0.23019  -0.22680  -0.21451  -0.19281
 Alpha virt. eigenvalues --   -0.13317  -0.08393  -0.03109  -0.02969  -0.02566
 Alpha virt. eigenvalues --    0.00115   0.01214   0.02216   0.02860   0.03359
 Alpha virt. eigenvalues --    0.03550   0.04176   0.04330   0.04608   0.04774

 Mulliken charges:
               1
     1  O   -0.180180
     2  O   -0.027356
     3  O   -0.267743
     4  O   -0.234205
     5  O   -0.185981
     6  O   -0.246734
     7  N   -0.059076
     8  N   -0.251769
     9  N   -0.099255
    10  N   -0.299766
    11  C    0.005112
    12  C    0.238041
    13  C   -0.104386
    14  C   -0.152947
    15  C   -0.067276
    16  C   -0.051818
    17  C   -0.177118
    18  C    0.083404
    19  C   -0.030804
    20  C   -0.127236
    21  C    0.169964
    22  C    0.107805
    23  C   -0.053629
    24  C    0.080775
    25  C    0.050975
    26  C   -0.064118
    27  C   -0.029260
    28  C    0.136685
    29  C    0.153570
    30  C    0.002587
    31  C   -0.084605
    32  C   -0.081415
    33  C   -0.117222
    34  C    0.126600
    35  C    0.068432
    36  C   -0.092712
    37  C    0.140333
    38  C    0.068124
    39  C   -0.133739
    40  C    0.175005
    41  C   -0.100877
    42  C   -0.005164
    43  C   -0.003208
    44  H    0.088709
    45  H   -0.054553
    46  H    0.019113
    47  H    0.135556
    48  H    0.142037
    49  H    0.011595
    50  H   -0.000531
    51  H    0.032572
    52  H   -0.029204
    53  H    0.010108
    54  H    0.075452
    55  H    0.038782
    56  H    0.019582
    57  H    0.054321
    58  H    0.021978
    59  H    0.054401
    60  H    0.168570
    61  H   -0.038363
    62  H    0.062504
    63  H   -0.003310
    64  H    0.091808
    65  H    0.065487
    66  H    0.072551
    67  H    0.069869
    68  H    0.064351
    69  H    0.008163
    70  H    0.040596
    71  H    0.021229
    72  H    0.085613
    73  H    0.015168
    74  H    0.054814
    75  H    0.051016
    76  H    0.036334
    77  H    0.170568
    78  H    0.019873
    79  H    0.045429
 Sum of Mulliken charges =  -0.00000

 Dipole moment (field-independent basis, Debye):
    X=              4.7255    Y=              3.2774    Z=             -0.9249  Tot=              5.8247
 Quadrupole moment (field-independent basis, Debye-Ang):
   XX=           -246.3348   YY=           -233.6464   ZZ=           -264.7723
   XY=              6.9797   XZ=            -23.9285   YZ=             -4.9819

 Normal termination of Gaussian 16 at Sun Jul 28 00:16:17 2019.
