 Gaussian 16, Revision A.03,
 Gaussian 16:  ES64L-G16RevA.03 25-Dec-2016

 --------------------------
 # td=(NStates=1) B3LYP/SVP
 --------------------------

 --
 TD
 --
 Symbolic Z-matrix:
 Charge =  0 Multiplicity = 1

                         Standard orientation:
 ---------------------------------------------------------------------
 Center     Atomic      Atomic             Coordinates (Angstroms)
 Number     Number       Type             X           Y           Z
 ---------------------------------------------------------------------
      1          8           0       -3.268195   -1.379208   -2.891413
      2          8           0        2.874202    3.139189    3.470857
      3          8           0        4.119702    1.184181    4.001069
      4          8           0        7.878112   -1.304473   -1.147991
      5          8           0        6.506673   -3.003217   -2.016778
      6          8           0       -2.763382    1.534556    1.456005
      7          7           0       -0.323345   -2.484505    0.893163
      8          7           0       -2.602835   -1.221524   -0.660970
      9          7           0        1.227121    0.117180   -0.709314
     10          7           0       -1.127298    1.429368   -0.208223
     11          6           0       -3.350966   -1.282496    0.624928
     12          6           0       -2.685292   -2.258739    1.676433
     13          6           0       -1.247028   -1.975046    1.761451
     14          6           0       -0.467475   -1.399927    2.834434
     15          6           0        0.826230   -1.243767    2.471713
     16          6           0        0.978899   -1.952432    1.251736
     17          6           0       -4.673830   -1.891223    0.196567
     18          6           0        2.011470   -0.507313    3.256584
     19          6           0       -4.779458   -2.022512   -1.186094
     20          6           0        2.061812   -1.952818    0.221303
     21          6           0        2.078655   -0.938190   -0.724693
     22          6           0       -3.486031   -1.490771   -1.704562
     23          6           0        2.965210   -0.659347   -1.753790
     24          6           0       -1.298205   -0.727681    4.021646
     25          6           0       -5.790335   -2.082484    1.200788
     26          6           0        2.546549    0.557375   -2.377489
     27          6           0        1.909089    0.962099    2.823193
     28          6           0        1.375970    1.022415   -1.695250
     29          6           0        4.266612   -1.448839   -1.993535
     30          6           0       -5.816540   -2.395416   -2.042267
     31          6           0        5.389222   -0.954917   -1.171922
     32          6           0        3.309000    1.236279   -3.478517
     33          6           0        0.452848    1.986629   -2.013714
     34          6           0        3.156644    1.740480    3.452892
     35          6           0       -0.754650    2.256454   -1.273675
     36          6           0       -7.047773   -3.057155   -1.860811
     37          6           0        6.576402   -1.934210   -1.430902
     38          6           0       -1.635926    3.431687   -1.309252
     39          6           0       -2.370645    3.442721   -0.148135
     40          6           0       -2.089183    2.053900    0.491063
     41          6           0       -1.406527    4.508050   -2.200508
     42          6           0       -3.252764    4.405641    0.601213
     43          6           0       -2.032175    5.774894   -2.256224
     44          1           0       -3.592629   -0.381654    1.165350
     45          1           0       -2.819030   -3.388061    1.564155
     46          1           0       -3.214828   -2.059477    2.485790
     47          1           0       -0.287437   -3.034443   -0.100085
     48          1           0       -1.985147   -0.388711   -0.840242
     49          1           0        1.893036   -0.498006    4.298958
     50          1           0        2.920375   -0.919653    2.955675
     51          1           0        2.829597   -2.737378    0.247284
     52          1           0       -1.715374   -1.505086    4.837463
     53          1           0       -0.284263   -0.217484    4.494150
     54          1           0       -2.028147   -0.006731    3.639698
     55          1           0       -5.842960   -1.626859    2.249235
     56          1           0       -5.910385   -3.291319    1.450409
     57          1           0       -6.830002   -1.803107    1.091807
     58          1           0        1.778842    1.097239    1.572679
     59          1           0        0.944408    1.658894    3.081587
     60          1           0        0.124618    0.302310   -0.330371
     61          1           0        4.569900   -1.415559   -3.115882
     62          1           0        3.954338   -2.357059   -1.725480
     63          1           0       -5.466712   -2.247080   -3.027173
     64          1           0        5.231314   -1.030125   -0.075124
     65          1           0        5.651719    0.056849   -1.534526
     66          1           0        3.909043    0.153621   -3.962621
     67          1           0        3.990055    2.051360   -3.162478
     68          1           0        2.636712    1.499110   -4.243165
     69          1           0        0.800210    2.725377   -2.779718
     70          1           0       -7.544375   -3.281257   -0.878240
     71          1           0       -7.895894   -3.187527   -2.668124
     72          1           0        4.017183    3.333153    3.687896
     73          1           0       -0.546497    4.460363   -2.803577
     74          1           0       -4.344862    4.522273    0.006953
     75          1           0       -3.615434    3.736287    1.497991
     76          1           0       -2.876164    5.414879    0.774944
     77          1           0        8.526316   -1.803493   -1.510106
     78          1           0       -1.548716    6.530779   -2.742337
     79          1           0       -2.740063    6.165673   -1.367011
 ---------------------------------------------------------------------

 SCF Done:  E(RB3LYP) =  -1947.74720552     A.U. after   23 cycles

 Excitation energies and oscillator strengths:

 Excited State   1:      Singlet-A      0.5475 eV 2264.61 nm  f=0.0000  <S**2>=0.000
     155 ->156         0.70286
 This state for optimization and/or second-order correction.
 Total Energy, E(TD-HF/TD-DFT) =  -1947.72708579
 Copying the excited state density for this state as the 1-particle RhoCI density.

 The electronic state is 1-A.
 Alpha  occ. eigenvalues --  -19.19331 -19.17456 -19.15932 -19.14525 -19.12395
 Alpha  occ. eigenvalues --  -19.08466 -14.37813 -14.37207 -14.33158 -14.32781
 Alpha  occ. eigenvalues --  -10.34670 -10.33022 -10.29159 -10.27425 -10.26597
 Alpha  occ. eigenvalues --  -10.26432 -10.25698 -10.24277 -10.23584 -10.23067
 Alpha  occ. eigenvalues --  -10.22961 -10.22850 -10.22807 -10.22638 -10.22612
 Alpha  occ. eigenvalues --  -10.22263 -10.22145 -10.22072 -10.21942 -10.21651
 Alpha  occ. eigenvalues --  -10.21356 -10.21239 -10.20969 -10.20798 -10.20706
 Alpha  occ. eigenvalues --  -10.19746 -10.19632 -10.19475 -10.18711 -10.18642
 Alpha  occ. eigenvalues --  -10.18286 -10.18164 -10.16867  -1.08607  -1.06377
 Alpha  occ. eigenvalues --   -1.01740  -1.01320  -1.01109  -1.00719  -0.98691
 Alpha  occ. eigenvalues --   -0.94888  -0.93959  -0.91199  -0.84969  -0.82983
 Alpha  occ. eigenvalues --   -0.82289  -0.80120  -0.79772  -0.79576  -0.78482
 Alpha  occ. eigenvalues --   -0.77164  -0.75626  -0.74778  -0.73866  -0.72836
 Alpha  occ. eigenvalues --   -0.71343  -0.69247  -0.69004  -0.68792  -0.67350
 Alpha  occ. eigenvalues --   -0.65534  -0.64342  -0.63774  -0.61919  -0.61091
 Alpha  occ. eigenvalues --   -0.60595  -0.59718  -0.57766  -0.56831  -0.56021
 Alpha  occ. eigenvalues --   -0.55597  -0.54648  -0.53653  -0.53638  -0.53053
 Alpha  occ. eigenvalues --   -0.52253  -0.51695  -0.51508  -0.50505  -0.49544
 Alpha  occ. eigenvalues --   -0.49482  -0.48853  -0.48795  -0.48093  -0.47520
 Alpha  occ. eigenvalues --   -0.47267  -0.46889  -0.46390  -0.46085  -0.45811
 Alpha  occ. eigenvalues --   -0.45390  -0.44890  -0.44703  -0.44505  -0.43962
 Alpha  occ. eigenvalues --   -0.43667  -0.43342  -0.42931  -0.42632  -0.42439
 Alpha  occ. eigenvalues --   -0.41930  -0.41553  -0.41418  -0.41203  -0.40612
 Alpha  occ. eigenvalues --   -0.40409  -0.40215  -0.40193  -0.40029  -0.39620
 Alpha  occ. eigenvalues --   -0.38944  -0.38730  -0.38579  -0.38214  -0.38025
 Alpha  occ. eigenvalues --   -0.37936  -0.37896  -0.36675  -0.36342  -0.36151
 Alpha  occ. eigenvalues --   -0.35931  -0.35815  -0.35547  -0.35216  -0.34376
 Alpha  occ. eigenvalues --   -0.33483  -0.33117  -0.32647  -0.32252  -0.31941
 Alpha  occ. eigenvalues --   -0.30872  -0.30429  -0.30119  -0.29987  -0.29470
 Alpha  occ. eigenvalues --   -0.28948  -0.27053  -0.26503  -0.25618  -0.24255
 Alpha  occ. eigenvalues --   -0.23879  -0.23665  -0.23277  -0.21493  -0.18778
 Alpha virt. eigenvalues --   -0.14071  -0.09037  -0.05326  -0.03923  -0.03367
 Alpha virt. eigenvalues --   -0.02038  -0.00102   0.00965   0.01307   0.02117
 Alpha virt. eigenvalues --    0.03093   0.03188   0.03776   0.04769   0.05049

 Mulliken charges:
               1
     1  O   -0.231750
     2  O   -0.298577
     3  O   -0.249323
     4  O   -0.228211
     5  O   -0.205758
     6  O   -0.280205
     7  N   -0.147774
     8  N   -0.229014
     9  N   -0.143136
    10  N   -0.323562
    11  C    0.104552
    12  C    0.253855
    13  C   -0.058633
    14  C   -0.128160
    15  C   -0.096208
    16  C   -0.036126
    17  C   -0.125077
    18  C    0.258710
    19  C   -0.004362
    20  C   -0.123611
    21  C    0.129007
    22  C    0.119781
    23  C   -0.092323
    24  C   -0.013870
    25  C   -0.021817
    26  C   -0.139416
    27  C   -0.185944
    28  C    0.085976
    29  C    0.148393
    30  C    0.009933
    31  C    0.028554
    32  C    0.044694
    33  C   -0.066285
    34  C    0.220796
    35  C    0.100401
    36  C   -0.093607
    37  C    0.172255
    38  C    0.117250
    39  C   -0.173178
    40  C    0.194942
    41  C   -0.073476
    42  C    0.004831
    43  C   -0.020114
    44  H    0.048532
    45  H    0.007925
    46  H   -0.070421
    47  H    0.171054
    48  H    0.158359
    49  H    0.001100
    50  H   -0.011007
    51  H    0.024246
    52  H    0.035557
    53  H    0.013991
    54  H    0.058313
    55  H    0.019658
    56  H    0.041804
    57  H    0.023845
    58  H    0.074231
    59  H    0.076553
    60  H    0.252522
    61  H    0.037370
    62  H   -0.024139
    63  H   -0.009531
    64  H    0.056589
    65  H    0.046818
    66  H    0.038983
    67  H    0.061681
    68  H    0.024756
    69  H    0.000310
    70  H    0.017627
    71  H    0.041211
    72  H    0.233420
    73  H   -0.021646
    74  H    0.055806
    75  H    0.062336
    76  H    0.056995
    77  H    0.143141
    78  H    0.007018
    79  H    0.040582
 Sum of Mulliken charges =  -0.00000

 Dipole moment (field-independent basis, Debye):
    X=              3.6808    Y=              3.4270    Z=             -1.0220  Tot=              5.1320
 Quadrupole moment (field-independent basis, Debye-Ang):
   XX=           -241.0880   YY=           -240.5021   ZZ=           -271.3918
   XY=              4.0337   XZ=            -28.6860   YZ=            -13.6956

 Normal termination of Gaussian 16 at Fri Jul 26 14:14:27 2019.
