 Gaussian 16, Revision A.03,
 Gaussian 16:  ES64L-G16RevA.03 25-Dec-2016

 --------------------------
 # td=(NStates=1) B3LYP/SVP
 --------------------------

 --
 TD
 --
 Symbolic Z-matrix:
 Charge =  0 Multiplicity = 1

                         Standard orientation:
 ---------------------------------------------------------------------
 Center     Atomic      Atomic             Coordinates (Angstroms)
 Number     Number       Type             X           Y           Z
 ---------------------------------------------------------------------
      1          8           0        5.176742   -0.075165   -3.263745
      2          8           0       -3.044105   -2.976123    3.074679
      3          8           0       -3.272949   -0.749603    3.346344
      4          8           0       -1.616329    7.245077    1.533284
      5          8           0       -0.684211    7.072590   -0.539815
      6          8           0       -1.691449   -4.014300    0.040370
      7          7           0        2.305676    0.863886    0.585518
      8          7           0        4.333992   -0.601284   -1.173342
      9          7           0       -1.875269    0.655685   -0.327920
     10          7           0       -2.546090   -1.905220   -0.535452
     11          6           0        4.809054   -1.251239   -0.000695
     12          6           0        4.367104   -0.317072    1.192622
     13          6           0        2.897780   -0.185574    1.424279
     14          6           0        1.885363   -0.602392    2.226553
     15          6           0        0.701167    0.033245    1.842948
     16          6           0        0.935687    0.967463    0.854511
     17          6           0        6.315150   -1.254302   -0.210689
     18          6           0       -0.606618   -0.147045    2.572751
     19          6           0        6.659679   -0.799481   -1.410544
     20          6           0        0.213084    1.999111    0.117168
     21          6           0       -1.160572    1.833194   -0.259813
     22          6           0        5.409669   -0.412458   -2.194627
     23          6           0       -1.939062    2.942562   -0.869657
     24          6           0        2.150572   -1.768989    3.213068
     25          6           0        7.061213   -1.942385    0.943292
     26          6           0       -3.129566    2.269547   -1.338757
     27          6           0       -1.166086   -1.584250    2.522977
     28          6           0       -3.109939    0.898594   -0.980983
     29          6           0       -1.580860    4.409386   -1.026327
     30          6           0        7.886211   -0.677990   -2.090690
     31          6           0       -1.709079    5.125675    0.367584
     32          6           0       -4.234247    2.964795   -2.027030
     33          6           0       -4.007330   -0.160456   -1.347932
     34          6           0       -2.608349   -1.681095    3.063427
     35          6           0       -3.654638   -1.501336   -1.080148
     36          6           0        9.124693   -0.740261   -1.475123
     37          6           0       -1.317813    6.598562    0.335463
     38          6           0       -4.482176   -2.643288   -1.461163
     39          6           0       -3.856333   -3.785687   -1.137267
     40          6           0       -2.560928   -3.319677   -0.406875
     41          6           0       -5.734445   -2.466895   -2.159427
     42          6           0       -4.066352   -5.295154   -1.273516
     43          6           0       -6.641626   -3.445564   -2.501002
     44          1           0        4.324642   -2.207558   -0.059655
     45          1           0        4.710515    0.705216    1.227182
     46          1           0        4.723262   -0.693605    2.136030
     47          1           0        2.711093    1.230026   -0.303108
     48          1           0        3.470537   -0.956373   -1.573334
     49          1           0       -0.552982    0.067199    3.836379
     50          1           0       -1.330094    0.582087    2.227920
     51          1           0        0.749890    2.935007   -0.037161
     52          1           0        3.269017   -1.824378    3.376197
     53          1           0        1.838108   -1.564987    4.244679
     54          1           0        1.950771   -2.712830    2.891659
     55          1           0        6.294753   -2.811678    1.244347
     56          1           0        7.049588   -1.163780    1.983654
     57          1           0        8.012283   -2.207073    0.675124
     58          1           0       -1.124123   -2.149461    1.468591
     59          1           0       -0.639697   -2.331544    3.331997
     60          1           0       -1.628734   -0.430680   -0.242745
     61          1           0       -2.150102    4.704744   -1.915938
     62          1           0       -0.570744    4.528487   -1.363936
     63          1           0        7.602946   -0.385369   -3.181603
     64          1           0       -1.159325    4.481193    1.024901
     65          1           0       -2.805879    5.274803    0.744826
     66          1           0       -3.729412    4.078601   -2.250709
     67          1           0       -5.334312    2.928465   -1.541649
     68          1           0       -4.454831    2.464380   -3.082938
     69          1           0       -4.630394    0.223528   -1.902054
     70          1           0        9.469284   -0.999214   -0.401056
     71          1           0       10.042968   -0.684668   -1.933846
     72          1           0       -3.958647   -2.765042    3.279382
     73          1           0       -6.190332   -1.359253   -2.350466
     74          1           0       -4.968523   -5.570179   -0.725398
     75          1           0       -4.430245   -5.408214   -2.388005
     76          1           0       -3.233600   -5.896590   -0.721081
     77          1           0       -1.050517    8.064961    1.676732
     78          1           0       -7.506835   -3.067572   -2.754797
     79          1           0       -6.342536   -4.547194   -2.556965
 ---------------------------------------------------------------------

 SCF Done:  E(RB3LYP) =  -1947.82804042     A.U. after   16 cycles

 Excitation energies and oscillator strengths:

 Excited State   1:      Singlet-A      2.0471 eV  605.66 nm  f=0.4337  <S**2>=0.000
     155 ->156         0.69690
     155 <-156        -0.11905
 This state for optimization and/or second-order correction.
 Total Energy, E(TD-HF/TD-DFT) =  -1947.75281156
 Copying the excited state density for this state as the 1-particle RhoCI density.

 The electronic state is 1-A.
 Alpha  occ. eigenvalues --  -19.18253 -19.16540 -19.13927 -19.13175 -19.11677
 Alpha  occ. eigenvalues --  -19.11434 -14.36105 -14.35906 -14.33335 -14.29252
 Alpha  occ. eigenvalues --  -10.32836 -10.30060 -10.29575 -10.27072 -10.24888
 Alpha  occ. eigenvalues --  -10.24255 -10.24237 -10.23273 -10.23146 -10.22599
 Alpha  occ. eigenvalues --  -10.22503 -10.22474 -10.22350 -10.22334 -10.22289
 Alpha  occ. eigenvalues --  -10.22041 -10.21855 -10.21620 -10.20932 -10.20921
 Alpha  occ. eigenvalues --  -10.20843 -10.20813 -10.20562 -10.20428 -10.19751
 Alpha  occ. eigenvalues --  -10.19671 -10.19663 -10.19251 -10.18902 -10.18787
 Alpha  occ. eigenvalues --  -10.18731 -10.18577 -10.17835  -1.09479  -1.09216
 Alpha  occ. eigenvalues --   -1.08072  -1.02937  -1.01458  -1.00515  -0.96386
 Alpha  occ. eigenvalues --   -0.95571  -0.93825  -0.93066  -0.82773  -0.82000
 Alpha  occ. eigenvalues --   -0.80847  -0.80070  -0.80062  -0.79073  -0.77146
 Alpha  occ. eigenvalues --   -0.76823  -0.75099  -0.74665  -0.74008  -0.71889
 Alpha  occ. eigenvalues --   -0.71125  -0.70648  -0.69663  -0.68093  -0.67586
 Alpha  occ. eigenvalues --   -0.65885  -0.65495  -0.63515  -0.62681  -0.60659
 Alpha  occ. eigenvalues --   -0.60094  -0.58770  -0.57868  -0.56629  -0.55967
 Alpha  occ. eigenvalues --   -0.55399  -0.54785  -0.53399  -0.53366  -0.52598
 Alpha  occ. eigenvalues --   -0.51704  -0.51386  -0.51018  -0.49935  -0.49172
 Alpha  occ. eigenvalues --   -0.48689  -0.48505  -0.48271  -0.47869  -0.47584
 Alpha  occ. eigenvalues --   -0.47517  -0.46713  -0.46448  -0.45952  -0.45340
 Alpha  occ. eigenvalues --   -0.45195  -0.44831  -0.44169  -0.43794  -0.43610
 Alpha  occ. eigenvalues --   -0.43499  -0.43216  -0.43055  -0.42560  -0.42320
 Alpha  occ. eigenvalues --   -0.42014  -0.41950  -0.41514  -0.41376  -0.40966
 Alpha  occ. eigenvalues --   -0.40745  -0.40464  -0.40322  -0.40037  -0.39893
 Alpha  occ. eigenvalues --   -0.39483  -0.39266  -0.38808  -0.38210  -0.38018
 Alpha  occ. eigenvalues --   -0.37841  -0.37344  -0.37107  -0.36928  -0.36487
 Alpha  occ. eigenvalues --   -0.36026  -0.35638  -0.35492  -0.35207  -0.35116
 Alpha  occ. eigenvalues --   -0.34863  -0.34147  -0.33472  -0.33403  -0.31758
 Alpha  occ. eigenvalues --   -0.31221  -0.30432  -0.28962  -0.28432  -0.28130
 Alpha  occ. eigenvalues --   -0.27959  -0.26847  -0.26062  -0.24993  -0.24563
 Alpha  occ. eigenvalues --   -0.24439  -0.24194  -0.23426  -0.22096  -0.19031
 Alpha virt. eigenvalues --   -0.11072  -0.07050  -0.06482  -0.00874  -0.00511
 Alpha virt. eigenvalues --    0.00203   0.01105   0.02452   0.02708   0.03283
 Alpha virt. eigenvalues --    0.03689   0.04158   0.05012   0.05224   0.05649

 Mulliken charges:
               1
     1  O   -0.112608
     2  O   -0.179042
     3  O   -0.200923
     4  O   -0.251866
     5  O   -0.179800
     6  O   -0.181049
     7  N   -0.190813
     8  N   -0.284530
     9  N   -0.163035
    10  N   -0.295480
    11  C    0.109888
    12  C    0.230140
    13  C   -0.071072
    14  C   -0.114061
    15  C   -0.088655
    16  C    0.095991
    17  C   -0.157172
    18  C    0.061768
    19  C   -0.072534
    20  C   -0.080516
    21  C    0.097906
    22  C    0.148149
    23  C   -0.120636
    24  C    0.135513
    25  C    0.049340
    26  C   -0.102596
    27  C   -0.120187
    28  C    0.061173
    29  C    0.141892
    30  C    0.012495
    31  C   -0.018028
    32  C   -0.037489
    33  C    0.044750
    34  C    0.123362
    35  C    0.164834
    36  C   -0.049149
    37  C    0.156082
    38  C    0.069692
    39  C   -0.223635
    40  C    0.156416
    41  C   -0.119153
    42  C    0.066725
    43  C    0.029985
    44  H    0.015747
    45  H    0.004191
    46  H   -0.031559
    47  H    0.128237
    48  H    0.120865
    49  H    0.020743
    50  H    0.012830
    51  H    0.010118
    52  H   -0.024240
    53  H    0.013012
    54  H    0.018579
    55  H    0.052857
    56  H    0.065153
    57  H    0.009996
    58  H    0.107071
    59  H    0.045287
    60  H    0.203085
    61  H    0.007815
    62  H    0.008422
    63  H    0.039302
    64  H    0.048708
    65  H    0.057297
    66  H    0.040539
    67  H    0.060700
    68  H    0.041457
    69  H   -0.179827
    70  H    0.036821
    71  H    0.003795
    72  H    0.152346
    73  H    0.028449
    74  H    0.020769
    75  H    0.050915
    76  H    0.061524
    77  H    0.204710
    78  H   -0.023586
    79  H    0.025801
 Sum of Mulliken charges =  -0.00000

 Dipole moment (field-independent basis, Debye):
    X=              2.5719    Y=              1.4161    Z=              1.5027  Tot=              3.2982
 Quadrupole moment (field-independent basis, Debye-Ang):
   XX=           -216.2403   YY=           -245.4415   ZZ=           -263.1756
   XY=             -8.7348   XZ=             26.9242   YZ=              6.1597

 Normal termination of Gaussian 16 at Tue Sep 17 18:06:42 2019.
