 Gaussian 16, Revision A.03,
 Gaussian 16:  ES64L-G16RevA.03 25-Dec-2016

 --------------------------
 # td=(NStates=1) B3LYP/SVP
 --------------------------

 --
 TD
 --
 Symbolic Z-matrix:
 Charge =  0 Multiplicity = 1

                         Standard orientation:
 ---------------------------------------------------------------------
 Center     Atomic      Atomic             Coordinates (Angstroms)
 Number     Number       Type             X           Y           Z
 ---------------------------------------------------------------------
      1          8           0        5.316475   -0.148921   -3.368674
      2          8           0       -3.163518   -2.992421    3.135342
      3          8           0       -3.395645   -0.718846    2.853095
      4          8           0       -2.075935    7.413975    1.205052
      5          8           0       -0.331729    6.853336   -0.436626
      6          8           0       -1.482763   -3.996394   -0.028667
      7          7           0        2.319631    0.937320    0.712396
      8          7           0        4.355561   -0.416873   -1.223707
      9          7           0       -1.859198    0.724196   -0.338853
     10          7           0       -2.549322   -1.861902   -0.446897
     11          6           0        4.749333   -1.072385   -0.026255
     12          6           0        4.413810   -0.346705    1.331655
     13          6           0        2.978758    0.081411    1.514691
     14          6           0        1.923426   -0.577132    2.263871
     15          6           0        0.660736    0.043472    1.956508
     16          6           0        0.891182    0.965621    0.890720
     17          6           0        6.253613   -1.196636   -0.081953
     18          6           0       -0.503820   -0.163205    2.725189
     19          6           0        6.571382   -0.748126   -1.337256
     20          6           0        0.128297    2.035821    0.288388
     21          6           0       -1.184214    1.880224   -0.265953
     22          6           0        5.428757   -0.312370   -2.147301
     23          6           0       -2.040782    2.958794   -0.915515
     24          6           0        2.182747   -1.704068    3.296564
     25          6           0        7.095260   -1.905619    0.858696
     26          6           0       -3.127490    2.295053   -1.423176
     27          6           0       -1.240541   -1.679719    2.342672
     28          6           0       -3.076050    0.877699   -0.999066
     29          6           0       -1.511807    4.321160   -0.923630
     30          6           0        7.925426   -0.731489   -1.984799
     31          6           0       -1.808610    5.098776    0.369262
     32          6           0       -4.334883    3.001045   -1.973782
     33          6           0       -3.909247   -0.107420   -1.339734
     34          6           0       -2.692070   -1.678801    2.730901
     35          6           0       -3.687730   -1.506986   -1.005106
     36          6           0        9.149310   -0.866383   -1.430135
     37          6           0       -1.346795    6.560316    0.311119
     38          6           0       -4.492960   -2.791012   -1.377694
     39          6           0       -3.647187   -3.894171   -1.071481
     40          6           0       -2.496126   -3.359072   -0.452333
     41          6           0       -5.706350   -2.684963   -2.026471
     42          6           0       -3.986416   -5.346689   -1.272344
     43          6           0       -6.650663   -3.527495   -2.351441
     44          1           0        4.175295   -1.993741    0.099594
     45          1           0        5.005712    0.547944    1.231918
     46          1           0        4.680723   -0.995146    2.156952
     47          1           0        2.826683    1.320676   -0.277383
     48          1           0        3.378682   -0.543765   -1.786662
     49          1           0       -0.422109   -0.241058    3.931746
     50          1           0       -1.206443    0.495710    2.079164
     51          1           0        0.559801    2.920691    0.364499
     52          1           0        3.310709   -2.034613    3.303987
     53          1           0        1.772106   -1.233960    4.113290
     54          1           0        1.495183   -2.560743    2.886947
     55          1           0        6.654011   -2.790923    1.481348
     56          1           0        7.618250   -1.152737    1.591010
     57          1           0        7.930029   -2.396685    0.598791
     58          1           0       -1.282913   -1.742014    1.172744
     59          1           0       -0.747047   -2.741505    2.761523
     60          1           0       -1.427328   -0.296872   -0.269869
     61          1           0       -1.934772    4.740437   -1.863751
     62          1           0       -0.604284    4.354778   -1.163397
     63          1           0        7.760736   -0.864416   -3.199155
     64          1           0       -1.352983    4.497154    1.140319
     65          1           0       -2.793693    5.151252    0.494166
     66          1           0       -4.063063    4.022284   -1.937423
     67          1           0       -5.160585    2.860505   -1.394024
     68          1           0       -4.363639    2.669808   -3.177491
     69          1           0       -4.832119    0.073621   -1.704769
     70          1           0        9.282701   -1.026895   -0.314384
     71          1           0       10.087293   -0.495755   -1.983153
     72          1           0       -4.135363   -2.875275    3.368309
     73          1           0       -5.935658   -1.572791   -2.310854
     74          1           0       -5.008702   -5.446875   -0.868031
     75          1           0       -4.120762   -5.559119   -2.385250
     76          1           0       -3.198252   -6.027408   -0.910280
     77          1           0       -1.738901    8.333125    1.113075
     78          1           0       -7.763275   -3.291032   -2.801002
     79          1           0       -6.697569   -4.583337   -2.188113
 ---------------------------------------------------------------------

 SCF Done:  E(RB3LYP) =  -1947.76929223     A.U. after   16 cycles

 Excitation energies and oscillator strengths:

 Excited State   1:      Singlet-A      1.6419 eV  755.13 nm  f=0.2846  <S**2>=0.000
     155 ->156         0.70555
     155 <-156        -0.10761
 This state for optimization and/or second-order correction.
 Total Energy, E(TD-HF/TD-DFT) =  -1947.70895415
 Copying the excited state density for this state as the 1-particle RhoCI density.

 The electronic state is 1-A.
 Alpha  occ. eigenvalues --  -19.20249 -19.14742 -19.14490 -19.11534 -19.11454
 Alpha  occ. eigenvalues --  -19.11293 -14.38043 -14.36776 -14.36675 -14.30380
 Alpha  occ. eigenvalues --  -10.34593 -10.29904 -10.29457 -10.27579 -10.25164
 Alpha  occ. eigenvalues --  -10.24515 -10.24266 -10.24216 -10.23066 -10.22413
 Alpha  occ. eigenvalues --  -10.22158 -10.21899 -10.21752 -10.21429 -10.21264
 Alpha  occ. eigenvalues --  -10.21230 -10.21205 -10.21154 -10.21124 -10.21113
 Alpha  occ. eigenvalues --  -10.21008 -10.20897 -10.20667 -10.20560 -10.20515
 Alpha  occ. eigenvalues --  -10.20431 -10.20161 -10.19831 -10.19586 -10.19378
 Alpha  occ. eigenvalues --  -10.18846 -10.18406 -10.18142  -1.06787  -1.05244
 Alpha  occ. eigenvalues --   -1.02431  -0.99629  -0.99062  -0.97977  -0.96877
 Alpha  occ. eigenvalues --   -0.95966  -0.94548  -0.91602  -0.83589  -0.82477
 Alpha  occ. eigenvalues --   -0.82013  -0.81361  -0.79955  -0.79200  -0.78422
 Alpha  occ. eigenvalues --   -0.77172  -0.76170  -0.74833  -0.73446  -0.72465
 Alpha  occ. eigenvalues --   -0.72276  -0.70340  -0.69981  -0.68971  -0.68077
 Alpha  occ. eigenvalues --   -0.66926  -0.65177  -0.64731  -0.61706  -0.60874
 Alpha  occ. eigenvalues --   -0.60271  -0.58671  -0.58246  -0.56961  -0.56078
 Alpha  occ. eigenvalues --   -0.55230  -0.54853  -0.53997  -0.53297  -0.52720
 Alpha  occ. eigenvalues --   -0.52270  -0.51029  -0.50824  -0.50286  -0.49388
 Alpha  occ. eigenvalues --   -0.49190  -0.48436  -0.48041  -0.47748  -0.47007
 Alpha  occ. eigenvalues --   -0.46494  -0.46219  -0.45998  -0.45538  -0.45335
 Alpha  occ. eigenvalues --   -0.44802  -0.44559  -0.44367  -0.44015  -0.43759
 Alpha  occ. eigenvalues --   -0.43436  -0.43263  -0.43020  -0.42890  -0.42804
 Alpha  occ. eigenvalues --   -0.42480  -0.41949  -0.41580  -0.41139  -0.40925
 Alpha  occ. eigenvalues --   -0.40538  -0.40237  -0.40167  -0.40005  -0.39749
 Alpha  occ. eigenvalues --   -0.39612  -0.39254  -0.38909  -0.38746  -0.38405
 Alpha  occ. eigenvalues --   -0.38087  -0.37981  -0.37527  -0.37206  -0.37035
 Alpha  occ. eigenvalues --   -0.35431  -0.35158  -0.34863  -0.34395  -0.34086
 Alpha  occ. eigenvalues --   -0.33776  -0.33087  -0.32840  -0.32327  -0.31226
 Alpha  occ. eigenvalues --   -0.30326  -0.29774  -0.28819  -0.28593  -0.27910
 Alpha  occ. eigenvalues --   -0.27398  -0.26396  -0.26304  -0.26078  -0.24581
 Alpha  occ. eigenvalues --   -0.24474  -0.23905  -0.23053  -0.21938  -0.18384
 Alpha virt. eigenvalues --   -0.11711  -0.07252  -0.06877  -0.03786  -0.00869
 Alpha virt. eigenvalues --   -0.00562   0.00606   0.01631   0.02130   0.02855
 Alpha virt. eigenvalues --    0.03399   0.04071   0.04094   0.04517   0.04716

 Mulliken charges:
               1
     1  O   -0.231476
     2  O   -0.283347
     3  O   -0.209778
     4  O   -0.234958
     5  O   -0.283545
     6  O   -0.238710
     7  N   -0.171248
     8  N   -0.264365
     9  N   -0.108622
    10  N   -0.345888
    11  C    0.079365
    12  C    0.208746
    13  C   -0.072106
    14  C   -0.205409
    15  C   -0.048021
    16  C    0.059560
    17  C   -0.084563
    18  C    0.046124
    19  C   -0.089233
    20  C   -0.059987
    21  C    0.048257
    22  C    0.180928
    23  C   -0.098840
    24  C    0.097344
    25  C    0.067987
    26  C   -0.177586
    27  C   -0.134539
    28  C    0.172359
    29  C    0.200752
    30  C   -0.027360
    31  C    0.119759
    32  C    0.124814
    33  C   -0.050403
    34  C    0.168872
    35  C    0.071462
    36  C   -0.079423
    37  C    0.208301
    38  C    0.073281
    39  C   -0.142604
    40  C    0.181952
    41  C   -0.027351
    42  C    0.095164
    43  C   -0.105592
    44  H    0.017901
    45  H   -0.021434
    46  H   -0.000953
    47  H    0.170466
    48  H    0.179501
    49  H    0.055560
    50  H    0.031069
    51  H   -0.050235
    52  H    0.024028
    53  H    0.011464
    54  H    0.053161
    55  H    0.037352
    56  H    0.043868
    57  H   -0.008064
    58  H    0.106954
    59  H    0.067323
    60  H    0.202480
    61  H   -0.003078
    62  H   -0.064190
    63  H    0.061988
    64  H    0.045841
    65  H   -0.019155
    66  H   -0.008062
    67  H    0.020547
    68  H    0.048816
    69  H   -0.076117
    70  H    0.019929
    71  H    0.052829
    72  H    0.183059
    73  H    0.020843
    74  H    0.036551
    75  H    0.030399
    76  H    0.041003
    77  H    0.199900
    78  H    0.049939
    79  H    0.008449
 Sum of Mulliken charges =  -0.00000

 Dipole moment (field-independent basis, Debye):
    X=             -1.2062    Y=              1.4724    Z=              1.2447  Tot=              2.2742
 Quadrupole moment (field-independent basis, Debye-Ang):
   XX=           -212.9609   YY=           -238.0274   ZZ=           -266.8695
   XY=            -11.1811   XZ=             35.9993   YZ=              6.4977

 Normal termination of Gaussian 16 at Thu Sep 12 17:07:21 2019.
