 Gaussian 16, Revision A.03,
 Gaussian 16:  ES64L-G16RevA.03 25-Dec-2016

 --------------------------
 # td=(NStates=1) B3LYP/SVP
 --------------------------

 --
 TD
 --
 Symbolic Z-matrix:
 Charge =  0 Multiplicity = 1

                         Standard orientation:
 ---------------------------------------------------------------------
 Center     Atomic      Atomic             Coordinates (Angstroms)
 Number     Number       Type             X           Y           Z
 ---------------------------------------------------------------------
      1          8           0        5.142607   -0.208927   -3.359114
      2          8           0       -3.111046   -2.667214    3.190279
      3          8           0       -3.215057   -0.346386    3.156191
      4          8           0       -1.857411    7.188884    1.288003
      5          8           0       -0.828401    7.014404   -0.716793
      6          8           0       -1.736311   -4.086711    0.336456
      7          7           0        2.392893    1.099784    0.650779
      8          7           0        4.185129   -0.628671   -1.218636
      9          7           0       -1.818544    0.624420   -0.434025
     10          7           0       -2.459014   -2.015811   -0.381832
     11          6           0        4.759160   -1.107055    0.114088
     12          6           0        4.482965   -0.125436    1.329721
     13          6           0        2.980651    0.190583    1.426125
     14          6           0        2.021060   -0.428869    2.283740
     15          6           0        0.801495    0.153553    1.944258
     16          6           0        1.038693    1.136122    0.947122
     17          6           0        6.222211   -1.278747   -0.221239
     18          6           0       -0.532797   -0.105089    2.527069
     19          6           0        6.468771   -0.828945   -1.440958
     20          6           0        0.204361    2.070762    0.189480
     21          6           0       -1.073904    1.780785   -0.374015
     22          6           0        5.305316   -0.512123   -2.156697
     23          6           0       -1.983197    2.823498   -0.936689
     24          6           0        2.189723   -1.468583    3.269908
     25          6           0        7.134552   -1.709450    0.933978
     26          6           0       -3.122243    2.137759   -1.411316
     27          6           0       -1.149607   -1.496900    2.584244
     28          6           0       -2.989069    0.716551   -1.054092
     29          6           0       -1.640771    4.346044   -0.998523
     30          6           0        7.727003   -0.872510   -2.148077
     31          6           0       -2.144137    5.153438    0.154853
     32          6           0       -4.258796    2.809011   -2.225595
     33          6           0       -3.796579   -0.269447   -1.515954
     34          6           0       -2.577993   -1.473333    2.966207
     35          6           0       -3.458949   -1.646455   -1.094925
     36          6           0        8.981573   -0.923911   -1.501808
     37          6           0       -1.544571    6.545914    0.225651
     38          6           0       -4.380237   -2.864565   -1.423436
     39          6           0       -3.744463   -3.920104   -0.841300
     40          6           0       -2.515049   -3.404678   -0.247168
     41          6           0       -5.542475   -2.837760   -2.214991
     42          6           0       -4.051122   -5.296040   -0.878546
     43          6           0       -6.393959   -3.918552   -2.499751
     44          1           0        4.312486   -2.146391    0.241462
     45          1           0        5.056459    0.902572    1.272866
     46          1           0        4.960126   -0.746329    2.151703
     47          1           0        3.070670    1.679386    0.084859
     48          1           0        3.184451   -0.623456   -1.471360
     49          1           0       -0.277598    0.418179    3.540888
     50          1           0       -1.365732    0.640215    2.198297
     51          1           0        0.671185    2.995702   -0.174623
     52          1           0        3.170894   -1.431986    3.717300
     53          1           0        1.621419   -1.492077    4.221217
     54          1           0        2.057846   -2.433546    2.670497
     55          1           0        6.683836   -2.245326    1.848902
     56          1           0        7.619593   -0.903804    1.348561
     57          1           0        7.806760   -2.410824    0.427996
     58          1           0       -1.086925   -1.935976    1.580724
     59          1           0       -0.749161   -2.003970    3.381272
     60          1           0       -1.445034   -0.283435   -0.121974
     61          1           0       -2.247723    4.620963   -2.055758
     62          1           0       -0.510170    4.276636   -1.060934
     63          1           0        7.837959   -0.617189   -3.297366
     64          1           0       -1.839144    4.724748    1.134060
     65          1           0       -3.406049    5.510982    0.160012
     66          1           0       -4.085965    3.779821   -2.294642
     67          1           0       -5.266878    2.640044   -1.727522
     68          1           0       -4.316423    2.500563   -3.304764
     69          1           0       -4.632680   -0.089581   -1.949821
     70          1           0        8.778753   -0.794698   -0.503102
     71          1           0        9.866865   -1.092880   -2.063044
     72          1           0       -4.235451   -2.515166    3.508578
     73          1           0       -5.868925   -1.895442   -2.533681
     74          1           0       -4.921041   -5.786964   -0.272796
     75          1           0       -4.070577   -5.596654   -2.005981
     76          1           0       -3.304791   -5.818309   -0.420367
     77          1           0       -1.294686    8.091641    1.394509
     78          1           0       -7.459358   -3.955957   -3.070019
     79          1           0       -6.078984   -4.924738   -2.298299
 ---------------------------------------------------------------------

 SCF Done:  E(RB3LYP) =  -1947.82490487     A.U. after   17 cycles

 Excitation energies and oscillator strengths:

 Excited State   1:      Singlet-A      2.0695 eV  599.09 nm  f=0.4471  <S**2>=0.000
     155 ->156         0.70028
 This state for optimization and/or second-order correction.
 Total Energy, E(TD-HF/TD-DFT) =  -1947.74885087
 Copying the excited state density for this state as the 1-particle RhoCI density.

 The electronic state is 1-A.
 Alpha  occ. eigenvalues --  -19.20658 -19.19521 -19.11303 -19.10673 -19.10336
 Alpha  occ. eigenvalues --  -19.09867 -14.38904 -14.36463 -14.34528 -14.29264
 Alpha  occ. eigenvalues --  -10.32129 -10.31028 -10.28454 -10.26112 -10.25618
 Alpha  occ. eigenvalues --  -10.24221 -10.23844 -10.23840 -10.23775 -10.23082
 Alpha  occ. eigenvalues --  -10.23031 -10.22742 -10.22608 -10.22539 -10.22040
 Alpha  occ. eigenvalues --  -10.21622 -10.21084 -10.20876 -10.20802 -10.20332
 Alpha  occ. eigenvalues --  -10.20303 -10.20231 -10.19486 -10.19475 -10.19398
 Alpha  occ. eigenvalues --  -10.19359 -10.19102 -10.18852 -10.18449 -10.18432
 Alpha  occ. eigenvalues --  -10.18257 -10.18176 -10.17657  -1.11088  -1.06582
 Alpha  occ. eigenvalues --   -1.03576  -1.00198  -0.99294  -0.98615  -0.97567
 Alpha  occ. eigenvalues --   -0.94680  -0.93387  -0.91706  -0.82665  -0.81955
 Alpha  occ. eigenvalues --   -0.81618  -0.81062  -0.80419  -0.79002  -0.77334
 Alpha  occ. eigenvalues --   -0.77175  -0.76669  -0.75618  -0.74288  -0.73031
 Alpha  occ. eigenvalues --   -0.72223  -0.70928  -0.69102  -0.68704  -0.68032
 Alpha  occ. eigenvalues --   -0.67294  -0.65920  -0.63729  -0.61159  -0.60715
 Alpha  occ. eigenvalues --   -0.60274  -0.59211  -0.58834  -0.58383  -0.56487
 Alpha  occ. eigenvalues --   -0.56075  -0.55054  -0.54363  -0.53547  -0.52852
 Alpha  occ. eigenvalues --   -0.52295  -0.51301  -0.49897  -0.49592  -0.49014
 Alpha  occ. eigenvalues --   -0.48817  -0.48633  -0.48477  -0.48034  -0.47859
 Alpha  occ. eigenvalues --   -0.47333  -0.46793  -0.46424  -0.46138  -0.46027
 Alpha  occ. eigenvalues --   -0.45614  -0.44920  -0.44817  -0.44543  -0.44102
 Alpha  occ. eigenvalues --   -0.43597  -0.43550  -0.43063  -0.42587  -0.42198
 Alpha  occ. eigenvalues --   -0.41821  -0.41701  -0.41391  -0.41243  -0.41157
 Alpha  occ. eigenvalues --   -0.40933  -0.40661  -0.40393  -0.40092  -0.39844
 Alpha  occ. eigenvalues --   -0.39698  -0.39167  -0.38924  -0.38634  -0.38184
 Alpha  occ. eigenvalues --   -0.38059  -0.37837  -0.37226  -0.36798  -0.36445
 Alpha  occ. eigenvalues --   -0.35795  -0.34957  -0.34660  -0.34326  -0.34148
 Alpha  occ. eigenvalues --   -0.33880  -0.33714  -0.31808  -0.31502  -0.31181
 Alpha  occ. eigenvalues --   -0.30886  -0.29270  -0.28695  -0.27732  -0.26757
 Alpha  occ. eigenvalues --   -0.25455  -0.25408  -0.25268  -0.24931  -0.24493
 Alpha  occ. eigenvalues --   -0.24207  -0.24024  -0.23430  -0.21995  -0.18320
 Alpha virt. eigenvalues --   -0.10157  -0.06717  -0.06302  -0.00891  -0.00697
 Alpha virt. eigenvalues --   -0.00556  -0.00453   0.00677   0.00878   0.01465
 Alpha virt. eigenvalues --    0.03048   0.03364   0.03925   0.04740   0.05419

 Mulliken charges:
               1
     1  O   -0.244107
     2  O   -0.244240
     3  O   -0.332813
     4  O   -0.168848
     5  O   -0.298826
     6  O   -0.165936
     7  N   -0.039299
     8  N   -0.309315
     9  N   -0.039991
    10  N   -0.239439
    11  C    0.096198
    12  C    0.131780
    13  C   -0.120791
    14  C   -0.117371
    15  C   -0.051482
    16  C    0.047867
    17  C   -0.188741
    18  C   -0.073387
    19  C    0.024038
    20  C   -0.083616
    21  C    0.072218
    22  C    0.183192
    23  C   -0.122548
    24  C    0.079445
    25  C    0.088070
    26  C   -0.172556
    27  C    0.150149
    28  C    0.160520
    29  C    0.069904
    30  C   -0.116670
    31  C   -0.020525
    32  C    0.151554
    33  C   -0.027389
    34  C    0.141713
    35  C    0.048004
    36  C    0.037040
    37  C    0.113785
    38  C    0.067383
    39  C   -0.183666
    40  C    0.130267
    41  C   -0.018711
    42  C    0.081750
    43  C   -0.065446
    44  H    0.040534
    45  H    0.020371
    46  H    0.010796
    47  H    0.143278
    48  H    0.140096
    49  H    0.020753
    50  H    0.047533
    51  H   -0.005940
    52  H   -0.012305
    53  H    0.021510
    54  H    0.047187
    55  H    0.034646
    56  H    0.035999
    57  H    0.046740
    58  H    0.077743
    59  H   -0.002727
    60  H    0.149528
    61  H    0.055298
    62  H    0.036894
    63  H    0.048300
    64  H    0.045468
    65  H    0.077657
    66  H   -0.048189
    67  H    0.032877
    68  H    0.028729
    69  H   -0.120271
    70  H   -0.023933
    71  H    0.027278
    72  H    0.267953
    73  H   -0.034679
    74  H    0.037701
    75  H    0.043702
    76  H   -0.025838
    77  H    0.240992
    78  H    0.052655
    79  H    0.012501
 Sum of Mulliken charges =  -0.00000

 Dipole moment (field-independent basis, Debye):
    X=              0.9904    Y=              1.3754    Z=              4.6018  Tot=              4.9040
 Quadrupole moment (field-independent basis, Debye-Ang):
   XX=           -213.6996   YY=           -241.9011   ZZ=           -262.8234
   XY=             -3.2895   XZ=             31.7206   YZ=              8.6299

 Normal termination of Gaussian 16 at Wed Sep 18 16:54:39 2019.
