 Gaussian 16, Revision A.03,
 Gaussian 16:  ES64L-G16RevA.03 25-Dec-2016

 --------------------------
 # td=(NStates=1) B3LYP/SVP
 --------------------------

 --
 TD
 --
 Symbolic Z-matrix:
 Charge =  0 Multiplicity = 1

                         Standard orientation:
 ---------------------------------------------------------------------
 Center     Atomic      Atomic             Coordinates (Angstroms)
 Number     Number       Type             X           Y           Z
 ---------------------------------------------------------------------
      1          8           0        5.314497   -0.234783   -3.257784
      2          8           0       -3.088921   -2.853574    3.277470
      3          8           0       -3.386408   -0.695368    3.167502
      4          8           0       -1.233424    7.110120    1.537083
      5          8           0       -0.478794    7.039504   -0.554439
      6          8           0       -1.816271   -4.090909    0.073303
      7          7           0        2.337516    0.901537    0.590801
      8          7           0        4.346121   -0.709286   -1.247999
      9          7           0       -1.929262    0.801841   -0.335385
     10          7           0       -2.603544   -1.938805   -0.483018
     11          6           0        4.743867   -1.282486    0.069046
     12          6           0        4.421611   -0.385818    1.168892
     13          6           0        2.914785   -0.084592    1.257444
     14          6           0        1.950250   -0.611226    2.106182
     15          6           0        0.783990    0.061449    1.892824
     16          6           0        1.036655    1.067714    0.931365
     17          6           0        6.173339   -1.475243   -0.158232
     18          6           0       -0.540112   -0.206521    2.584972
     19          6           0        6.529097   -1.063927   -1.444516
     20          6           0        0.242519    2.045859    0.182711
     21          6           0       -1.127091    1.979129   -0.180856
     22          6           0        5.373230   -0.578632   -2.157241
     23          6           0       -1.934223    3.054373   -0.841363
     24          6           0        2.162705   -1.646371    3.168385
     25          6           0        6.967511   -2.098752    0.944897
     26          6           0       -2.996590    2.430149   -1.445896
     27          6           0       -1.190271   -1.626004    2.537057
     28          6           0       -3.086469    0.986975   -1.067801
     29          6           0       -1.512673    4.429058   -1.008641
     30          6           0        7.892896   -0.935316   -2.082861
     31          6           0       -1.517991    5.092908    0.303394
     32          6           0       -4.268671    3.023739   -2.091175
     33          6           0       -3.994809   -0.052940   -1.269949
     34          6           0       -2.620040   -1.612775    3.021403
     35          6           0       -3.704923   -1.490871   -1.068304
     36          6           0        9.079312   -0.859048   -1.496098
     37          6           0       -1.048230    6.534985    0.348967
     38          6           0       -4.564551   -2.633722   -1.498512
     39          6           0       -3.863388   -3.711442   -1.069397
     40          6           0       -2.642042   -3.413515   -0.459288
     41          6           0       -5.887641   -2.300177   -2.220101
     42          6           0       -4.489289   -5.063186   -1.199703
     43          6           0       -6.771930   -3.392213   -2.480861
     44          1           0        4.287244   -2.425510    0.093786
     45          1           0        5.140180    0.533679    0.933280
     46          1           0        4.721661   -0.713184    2.082523
     47          1           0        2.694440    1.624426   -0.125511
     48          1           0        3.449326   -0.665034   -1.691226
     49          1           0       -0.402402    0.122600    3.576678
     50          1           0       -1.383671    0.461991    2.402350
     51          1           0        0.775683    3.022457   -0.062175
     52          1           0        3.174515   -1.410535    3.550797
     53          1           0        1.498109   -1.454025    4.016511
     54          1           0        1.790008   -2.733791    2.832972
     55          1           0        6.248411   -2.665199    1.652589
     56          1           0        7.374634   -1.220192    1.387038
     57          1           0        7.843607   -2.757129    0.595768
     58          1           0       -1.179895   -2.286009    1.541510
     59          1           0       -0.468468   -2.276226    3.308181
     60          1           0       -1.704115   -0.113171    0.185523
     61          1           0       -2.208336    5.149712   -1.676264
     62          1           0       -0.484584    4.399371   -1.474239
     63          1           0        7.741896   -0.974699   -3.210910
     64          1           0       -0.782046    4.404459    0.997457
     65          1           0       -2.484243    5.355861    0.880483
     66          1           0       -4.084311    4.074327   -1.792396
     67          1           0       -5.239020    2.761719   -1.516983
     68          1           0       -4.050487    2.946174   -3.200428
     69          1           0       -4.922139   -0.020494   -1.810912
     70          1           0        9.016742   -0.916609   -0.251546
     71          1           0       10.037175   -1.061903   -2.071186
     72          1           0       -4.039625   -2.537946    3.541433
     73          1           0       -6.115040   -1.275037   -2.435859
     74          1           0       -5.323238   -5.338272   -0.248523
     75          1           0       -4.824331   -5.142793   -2.319194
     76          1           0       -3.785918   -6.063753   -1.042065
     77          1           0       -0.884407    8.050061    1.325628
     78          1           0       -7.606417   -3.142994   -3.152146
     79          1           0       -6.427187   -4.388654   -2.099296
 ---------------------------------------------------------------------

 SCF Done:  E(RB3LYP) =  -1947.82535511     A.U. after   17 cycles

 Excitation energies and oscillator strengths:

 Excited State   1:      Singlet-A      1.8979 eV  653.27 nm  f=0.3654  <S**2>=0.000
     155 ->156         0.69880
     155 <-156        -0.10841
 This state for optimization and/or second-order correction.
 Total Energy, E(TD-HF/TD-DFT) =  -1947.75560880
 Copying the excited state density for this state as the 1-particle RhoCI density.

 The electronic state is 1-A.
 Alpha  occ. eigenvalues --  -19.19638 -19.16542 -19.13180 -19.11904 -19.11770
 Alpha  occ. eigenvalues --  -19.09776 -14.39088 -14.36631 -14.33897 -14.28226
 Alpha  occ. eigenvalues --  -10.31976 -10.30695 -10.26952 -10.26784 -10.25604
 Alpha  occ. eigenvalues --  -10.25268 -10.25076 -10.23069 -10.22953 -10.22951
 Alpha  occ. eigenvalues --  -10.22450 -10.22410 -10.22262 -10.22104 -10.22096
 Alpha  occ. eigenvalues --  -10.21962 -10.21929 -10.21759 -10.21424 -10.21369
 Alpha  occ. eigenvalues --  -10.21138 -10.21117 -10.21024 -10.20931 -10.20668
 Alpha  occ. eigenvalues --  -10.20309 -10.20200 -10.19638 -10.19503 -10.19327
 Alpha  occ. eigenvalues --  -10.18814 -10.18677 -10.18256  -1.11655  -1.09027
 Alpha  occ. eigenvalues --   -1.05563  -1.03600  -1.02344  -1.00516  -0.98473
 Alpha  occ. eigenvalues --   -0.96116  -0.94398  -0.91727  -0.83643  -0.82340
 Alpha  occ. eigenvalues --   -0.81586  -0.80998  -0.79692  -0.79227  -0.77704
 Alpha  occ. eigenvalues --   -0.77151  -0.75916  -0.75568  -0.74062  -0.71915
 Alpha  occ. eigenvalues --   -0.71691  -0.71029  -0.69488  -0.68185  -0.67748
 Alpha  occ. eigenvalues --   -0.66711  -0.65835  -0.64305  -0.60876  -0.59331
 Alpha  occ. eigenvalues --   -0.58956  -0.58341  -0.57614  -0.56935  -0.56653
 Alpha  occ. eigenvalues --   -0.56093  -0.54456  -0.54341  -0.54085  -0.53334
 Alpha  occ. eigenvalues --   -0.51673  -0.51367  -0.50495  -0.50002  -0.49663
 Alpha  occ. eigenvalues --   -0.49431  -0.48687  -0.48314  -0.48168  -0.47828
 Alpha  occ. eigenvalues --   -0.47317  -0.47029  -0.46652  -0.46103  -0.45694
 Alpha  occ. eigenvalues --   -0.45346  -0.44989  -0.44342  -0.44073  -0.43989
 Alpha  occ. eigenvalues --   -0.43800  -0.43435  -0.42935  -0.42803  -0.42725
 Alpha  occ. eigenvalues --   -0.42207  -0.42050  -0.41891  -0.41562  -0.41503
 Alpha  occ. eigenvalues --   -0.41240  -0.40957  -0.40775  -0.40427  -0.40167
 Alpha  occ. eigenvalues --   -0.39918  -0.39392  -0.39327  -0.38711  -0.38662
 Alpha  occ. eigenvalues --   -0.38270  -0.37775  -0.37265  -0.36993  -0.36520
 Alpha  occ. eigenvalues --   -0.36326  -0.35349  -0.34861  -0.34483  -0.33912
 Alpha  occ. eigenvalues --   -0.33671  -0.33298  -0.33227  -0.31112  -0.30837
 Alpha  occ. eigenvalues --   -0.30660  -0.30219  -0.28501  -0.28342  -0.27690
 Alpha  occ. eigenvalues --   -0.27477  -0.26543  -0.25857  -0.25767  -0.25194
 Alpha  occ. eigenvalues --   -0.24206  -0.23954  -0.23391  -0.22379  -0.18817
 Alpha virt. eigenvalues --   -0.11160  -0.07235  -0.05497  -0.01863   0.00039
 Alpha virt. eigenvalues --    0.01100   0.01387   0.01702   0.02774   0.02898
 Alpha virt. eigenvalues --    0.03485   0.03985   0.04267   0.04381   0.04764

 Mulliken charges:
               1
     1  O   -0.153321
     2  O   -0.208443
     3  O   -0.245775
     4  O   -0.190615
     5  O   -0.202948
     6  O   -0.153388
     7  N   -0.023558
     8  N   -0.234288
     9  N   -0.163597
    10  N   -0.315336
    11  C    0.083976
    12  C    0.234926
    13  C   -0.107942
    14  C   -0.142315
    15  C   -0.038482
    16  C    0.008899
    17  C   -0.233071
    18  C    0.061173
    19  C   -0.078740
    20  C   -0.084118
    21  C    0.100193
    22  C    0.097526
    23  C   -0.055414
    24  C    0.083214
    25  C    0.075711
    26  C   -0.180985
    27  C   -0.102281
    28  C    0.182852
    29  C    0.078258
    30  C    0.003532
    31  C   -0.105638
    32  C    0.085838
    33  C   -0.042497
    34  C    0.147917
    35  C   -0.030641
    36  C   -0.076644
    37  C    0.106020
    38  C    0.055177
    39  C   -0.155927
    40  C    0.173873
    41  C   -0.028309
    42  C   -0.080548
    43  C   -0.004768
    44  H    0.056788
    45  H    0.017679
    46  H   -0.046509
    47  H    0.143430
    48  H    0.111926
    49  H   -0.009779
    50  H    0.001728
    51  H    0.014429
    52  H    0.011132
    53  H    0.007172
    54  H    0.062744
    55  H    0.040681
    56  H    0.037850
    57  H    0.059047
    58  H    0.123274
    59  H    0.040428
    60  H    0.182848
    61  H    0.039830
    62  H    0.042428
    63  H    0.026818
    64  H    0.071845
    65  H    0.050735
    66  H   -0.002686
    67  H    0.061255
    68  H    0.048255
    69  H   -0.056391
    70  H    0.029336
    71  H    0.047827
    72  H    0.189295
    73  H    0.008041
    74  H    0.066165
    75  H    0.060328
    76  H    0.040325
    77  H    0.198832
    78  H    0.033172
    79  H    0.050230
 Sum of Mulliken charges =  -0.00000

 Dipole moment (field-independent basis, Debye):
    X=             -0.1435    Y=              2.3698    Z=              2.4654  Tot=              3.4227
 Quadrupole moment (field-independent basis, Debye-Ang):
   XX=           -225.5182   YY=           -246.1670   ZZ=           -262.9593
   XY=             -9.3813   XZ=             34.8693   YZ=              6.1848

 Normal termination of Gaussian 16 at Thu Sep 26 14:02:23 2019.
