 Gaussian 16, Revision A.03,
 Gaussian 16:  ES64L-G16RevA.03 25-Dec-2016

 --------------------------
 # td=(NStates=1) B3LYP/SVP
 --------------------------

 --
 TD
 --
 Symbolic Z-matrix:
 Charge =  0 Multiplicity = 1

                         Standard orientation:
 ---------------------------------------------------------------------
 Center     Atomic      Atomic             Coordinates (Angstroms)
 Number     Number       Type             X           Y           Z
 ---------------------------------------------------------------------
      1          8           0       -3.261514   -1.653022   -2.750105
      2          8           0        3.030455    3.461251    2.695675
      3          8           0        3.442414    1.874008    4.305301
      4          8           0        7.721563   -1.739252   -0.357971
      5          8           0        6.814684   -3.341907   -1.574985
      6          8           0       -2.598304    1.824365    1.267143
      7          7           0       -0.463565   -2.351411    1.169553
      8          7           0       -2.753981   -1.194132   -0.461499
      9          7           0        1.080932   -0.162809   -0.875305
     10          7           0       -0.976405    1.376902   -0.359068
     11          6           0       -3.454140   -1.235671    0.819841
     12          6           0       -2.813925   -2.225100    1.776483
     13          6           0       -1.404767   -1.869219    1.898661
     14          6           0       -0.763861   -0.881218    2.859288
     15          6           0        0.667656   -0.811883    2.550477
     16          6           0        0.770268   -1.714473    1.542487
     17          6           0       -4.857002   -1.643143    0.379258
     18          6           0        1.694257   -0.001326    3.190911
     19          6           0       -4.907564   -1.968230   -1.007109
     20          6           0        1.865702   -1.903965    0.513807
     21          6           0        2.042421   -1.038099   -0.589726
     22          6           0       -3.487699   -1.567683   -1.587739
     23          6           0        3.078686   -1.021324   -1.579618
     24          6           0       -1.445568   -0.029698    3.746060
     25          6           0       -5.861366   -1.833835    1.507628
     26          6           0        2.635531    0.059135   -2.436504
     27          6           0        1.828418    1.480164    2.611407
     28          6           0        1.449554    0.584092   -1.974499
     29          6           0        4.259439   -1.860838   -1.763215
     30          6           0       -5.969353   -2.518935   -1.860686
     31          6           0        5.459022   -1.346729   -0.898634
     32          6           0        3.342605    0.585291   -3.639803
     33          6           0        0.584121    1.668681   -2.223806
     34          6           0        2.824030    2.287991    3.332590
     35          6           0       -0.493069    2.086628   -1.434465
     36          6           0       -7.033024   -3.337266   -1.522470
     37          6           0        6.689939   -2.286728   -0.995226
     38          6           0       -1.104862    3.400804   -1.543192
     39          6           0       -2.036228    3.387393   -0.432266
     40          6           0       -1.934550    2.186190    0.240219
     41          6           0       -0.963558    4.360180   -2.693715
     42          6           0       -3.107823    4.416265   -0.218936
     43          6           0       -1.407082    5.620854   -2.790564
     44          1           0       -3.623587   -0.286308    1.154819
     45          1           0       -3.035608   -3.359099    1.353465
     46          1           0       -3.256745   -2.002872    2.794887
     47          1           0       -0.626023   -3.086087    0.402252
     48          1           0       -2.113090   -0.533748   -0.695461
     49          1           0        1.534022    0.155796    4.268334
     50          1           0        2.634415   -0.387354    3.112935
     51          1           0        2.752543   -2.538729    0.693739
     52          1           0       -2.320354   -0.338009    4.387639
     53          1           0       -0.793640    0.401942    4.525574
     54          1           0       -1.882737    0.906768    3.133894
     55          1           0       -5.661581   -1.213161    2.508389
     56          1           0       -6.087893   -3.135254    1.454160
     57          1           0       -6.801670   -1.603494    1.223159
     58          1           0        2.254573    1.293229    1.594398
     59          1           0        0.889146    1.977204    2.280455
     60          1           0        0.249026    0.231964   -0.556547
     61          1           0        4.373600   -1.937999   -2.782546
     62          1           0        4.028592   -2.963788   -1.398011
     63          1           0       -5.765395   -2.284149   -2.979620
     64          1           0        5.091236   -1.372543    0.121760
     65          1           0        5.916070   -0.247832   -1.220925
     66          1           0        3.918359   -0.511581   -4.010593
     67          1           0        4.072771    1.481034   -3.613687
     68          1           0        2.764731    0.956710   -4.557602
     69          1           0        0.962750    2.479530   -2.947492
     70          1           0       -7.034515   -3.619125   -0.580189
     71          1           0       -7.722451   -3.526368   -2.241000
     72          1           0        3.824752    3.952051    2.991898
     73          1           0       -0.152781    3.972510   -3.488196
     74          1           0       -3.570020    4.608978   -1.103166
     75          1           0       -3.665819    3.946319    0.612173
     76          1           0       -2.623866    5.297107    0.124091
     77          1           0        8.400202   -2.209337   -0.267335
     78          1           0       -1.176116    6.093330   -3.854818
     79          1           0       -2.033390    6.149137   -2.098716
 ---------------------------------------------------------------------

 SCF Done:  E(RB3LYP) =  -1947.77897227     A.U. after   22 cycles

 Excitation energies and oscillator strengths:

 Excited State   1:      Singlet-A      0.3407 eV 3639.63 nm  f=0.0023  <S**2>=0.000
     155 ->156         0.70587
 This state for optimization and/or second-order correction.
 Total Energy, E(TD-HF/TD-DFT) =  -1947.76645360
 Copying the excited state density for this state as the 1-particle RhoCI density.

 The electronic state is 1-A.
 Alpha  occ. eigenvalues --  -19.18471 -19.18394 -19.14121 -19.12416 -19.11359
 Alpha  occ. eigenvalues --  -19.09188 -14.37715 -14.36228 -14.31991 -14.30081
 Alpha  occ. eigenvalues --  -10.34006 -10.32031 -10.26958 -10.26955 -10.25896
 Alpha  occ. eigenvalues --  -10.25761 -10.24623 -10.24575 -10.23992 -10.23778
 Alpha  occ. eigenvalues --  -10.23757 -10.23190 -10.23054 -10.22771 -10.21841
 Alpha  occ. eigenvalues --  -10.21639 -10.21428 -10.21327 -10.21247 -10.21139
 Alpha  occ. eigenvalues --  -10.20899 -10.20640 -10.20592 -10.20459 -10.19962
 Alpha  occ. eigenvalues --  -10.19236 -10.18637 -10.18410 -10.18051 -10.18046
 Alpha  occ. eigenvalues --  -10.16959 -10.16705 -10.16598  -1.13502  -1.08862
 Alpha  occ. eigenvalues --   -1.02864  -1.02220  -1.01663  -1.00288  -1.00214
 Alpha  occ. eigenvalues --   -0.97450  -0.92684  -0.92095  -0.85049  -0.82729
 Alpha  occ. eigenvalues --   -0.81009  -0.80615  -0.79629  -0.79289  -0.77972
 Alpha  occ. eigenvalues --   -0.77117  -0.76362  -0.75531  -0.74386  -0.73419
 Alpha  occ. eigenvalues --   -0.72031  -0.70741  -0.70267  -0.68622  -0.68498
 Alpha  occ. eigenvalues --   -0.67405  -0.66274  -0.65147  -0.63622  -0.61314
 Alpha  occ. eigenvalues --   -0.60355  -0.59935  -0.59199  -0.58459  -0.56860
 Alpha  occ. eigenvalues --   -0.55620  -0.54712  -0.54431  -0.53884  -0.53044
 Alpha  occ. eigenvalues --   -0.52169  -0.51946  -0.51220  -0.50444  -0.50089
 Alpha  occ. eigenvalues --   -0.49626  -0.49033  -0.48745  -0.48548  -0.47747
 Alpha  occ. eigenvalues --   -0.47305  -0.47163  -0.46778  -0.46476  -0.45841
 Alpha  occ. eigenvalues --   -0.45377  -0.45194  -0.45004  -0.44472  -0.43984
 Alpha  occ. eigenvalues --   -0.43592  -0.43475  -0.42553  -0.42194  -0.41930
 Alpha  occ. eigenvalues --   -0.41888  -0.41779  -0.41699  -0.41367  -0.40815
 Alpha  occ. eigenvalues --   -0.40684  -0.40430  -0.39942  -0.39913  -0.39722
 Alpha  occ. eigenvalues --   -0.39441  -0.38637  -0.38543  -0.38272  -0.37822
 Alpha  occ. eigenvalues --   -0.37388  -0.37113  -0.36632  -0.36571  -0.36366
 Alpha  occ. eigenvalues --   -0.36188  -0.35868  -0.35461  -0.34763  -0.34631
 Alpha  occ. eigenvalues --   -0.34171  -0.34056  -0.32941  -0.32400  -0.32008
 Alpha  occ. eigenvalues --   -0.31533  -0.29705  -0.29134  -0.28824  -0.28680
 Alpha  occ. eigenvalues --   -0.28039  -0.27019  -0.25633  -0.25336  -0.23954
 Alpha  occ. eigenvalues --   -0.23457  -0.23130  -0.22031  -0.21058  -0.17515
 Alpha virt. eigenvalues --   -0.13791  -0.09053  -0.04218  -0.01824  -0.01399
 Alpha virt. eigenvalues --   -0.00121   0.01620   0.02169   0.02779   0.02873
 Alpha virt. eigenvalues --    0.03384   0.03659   0.04043   0.04440   0.04542

 Mulliken charges:
               1
     1  O   -0.192569
     2  O   -0.196984
     3  O   -0.238651
     4  O   -0.078237
     5  O   -0.211941
     6  O   -0.264764
     7  N   -0.047653
     8  N   -0.206818
     9  N    0.021824
    10  N   -0.325829
    11  C    0.162511
    12  C    0.183101
    13  C   -0.107861
    14  C   -0.105123
    15  C    0.000703
    16  C   -0.006041
    17  C   -0.211049
    18  C    0.170986
    19  C   -0.080533
    20  C   -0.089760
    21  C    0.067718
    22  C    0.130153
    23  C   -0.046925
    24  C   -0.015165
    25  C    0.049488
    26  C   -0.080474
    27  C   -0.065739
    28  C    0.073817
    29  C    0.112387
    30  C   -0.083622
    31  C   -0.043234
    32  C   -0.057339
    33  C   -0.078696
    34  C    0.167155
    35  C    0.067977
    36  C    0.092094
    37  C    0.122103
    38  C    0.015134
    39  C   -0.221402
    40  C    0.184321
    41  C   -0.029079
    42  C    0.178607
    43  C   -0.043737
    44  H    0.005909
    45  H    0.015998
    46  H    0.006626
    47  H    0.148376
    48  H    0.104587
    49  H    0.017168
    50  H   -0.043465
    51  H    0.001102
    52  H   -0.002529
    53  H   -0.011771
    54  H    0.063146
    55  H    0.056459
    56  H    0.055161
    57  H   -0.005197
    58  H    0.028950
    59  H    0.058235
    60  H    0.104966
    61  H   -0.007567
    62  H    0.045877
    63  H    0.024196
    64  H    0.045206
    65  H    0.081794
    66  H    0.043816
    67  H    0.056205
    68  H    0.043011
    69  H    0.000592
    70  H   -0.051526
    71  H   -0.002148
    72  H    0.188036
    73  H    0.031519
    74  H    0.011108
    75  H    0.028437
    76  H    0.012886
    77  H    0.098839
    78  H    0.050206
    79  H    0.024940
 Sum of Mulliken charges =  -0.00000

 Dipole moment (field-independent basis, Debye):
    X=              5.1981    Y=              2.9253    Z=             -1.5144  Tot=              6.1539
 Quadrupole moment (field-independent basis, Debye-Ang):
   XX=           -233.4376   YY=           -238.2185   ZZ=           -270.4117
   XY=              5.6352   XZ=            -17.4067   YZ=            -17.8412

 Normal termination of Gaussian 16 at Tue Jul 30 07:17:13 2019.
