 Gaussian 16, Revision A.03,
 Gaussian 16:  ES64L-G16RevA.03 25-Dec-2016

 --------------------------
 # td=(NStates=1) B3LYP/SVP
 --------------------------

 --
 TD
 --
 Symbolic Z-matrix:
 Charge =  0 Multiplicity = 1

                         Standard orientation:
 ---------------------------------------------------------------------
 Center     Atomic      Atomic             Coordinates (Angstroms)
 Number     Number       Type             X           Y           Z
 ---------------------------------------------------------------------
      1          8           0        5.056728   -0.317497   -3.331116
      2          8           0       -2.855505   -2.768855    3.136684
      3          8           0       -3.259177   -0.575259    3.003399
      4          8           0       -1.878773    7.230161    1.266661
      5          8           0       -0.497270    6.997858   -0.529449
      6          8           0       -1.725471   -3.962892    0.247542
      7          7           0        2.300714    1.050381    0.548991
      8          7           0        4.299346   -0.624984   -1.174268
      9          7           0       -1.840263    0.626848   -0.434095
     10          7           0       -2.619016   -1.837195   -0.363453
     11          6           0        4.770720   -1.148524    0.088445
     12          6           0        4.372647   -0.282864    1.277077
     13          6           0        2.886649    0.142864    1.359099
     14          6           0        2.050285   -0.439373    2.211569
     15          6           0        0.669831    0.130214    1.922807
     16          6           0        0.910339    0.992469    0.782402
     17          6           0        6.340623   -1.285377   -0.113029
     18          6           0       -0.557623   -0.033298    2.557889
     19          6           0        6.585576   -0.887460   -1.457518
     20          6           0        0.128189    2.005687    0.179618
     21          6           0       -1.171518    1.804006   -0.370829
     22          6           0        5.302803   -0.690996   -2.164432
     23          6           0       -1.931702    2.920562   -1.050162
     24          6           0        2.369109   -1.447179    3.364501
     25          6           0        7.243533   -1.712772    0.916650
     26          6           0       -3.103792    2.259102   -1.397751
     27          6           0       -0.987393   -1.478858    2.665743
     28          6           0       -3.085263    0.857302   -1.118992
     29          6           0       -1.584482    4.276964   -1.132671
     30          6           0        7.799249   -0.971237   -2.141430
     31          6           0       -1.764977    5.078632    0.242955
     32          6           0       -4.403496    2.747780   -2.014805
     33          6           0       -3.907339   -0.159460   -1.299872
     34          6           0       -2.495671   -1.504555    3.044720
     35          6           0       -3.708141   -1.558306   -1.020788
     36          6           0        9.105347   -0.810944   -1.604131
     37          6           0       -1.364013    6.527319    0.203349
     38          6           0       -4.549453   -2.696692   -1.394480
     39          6           0       -3.845728   -3.904218   -0.956147
     40          6           0       -2.692743   -3.372986   -0.329178
     41          6           0       -5.786555   -2.672547   -1.951284
     42          6           0       -4.080809   -5.396967   -1.038732
     43          6           0       -6.512250   -3.740187   -2.441128
     44          1           0        4.410656   -2.202385    0.321071
     45          1           0        4.960865    0.711338    0.966539
     46          1           0        4.756985   -0.646202    2.217991
     47          1           0        2.725092    1.798860   -0.130206
     48          1           0        3.273485   -0.703861   -1.478736
     49          1           0       -0.489522    0.377305    3.497878
     50          1           0       -1.483538    0.455987    2.022479
     51          1           0        0.513600    3.021293   -0.116311
     52          1           0        3.432783   -1.752378    3.482564
     53          1           0        2.116138   -0.703069    4.381405
     54          1           0        1.877068   -2.279174    3.123319
     55          1           0        6.506575   -2.104377    1.784857
     56          1           0        7.947494   -0.912673    1.304276
     57          1           0        7.663615   -2.893724    0.217975
     58          1           0       -0.899755   -2.286769    1.968662
     59          1           0       -0.480560   -1.836986    3.597289
     60          1           0       -1.667999   -0.508744    0.039630
     61          1           0       -2.281690    4.822903   -1.733125
     62          1           0       -0.497529    4.338748   -1.512167
     63          1           0        7.916202   -0.560541   -3.233954
     64          1           0       -1.341073    4.664831    0.965754
     65          1           0       -2.743502    5.224753    0.468659
     66          1           0       -4.242935    3.885638   -2.173740
     67          1           0       -5.232866    2.884254   -1.215290
     68          1           0       -4.950739    2.096950   -2.845269
     69          1           0       -4.830735   -0.031933   -1.810719
     70          1           0        9.612478   -0.806297   -0.558090
     71          1           0        9.972090   -0.717018   -2.206947
     72          1           0       -3.888222   -2.875516    3.287815
     73          1           0       -6.251618   -1.651399   -2.019382
     74          1           0       -5.375240   -5.448344   -0.982203
     75          1           0       -3.765795   -5.669351   -2.117375
     76          1           0       -3.557876   -6.053575   -0.313112
     77          1           0       -1.615185    8.015381    1.054409
     78          1           0       -7.612578   -3.501914   -3.021231
     79          1           0       -6.197607   -4.774099   -2.541495
 ---------------------------------------------------------------------

 SCF Done:  E(RB3LYP) =  -1947.70484118     A.U. after   18 cycles

 Excitation energies and oscillator strengths:

 Excited State   1:      Singlet-A      1.5874 eV  781.04 nm  f=0.3204  <S**2>=0.000
     155 ->156         0.71128
     155 <-156        -0.14738
 This state for optimization and/or second-order correction.
 Total Energy, E(TD-HF/TD-DFT) =  -1947.64650411
 Copying the excited state density for this state as the 1-particle RhoCI density.

 The electronic state is 1-A.
 Alpha  occ. eigenvalues --  -19.18524 -19.17459 -19.13776 -19.11103 -19.10878
 Alpha  occ. eigenvalues --  -19.09324 -14.37746 -14.34985 -14.34725 -14.30471
 Alpha  occ. eigenvalues --  -10.33034 -10.30090 -10.28197 -10.27065 -10.24892
 Alpha  occ. eigenvalues --  -10.24854 -10.23502 -10.23233 -10.23045 -10.22865
 Alpha  occ. eigenvalues --  -10.22639 -10.22446 -10.22209 -10.22072 -10.21996
 Alpha  occ. eigenvalues --  -10.21729 -10.21558 -10.21508 -10.21497 -10.21441
 Alpha  occ. eigenvalues --  -10.21252 -10.20947 -10.20877 -10.20818 -10.20731
 Alpha  occ. eigenvalues --  -10.20590 -10.20462 -10.19625 -10.19299 -10.18686
 Alpha  occ. eigenvalues --  -10.18338 -10.18243 -10.17724  -1.12119  -1.08441
 Alpha  occ. eigenvalues --   -1.01594  -1.00273  -0.99268  -0.99132  -0.97098
 Alpha  occ. eigenvalues --   -0.95380  -0.92237  -0.91921  -0.83256  -0.82145
 Alpha  occ. eigenvalues --   -0.81965  -0.81481  -0.80526  -0.79096  -0.78201
 Alpha  occ. eigenvalues --   -0.76931  -0.76305  -0.75178  -0.73990  -0.72538
 Alpha  occ. eigenvalues --   -0.70878  -0.70551  -0.70252  -0.68294  -0.67358
 Alpha  occ. eigenvalues --   -0.66709  -0.65622  -0.63340  -0.61677  -0.61138
 Alpha  occ. eigenvalues --   -0.60615  -0.58847  -0.57358  -0.56357  -0.56065
 Alpha  occ. eigenvalues --   -0.55707  -0.55402  -0.53783  -0.53524  -0.52670
 Alpha  occ. eigenvalues --   -0.52215  -0.51006  -0.50846  -0.50355  -0.50075
 Alpha  occ. eigenvalues --   -0.49501  -0.49024  -0.48267  -0.47639  -0.46931
 Alpha  occ. eigenvalues --   -0.46680  -0.46582  -0.46337  -0.45882  -0.45063
 Alpha  occ. eigenvalues --   -0.44902  -0.44418  -0.44338  -0.44063  -0.43577
 Alpha  occ. eigenvalues --   -0.43397  -0.43245  -0.42972  -0.42910  -0.42505
 Alpha  occ. eigenvalues --   -0.41734  -0.41458  -0.41204  -0.40871  -0.40652
 Alpha  occ. eigenvalues --   -0.40575  -0.40014  -0.39864  -0.39600  -0.39500
 Alpha  occ. eigenvalues --   -0.39413  -0.39108  -0.38463  -0.38394  -0.38249
 Alpha  occ. eigenvalues --   -0.37877  -0.37350  -0.36787  -0.36364  -0.36088
 Alpha  occ. eigenvalues --   -0.35472  -0.35325  -0.35082  -0.34574  -0.34381
 Alpha  occ. eigenvalues --   -0.34325  -0.33432  -0.32650  -0.31901  -0.31258
 Alpha  occ. eigenvalues --   -0.30897  -0.30457  -0.29110  -0.28871  -0.28335
 Alpha  occ. eigenvalues --   -0.26688  -0.25626  -0.24862  -0.24654  -0.24098
 Alpha  occ. eigenvalues --   -0.23791  -0.23192  -0.22692  -0.22485  -0.17858
 Alpha virt. eigenvalues --   -0.11790  -0.07377  -0.07090  -0.01646  -0.01046
 Alpha virt. eigenvalues --   -0.00743   0.00374   0.01466   0.02439   0.02894
 Alpha virt. eigenvalues --    0.03338   0.03836   0.04144   0.04448   0.04921

 Mulliken charges:
               1
     1  O   -0.254209
     2  O   -0.197637
     3  O   -0.229300
     4  O   -0.113138
     5  O   -0.238061
     6  O   -0.240101
     7  N   -0.121338
     8  N   -0.226520
     9  N   -0.224351
    10  N   -0.320539
    11  C    0.099387
    12  C    0.154042
    13  C   -0.050563
    14  C   -0.166508
    15  C   -0.052418
    16  C    0.096753
    17  C   -0.151688
    18  C    0.094389
    19  C   -0.003728
    20  C   -0.121165
    21  C    0.045097
    22  C    0.176232
    23  C   -0.051613
    24  C    0.104490
    25  C   -0.047001
    26  C   -0.085192
    27  C   -0.062508
    28  C    0.188568
    29  C    0.063612
    30  C   -0.036709
    31  C    0.167340
    32  C    0.025757
    33  C   -0.100838
    34  C    0.125766
    35  C    0.090620
    36  C   -0.103449
    37  C    0.104335
    38  C    0.090674
    39  C   -0.138265
    40  C    0.166301
    41  C   -0.071707
    42  C    0.006666
    43  C   -0.082143
    44  H    0.016379
    45  H   -0.007173
    46  H   -0.008078
    47  H    0.164270
    48  H    0.158445
    49  H   -0.021526
    50  H    0.052819
    51  H   -0.009051
    52  H   -0.004128
    53  H    0.056058
    54  H    0.016216
    55  H    0.046333
    56  H    0.084216
    57  H    0.087825
    58  H    0.059650
    59  H    0.019491
    60  H    0.271952
    61  H   -0.003599
    62  H    0.050152
    63  H    0.053009
    64  H   -0.034018
    65  H   -0.007994
    66  H    0.004000
    67  H    0.028826
    68  H    0.062741
    69  H   -0.076325
    70  H    0.027108
    71  H    0.016251
    72  H    0.209508
    73  H    0.010866
    74  H    0.051223
    75  H    0.062721
    76  H    0.057400
    77  H    0.105151
    78  H    0.055997
    79  H    0.033947
 Sum of Mulliken charges =  -0.00000

 Dipole moment (field-independent basis, Debye):
    X=             -1.2230    Y=              0.2524    Z=              3.1937  Tot=              3.4291
 Quadrupole moment (field-independent basis, Debye-Ang):
   XX=           -210.9623   YY=           -242.1736   ZZ=           -264.5922
   XY=             -1.5022   XZ=             34.9544   YZ=              2.7481

 Normal termination of Gaussian 16 at Thu Oct 10 15:16:13 2019.
