 Gaussian 16, Revision A.03,
 Gaussian 16:  ES64L-G16RevA.03 25-Dec-2016

 --------------------------
 # td=(NStates=1) B3LYP/SVP
 --------------------------

 --
 TD
 --
 Symbolic Z-matrix:
 Charge =  0 Multiplicity = 1

                         Standard orientation:
 ---------------------------------------------------------------------
 Center     Atomic      Atomic             Coordinates (Angstroms)
 Number     Number       Type             X           Y           Z
 ---------------------------------------------------------------------
      1          8           0        5.336737   -0.126701   -3.351686
      2          8           0       -2.861092   -3.048349    3.245724
      3          8           0       -3.355322   -0.871263    2.892962
      4          8           0       -1.565217    7.138805    1.467780
      5          8           0       -0.674433    7.026397   -0.575618
      6          8           0       -1.817620   -4.167650   -0.022792
      7          7           0        2.319403    1.016526    0.627377
      8          7           0        4.335743   -0.553840   -1.245218
      9          7           0       -1.847136    0.697840   -0.376434
     10          7           0       -2.506973   -1.893753   -0.613468
     11          6           0        4.746968   -1.159655   -0.014452
     12          6           0        4.459502   -0.203002    1.230875
     13          6           0        2.976226    0.088264    1.359945
     14          6           0        2.111954   -0.532614    2.172496
     15          6           0        0.767007   -0.002890    1.799792
     16          6           0        1.037429    1.028373    0.840522
     17          6           0        6.288905   -1.365302   -0.153353
     18          6           0       -0.510507   -0.303830    2.614992
     19          6           0        6.584815   -0.837018   -1.458776
     20          6           0        0.159520    1.969250    0.217821
     21          6           0       -1.118149    1.839310   -0.270779
     22          6           0        5.384555   -0.515531   -2.212961
     23          6           0       -1.950282    2.924839   -0.851299
     24          6           0        2.200342   -1.775614    3.134080
     25          6           0        7.212836   -1.921918    0.867920
     26          6           0       -3.129885    2.392535   -1.261750
     27          6           0       -1.095081   -1.722892    2.466380
     28          6           0       -3.103779    1.004770   -0.990776
     29          6           0       -1.649794    4.382278   -0.879772
     30          6           0        7.950315   -0.818182   -2.014297
     31          6           0       -1.772423    5.110596    0.532954
     32          6           0       -4.367061    3.059277   -1.922914
     33          6           0       -4.048420   -0.045397   -1.205234
     34          6           0       -2.503800   -1.797927    2.886708
     35          6           0       -3.692587   -1.485775   -1.031590
     36          6           0        9.172039   -0.783096   -1.478327
     37          6           0       -1.334863    6.508431    0.344110
     38          6           0       -4.610534   -2.615034   -1.334660
     39          6           0       -3.972895   -3.767966   -1.105705
     40          6           0       -2.636407   -3.364056   -0.511574
     41          6           0       -5.975178   -2.349670   -1.842182
     42          6           0       -4.299811   -5.216427   -1.256299
     43          6           0       -6.729766   -3.337321   -2.544134
     44          1           0        4.112642   -2.090182    0.153195
     45          1           0        5.103036    0.615332    1.271640
     46          1           0        4.654593   -0.569801    2.261376
     47          1           0        2.735180    1.776299    0.037420
     48          1           0        3.330154   -0.208260   -1.578042
     49          1           0       -0.188200   -0.135981    3.693022
     50          1           0       -1.290573    0.480960    2.346001
     51          1           0        0.586884    2.890472   -0.104174
     52          1           0        3.418191   -2.261364    3.233566
     53          1           0        1.801187   -1.597041    4.241454
     54          1           0        1.627109   -2.744644    2.729452
     55          1           0        6.643475   -2.676596    1.414046
     56          1           0        7.427963   -1.167989    1.567718
     57          1           0        8.102340   -2.323541    0.439062
     58          1           0       -1.037543   -2.117818    1.433888
     59          1           0       -0.508835   -2.338787    3.052156
     60          1           0       -1.448011   -0.294969   -0.317872
     61          1           0       -2.424177    4.804976   -1.406688
     62          1           0       -0.626644    4.629736   -1.227712
     63          1           0        7.977839   -0.691368   -3.085258
     64          1           0       -0.918758    4.766194    1.283852
     65          1           0       -2.813334    4.885333    0.958881
     66          1           0       -4.486280    4.278979   -1.930273
     67          1           0       -5.311332    2.744046   -1.472078
     68          1           0       -4.245424    2.599555   -3.208069
     69          1           0       -4.958830    0.111392   -1.738732
     70          1           0        9.400400   -0.674330   -0.435886
     71          1           0        9.888992   -0.849568   -2.184421
     72          1           0       -3.768470   -2.836954    3.420696
     73          1           0       -6.415745   -1.352607   -1.786550
     74          1           0       -5.271102   -5.385470   -0.625154
     75          1           0       -4.252835   -5.570837   -2.182210
     76          1           0       -3.572315   -5.892728   -0.618230
     77          1           0       -1.109146    7.993850    1.460472
     78          1           0       -7.924616   -3.205320   -2.963281
     79          1           0       -6.156655   -4.389131   -2.896612
 ---------------------------------------------------------------------

 SCF Done:  E(RB3LYP) =  -1947.86910673     A.U. after   16 cycles

 Excitation energies and oscillator strengths:

 Excited State   1:      Singlet-A      2.0204 eV  613.68 nm  f=0.4133  <S**2>=0.000
     155 ->156         0.70096
     155 <-156        -0.11174
 This state for optimization and/or second-order correction.
 Total Energy, E(TD-HF/TD-DFT) =  -1947.79486022
 Copying the excited state density for this state as the 1-particle RhoCI density.

 The electronic state is 1-A.
 Alpha  occ. eigenvalues --  -19.19452 -19.17360 -19.13146 -19.11902 -19.11331
 Alpha  occ. eigenvalues --  -19.10069 -14.38759 -14.36203 -14.35513 -14.30311
 Alpha  occ. eigenvalues --  -10.32965 -10.30886 -10.28260 -10.27819 -10.25812
 Alpha  occ. eigenvalues --  -10.25249 -10.24268 -10.24162 -10.24080 -10.23580
 Alpha  occ. eigenvalues --  -10.23383 -10.23099 -10.23007 -10.22783 -10.22649
 Alpha  occ. eigenvalues --  -10.21764 -10.21438 -10.21367 -10.21214 -10.21187
 Alpha  occ. eigenvalues --  -10.20668 -10.20509 -10.20430 -10.20302 -10.19917
 Alpha  occ. eigenvalues --  -10.19910 -10.19801 -10.19435 -10.19393 -10.19352
 Alpha  occ. eigenvalues --  -10.19211 -10.18222 -10.18091  -1.11814  -1.09309
 Alpha  occ. eigenvalues --   -1.02627  -1.01121  -1.00692  -1.00091  -0.97462
 Alpha  occ. eigenvalues --   -0.97351  -0.93051  -0.91970  -0.82901  -0.81807
 Alpha  occ. eigenvalues --   -0.81179  -0.80535  -0.80232  -0.79301  -0.77896
 Alpha  occ. eigenvalues --   -0.77077  -0.76245  -0.75436  -0.74056  -0.72030
 Alpha  occ. eigenvalues --   -0.71530  -0.70371  -0.69321  -0.68641  -0.68252
 Alpha  occ. eigenvalues --   -0.66969  -0.66120  -0.64283  -0.61200  -0.60525
 Alpha  occ. eigenvalues --   -0.60148  -0.58078  -0.57386  -0.56985  -0.56735
 Alpha  occ. eigenvalues --   -0.56495  -0.55412  -0.54582  -0.53708  -0.53114
 Alpha  occ. eigenvalues --   -0.52208  -0.51478  -0.51166  -0.50420  -0.49942
 Alpha  occ. eigenvalues --   -0.49186  -0.48961  -0.48507  -0.47885  -0.47787
 Alpha  occ. eigenvalues --   -0.47437  -0.46965  -0.46855  -0.46521  -0.45948
 Alpha  occ. eigenvalues --   -0.44991  -0.44632  -0.44156  -0.44085  -0.43730
 Alpha  occ. eigenvalues --   -0.43485  -0.43102  -0.42990  -0.42513  -0.42294
 Alpha  occ. eigenvalues --   -0.41950  -0.41651  -0.41336  -0.41175  -0.40633
 Alpha  occ. eigenvalues --   -0.40501  -0.40235  -0.39941  -0.39738  -0.39624
 Alpha  occ. eigenvalues --   -0.39462  -0.39243  -0.39049  -0.38471  -0.38100
 Alpha  occ. eigenvalues --   -0.37862  -0.37627  -0.37406  -0.37314  -0.36891
 Alpha  occ. eigenvalues --   -0.36636  -0.36283  -0.35990  -0.34871  -0.34288
 Alpha  occ. eigenvalues --   -0.33859  -0.33508  -0.32802  -0.32060  -0.30989
 Alpha  occ. eigenvalues --   -0.30731  -0.30474  -0.28963  -0.28744  -0.28565
 Alpha  occ. eigenvalues --   -0.26935  -0.26228  -0.25925  -0.25781  -0.24815
 Alpha  occ. eigenvalues --   -0.24691  -0.23890  -0.23327  -0.22740  -0.18949
 Alpha virt. eigenvalues --   -0.10992  -0.06811  -0.06093  -0.01754  -0.01415
 Alpha virt. eigenvalues --    0.00498   0.01143   0.01740   0.01946   0.02176
 Alpha virt. eigenvalues --    0.03064   0.04089   0.04133   0.04820   0.05021

 Mulliken charges:
               1
     1  O   -0.202978
     2  O   -0.143687
     3  O   -0.288120
     4  O   -0.140421
     5  O   -0.266563
     6  O   -0.220576
     7  N    0.009195
     8  N   -0.292174
     9  N   -0.126970
    10  N   -0.306912
    11  C    0.120305
    12  C    0.194887
    13  C   -0.138164
    14  C   -0.054300
    15  C   -0.141860
    16  C    0.027726
    17  C   -0.186244
    18  C    0.037700
    19  C   -0.055959
    20  C   -0.077329
    21  C    0.079131
    22  C    0.173913
    23  C   -0.100682
    24  C   -0.073184
    25  C    0.166427
    26  C   -0.063281
    27  C    0.078621
    28  C    0.133836
    29  C    0.151841
    30  C   -0.033610
    31  C   -0.083589
    32  C   -0.037200
    33  C   -0.063139
    34  C    0.125206
    35  C    0.049939
    36  C    0.018363
    37  C    0.140189
    38  C    0.051756
    39  C   -0.189425
    40  C    0.185938
    41  C   -0.021311
    42  C    0.085631
    43  C   -0.134794
    44  H    0.031956
    45  H   -0.035722
    46  H    0.001227
    47  H    0.129232
    48  H    0.164796
    49  H    0.017615
    50  H    0.036282
    51  H   -0.047201
    52  H    0.025077
    53  H    0.053188
    54  H    0.076917
    55  H    0.014536
    56  H    0.021195
    57  H    0.032511
    58  H    0.075431
    59  H   -0.011758
    60  H    0.181227
    61  H   -0.020393
    62  H    0.030125
    63  H    0.001224
    64  H    0.070578
    65  H    0.065651
    66  H    0.054812
    67  H    0.047033
    68  H    0.064754
    69  H   -0.035520
    70  H    0.002278
    71  H   -0.001709
    72  H    0.150228
    73  H    0.011220
    74  H    0.041247
    75  H    0.013824
    76  H    0.035955
    77  H    0.178989
    78  H    0.068577
    79  H    0.066491
 Sum of Mulliken charges =  -0.00000

 Dipole moment (field-independent basis, Debye):
    X=             -0.2124    Y=              2.8150    Z=              3.4946  Tot=              4.4924
 Quadrupole moment (field-independent basis, Debye-Ang):
   XX=           -224.0679   YY=           -245.8055   ZZ=           -264.8410
   XY=             -7.7732   XZ=             35.6665   YZ=              9.7758

 Normal termination of Gaussian 16 at Thu Oct  3 20:19:08 2019.
