 Gaussian 16, Revision A.03,
 Gaussian 16:  ES64L-G16RevA.03 25-Dec-2016

 --------------------------
 # td=(NStates=1) B3LYP/SVP
 --------------------------

 --
 TD
 --
 Symbolic Z-matrix:
 Charge =  0 Multiplicity = 1

                         Standard orientation:
 ---------------------------------------------------------------------
 Center     Atomic      Atomic             Coordinates (Angstroms)
 Number     Number       Type             X           Y           Z
 ---------------------------------------------------------------------
      1          8           0       -3.006839   -1.336797   -2.976039
      2          8           0        3.033229    2.786449    3.309387
      3          8           0        3.916512    0.793235    4.184185
      4          8           0        7.696632   -1.563138   -0.736410
      5          8           0        6.612678   -2.687891   -2.348878
      6          8           0       -2.586565    1.493076    1.680013
      7          7           0       -0.290521   -2.458347    0.646333
      8          7           0       -2.676122   -1.115474   -0.652529
      9          7           0        1.146116    0.247541   -0.638262
     10          7           0       -1.008651    1.380619   -0.030419
     11          6           0       -3.372090   -1.246741    0.516282
     12          6           0       -2.692131   -2.449659    1.323954
     13          6           0       -1.243506   -2.200808    1.513395
     14          6           0       -0.620504   -1.408765    2.558990
     15          6           0        0.773244   -1.445453    2.341347
     16          6           0        0.890852   -1.996742    1.086558
     17          6           0       -4.695508   -1.818370    0.155025
     18          6           0        1.823043   -0.718711    3.058619
     19          6           0       -4.729377   -1.912211   -1.291334
     20          6           0        2.035262   -1.894897    0.156519
     21          6           0        2.099111   -0.738674   -0.699963
     22          6           0       -3.433249   -1.387932   -1.766468
     23          6           0        3.030737   -0.503826   -1.706013
     24          6           0       -1.370523   -0.837256    3.762454
     25          6           0       -5.827853   -2.071920    1.070540
     26          6           0        2.585765    0.729602   -2.334095
     27          6           0        1.977621    0.793460    2.705340
     28          6           0        1.372728    1.194990   -1.733940
     29          6           0        4.130316   -1.254933   -2.120169
     30          6           0       -5.722389   -2.316457   -2.194832
     31          6           0        5.340258   -0.979619   -1.153346
     32          6           0        3.249764    1.632479   -3.420393
     33          6           0        0.511782    2.269862   -1.765699
     34          6           0        3.116418    1.398851    3.579404
     35          6           0       -0.625361    2.344779   -0.980992
     36          6           0       -6.852027   -3.178413   -1.922689
     37          6           0        6.533620   -1.859592   -1.480734
     38          6           0       -1.517892    3.535908   -0.954794
     39          6           0       -2.393900    3.343905    0.047692
     40          6           0       -2.107948    1.986159    0.672803
     41          6           0       -1.290916    4.752486   -1.738331
     42          6           0       -3.467671    4.237459    0.652355
     43          6           0       -1.996180    5.907291   -1.850762
     44          1           0       -3.513587   -0.219204    1.175322
     45          1           0       -2.870465   -3.480496    0.826972
     46          1           0       -3.242639   -2.603293    2.403172
     47          1           0       -0.490928   -3.016100   -0.160837
     48          1           0       -1.968927   -0.440429   -0.587515
     49          1           0        1.543387   -0.910025    4.221064
     50          1           0        2.744460   -1.307681    2.935406
     51          1           0        2.826017   -2.877133    0.016552
     52          1           0       -2.197733   -1.730934    4.140203
     53          1           0       -0.731545   -0.616341    4.485820
     54          1           0       -1.927164    0.007542    3.379400
     55          1           0       -5.739427   -1.584550    2.027830
     56          1           0       -5.869304   -3.305443    1.193501
     57          1           0       -6.936262   -1.846068    0.739307
     58          1           0        2.158677    1.119255    1.661972
     59          1           0        1.230294    1.598793    2.909657
     60          1           0        0.457447    0.222204    0.202196
     61          1           0        4.543531   -1.082899   -3.095774
     62          1           0        3.896507   -2.301246   -2.133014
     63          1           0       -5.681840   -1.947727   -3.145805
     64          1           0        5.111726   -1.543459   -0.243458
     65          1           0        5.808742    0.101263   -1.194339
     66          1           0        4.050853    1.104445   -3.889904
     67          1           0        3.603156    2.611753   -2.880530
     68          1           0        2.489602    2.115997   -4.281055
     69          1           0        0.766396    2.967209   -2.432040
     70          1           0       -7.075626   -3.584531   -1.007957
     71          1           0       -7.442367   -3.161779   -2.732842
     72          1           0        3.720761    3.207203    3.835916
     73          1           0       -0.355474    4.709349   -2.372702
     74          1           0       -4.317338    4.463674   -0.208561
     75          1           0       -3.988422    3.858737    1.642396
     76          1           0       -3.042031    5.122433    1.003385
     77          1           0        8.448205   -1.983584   -1.190308
     78          1           0       -1.850489    6.563116   -2.729388
     79          1           0       -2.748101    6.072595   -1.208305
 ---------------------------------------------------------------------

 SCF Done:  E(RB3LYP) =  -1947.81313559     A.U. after   22 cycles

 Excitation energies and oscillator strengths:

 Excited State   1:      Singlet-A      0.7932 eV 1563.14 nm  f=0.0004  <S**2>=0.000
     155 ->156         0.69928
 This state for optimization and/or second-order correction.
 Total Energy, E(TD-HF/TD-DFT) =  -1947.78398700
 Copying the excited state density for this state as the 1-particle RhoCI density.

 The electronic state is 1-A.
 Alpha  occ. eigenvalues --  -19.17794 -19.17582 -19.14097 -19.14095 -19.12762
 Alpha  occ. eigenvalues --  -19.07091 -14.37294 -14.36641 -14.32449 -14.30973
 Alpha  occ. eigenvalues --  -10.33177 -10.31922 -10.28491 -10.26748 -10.26256
 Alpha  occ. eigenvalues --  -10.25363 -10.25312 -10.24865 -10.23834 -10.23592
 Alpha  occ. eigenvalues --  -10.23538 -10.22966 -10.22655 -10.21701 -10.21633
 Alpha  occ. eigenvalues --  -10.21586 -10.21427 -10.21335 -10.21322 -10.21279
 Alpha  occ. eigenvalues --  -10.21261 -10.20437 -10.20312 -10.20216 -10.20178
 Alpha  occ. eigenvalues --  -10.19986 -10.19834 -10.18382 -10.18336 -10.17246
 Alpha  occ. eigenvalues --  -10.17167 -10.16940 -10.16604  -1.09289  -1.09064
 Alpha  occ. eigenvalues --   -1.03454  -1.02088  -1.00607  -0.99547  -0.98371
 Alpha  occ. eigenvalues --   -0.97620  -0.92241  -0.91838  -0.84918  -0.82395
 Alpha  occ. eigenvalues --   -0.81195  -0.80689  -0.80104  -0.78760  -0.77927
 Alpha  occ. eigenvalues --   -0.76244  -0.75642  -0.75505  -0.74408  -0.72601
 Alpha  occ. eigenvalues --   -0.70987  -0.70042  -0.69642  -0.69575  -0.67651
 Alpha  occ. eigenvalues --   -0.67453  -0.65844  -0.63335  -0.61500  -0.61188
 Alpha  occ. eigenvalues --   -0.59610  -0.59146  -0.58575  -0.57586  -0.56356
 Alpha  occ. eigenvalues --   -0.55583  -0.55239  -0.55108  -0.53648  -0.52953
 Alpha  occ. eigenvalues --   -0.52393  -0.52309  -0.51072  -0.50478  -0.49505
 Alpha  occ. eigenvalues --   -0.49236  -0.49086  -0.48476  -0.48156  -0.47788
 Alpha  occ. eigenvalues --   -0.47535  -0.47125  -0.46653  -0.46061  -0.45705
 Alpha  occ. eigenvalues --   -0.45542  -0.44839  -0.44536  -0.44239  -0.44032
 Alpha  occ. eigenvalues --   -0.43921  -0.43213  -0.42789  -0.42290  -0.42055
 Alpha  occ. eigenvalues --   -0.41977  -0.41595  -0.41281  -0.41105  -0.40734
 Alpha  occ. eigenvalues --   -0.40525  -0.40049  -0.39695  -0.39561  -0.39505
 Alpha  occ. eigenvalues --   -0.39231  -0.39023  -0.38880  -0.38621  -0.38459
 Alpha  occ. eigenvalues --   -0.37876  -0.37834  -0.37451  -0.36992  -0.36637
 Alpha  occ. eigenvalues --   -0.36279  -0.35969  -0.35377  -0.35012  -0.34784
 Alpha  occ. eigenvalues --   -0.34457  -0.33518  -0.33039  -0.32644  -0.32183
 Alpha  occ. eigenvalues --   -0.31643  -0.29485  -0.29002  -0.28685  -0.28558
 Alpha  occ. eigenvalues --   -0.28341  -0.26326  -0.25574  -0.24046  -0.23941
 Alpha  occ. eigenvalues --   -0.23470  -0.22625  -0.21964  -0.20821  -0.18817
 Alpha virt. eigenvalues --   -0.13267  -0.08238  -0.05424  -0.02423  -0.00920
 Alpha virt. eigenvalues --    0.00755   0.01117   0.01485   0.02428   0.03189
 Alpha virt. eigenvalues --    0.03824   0.04328   0.04431   0.05068   0.05232

 Mulliken charges:
               1
     1  O   -0.308112
     2  O   -0.237026
     3  O   -0.162131
     4  O   -0.242865
     5  O   -0.209914
     6  O   -0.205221
     7  N    0.058443
     8  N   -0.111183
     9  N   -0.196511
    10  N   -0.367837
    11  C   -0.004872
    12  C    0.105092
    13  C   -0.126325
    14  C   -0.170759
    15  C   -0.099227
    16  C   -0.070588
    17  C   -0.133076
    18  C    0.125638
    19  C    0.004923
    20  C   -0.132952
    21  C    0.087261
    22  C    0.146444
    23  C   -0.022063
    24  C    0.132619
    25  C    0.009623
    26  C   -0.116255
    27  C   -0.035368
    28  C    0.191363
    29  C    0.115099
    30  C   -0.064519
    31  C   -0.001390
    32  C    0.015709
    33  C   -0.078125
    34  C    0.142883
    35  C    0.185671
    36  C    0.047059
    37  C    0.103957
    38  C    0.090777
    39  C   -0.196962
    40  C    0.192702
    41  C   -0.066891
    42  C    0.033831
    43  C    0.032930
    44  H    0.104874
    45  H    0.003668
    46  H    0.017822
    47  H    0.109924
    48  H    0.116277
    49  H    0.029439
    50  H    0.007396
    51  H    0.059846
    52  H    0.014470
    53  H   -0.043549
    54  H    0.035309
    55  H    0.021706
    56  H    0.053168
    57  H    0.052603
    58  H    0.035654
    59  H    0.035357
    60  H    0.245154
    61  H    0.006850
    62  H    0.013404
    63  H   -0.025759
    64  H    0.048307
    65  H    0.083104
    66  H    0.020376
    67  H    0.053024
    68  H    0.061869
    69  H   -0.095561
    70  H   -0.016425
    71  H   -0.006735
    72  H    0.164774
    73  H    0.001795
    74  H    0.062406
    75  H    0.046338
    76  H    0.023623
    77  H    0.185887
    78  H    0.039701
    79  H   -0.027948
 Sum of Mulliken charges =  -0.00000

 Dipole moment (field-independent basis, Debye):
    X=              3.3641    Y=              3.9739    Z=              0.1480  Tot=              5.2087
 Quadrupole moment (field-independent basis, Debye-Ang):
   XX=           -236.0000   YY=           -233.5222   ZZ=           -270.0057
   XY=              4.5473   XZ=            -22.6676   YZ=            -12.1671

 Normal termination of Gaussian 16 at Tue Jul 30 13:22:38 2019.
