 Gaussian 16, Revision A.03,
 Gaussian 16:  ES64L-G16RevA.03 25-Dec-2016

 --------------------------
 # td=(NStates=1) B3LYP/SVP
 --------------------------

 --
 TD
 --
 Symbolic Z-matrix:
 Charge =  0 Multiplicity = 1

                         Standard orientation:
 ---------------------------------------------------------------------
 Center     Atomic      Atomic             Coordinates (Angstroms)
 Number     Number       Type             X           Y           Z
 ---------------------------------------------------------------------
      1          8           0        5.429592   -0.042804   -3.226714
      2          8           0       -3.184592   -2.894673    3.081694
      3          8           0       -3.549359   -0.690504    2.927118
      4          8           0       -1.373916    6.959409    1.787724
      5          8           0       -0.358496    6.890696   -0.312581
      6          8           0       -1.788779   -3.878570   -0.061987
      7          7           0        2.272647    0.834425    0.690215
      8          7           0        4.372146   -0.647422   -1.258410
      9          7           0       -1.834403    0.747259   -0.506814
     10          7           0       -2.511492   -1.824812   -0.650202
     11          6           0        4.758996   -1.201354   -0.027600
     12          6           0        4.339001   -0.526126    1.278695
     13          6           0        2.898528   -0.187576    1.461608
     14          6           0        1.849330   -0.785628    2.122038
     15          6           0        0.643800   -0.088486    1.775223
     16          6           0        1.002030    0.834221    0.782965
     17          6           0        6.243542   -1.394575   -0.160385
     18          6           0       -0.630113   -0.173297    2.515313
     19          6           0        6.650615   -0.873740   -1.283491
     20          6           0        0.207467    1.912247    0.211923
     21          6           0       -1.064938    1.845732   -0.442121
     22          6           0        5.482697   -0.381954   -2.072904
     23          6           0       -1.821272    2.925607   -0.893838
     24          6           0        1.957256   -1.962748    3.135262
     25          6           0        7.113197   -2.055162    0.979233
     26          6           0       -2.962906    2.470410   -1.503394
     27          6           0       -1.271231   -1.631328    2.589989
     28          6           0       -3.063917    0.975967   -1.230925
     29          6           0       -1.370583    4.429944   -0.963634
     30          6           0        7.978115   -0.661096   -2.022040
     31          6           0       -1.530475    4.983952    0.510672
     32          6           0       -4.222642    3.159975   -2.066256
     33          6           0       -3.915081    0.081259   -1.472375
     34          6           0       -2.775350   -1.654978    2.931864
     35          6           0       -3.692346   -1.398467   -1.154780
     36          6           0        9.181055   -0.917805   -1.404209
     37          6           0       -1.011855    6.400789    0.578504
     38          6           0       -4.630430   -2.461489   -1.430382
     39          6           0       -3.849831   -3.583559   -1.149065
     40          6           0       -2.589740   -3.201161   -0.586167
     41          6           0       -5.879619   -2.284909   -1.970597
     42          6           0       -4.511429   -5.037276   -1.044146
     43          6           0       -6.755008   -3.307825   -2.503359
     44          1           0        4.475998   -2.224681    0.176691
     45          1           0        4.679917    0.424587    1.335963
     46          1           0        4.407974   -1.346032    2.183076
     47          1           0        2.746231    1.263424    0.000134
     48          1           0        3.471262   -0.897557   -1.518035
     49          1           0       -0.569867    0.343369    3.515134
     50          1           0       -1.503462    0.383193    1.868233
     51          1           0        0.419912    2.885819    0.242527
     52          1           0        3.015191   -2.483982    3.211411
     53          1           0        1.582874   -1.481896    4.188976
     54          1           0        1.051441   -2.776844    2.917895
     55          1           0        6.427973   -2.750193    1.597819
     56          1           0        7.863427   -1.313979    1.368452
     57          1           0        7.851063   -2.734297    0.196769
     58          1           0       -1.186079   -2.087943    1.758189
     59          1           0       -0.731672   -2.139819    3.439237
     60          1           0       -1.580872   -0.194452   -0.291451
     61          1           0       -2.015104    4.961155   -1.743804
     62          1           0       -0.414072    4.432881   -1.394340
     63          1           0        7.771806   -0.237459   -2.977941
     64          1           0       -0.876574    4.268468    1.128939
     65          1           0       -2.602156    4.963052    0.955059
     66          1           0       -4.062450    4.277667   -2.406355
     67          1           0       -5.001163    3.065203   -1.418623
     68          1           0       -4.490366    2.791246   -3.040324
     69          1           0       -4.774231    0.248299   -2.032266
     70          1           0        9.424939   -1.395222   -0.396759
     71          1           0        9.966382   -0.606773   -1.970361
     72          1           0       -4.155468   -2.763813    3.475447
     73          1           0       -6.288300   -1.199727   -1.939326
     74          1           0       -5.435348   -4.986326   -0.378704
     75          1           0       -4.242557   -5.557154   -1.951156
     76          1           0       -3.662582   -5.612205   -0.608739
     77          1           0       -1.447783    7.993599    1.627274
     78          1           0       -7.749693   -3.029426   -2.843008
     79          1           0       -6.395645   -4.494151   -2.711311
 ---------------------------------------------------------------------

 SCF Done:  E(RB3LYP) =  -1947.76852845     A.U. after   17 cycles

 Excitation energies and oscillator strengths:

 Excited State   1:      Singlet-A      1.6383 eV  756.78 nm  f=0.2548  <S**2>=0.000
     155 ->156         0.70258
     155 <-156        -0.10476
 This state for optimization and/or second-order correction.
 Total Energy, E(TD-HF/TD-DFT) =  -1947.70832149
 Copying the excited state density for this state as the 1-particle RhoCI density.

 The electronic state is 1-A.
 Alpha  occ. eigenvalues --  -19.18920 -19.18371 -19.13725 -19.11597 -19.11070
 Alpha  occ. eigenvalues --  -19.10603 -14.36290 -14.34702 -14.34495 -14.29392
 Alpha  occ. eigenvalues --  -10.32504 -10.30656 -10.28531 -10.26479 -10.24772
 Alpha  occ. eigenvalues --  -10.23513 -10.23487 -10.23316 -10.23198 -10.22718
 Alpha  occ. eigenvalues --  -10.22260 -10.22095 -10.21978 -10.21500 -10.21297
 Alpha  occ. eigenvalues --  -10.21253 -10.21238 -10.21164 -10.20956 -10.20617
 Alpha  occ. eigenvalues --  -10.20377 -10.20286 -10.20221 -10.20130 -10.19782
 Alpha  occ. eigenvalues --  -10.19686 -10.19618 -10.19200 -10.19115 -10.18791
 Alpha  occ. eigenvalues --  -10.18295 -10.17922 -10.17372  -1.08997  -1.08355
 Alpha  occ. eigenvalues --   -1.05158  -1.03497  -1.01015  -0.99758  -0.97966
 Alpha  occ. eigenvalues --   -0.97030  -0.95373  -0.93391  -0.81987  -0.81832
 Alpha  occ. eigenvalues --   -0.81133  -0.80785  -0.80602  -0.79854  -0.76813
 Alpha  occ. eigenvalues --   -0.76313  -0.75326  -0.74918  -0.74196  -0.72288
 Alpha  occ. eigenvalues --   -0.71036  -0.70001  -0.69779  -0.67927  -0.67496
 Alpha  occ. eigenvalues --   -0.66579  -0.66009  -0.64447  -0.61666  -0.61233
 Alpha  occ. eigenvalues --   -0.59731  -0.58588  -0.58443  -0.58375  -0.56569
 Alpha  occ. eigenvalues --   -0.55607  -0.54896  -0.54798  -0.54189  -0.53023
 Alpha  occ. eigenvalues --   -0.52309  -0.51819  -0.51540  -0.49943  -0.49022
 Alpha  occ. eigenvalues --   -0.48744  -0.48470  -0.48140  -0.47988  -0.47578
 Alpha  occ. eigenvalues --   -0.47060  -0.46917  -0.46701  -0.46141  -0.46103
 Alpha  occ. eigenvalues --   -0.45495  -0.45057  -0.44283  -0.44019  -0.43723
 Alpha  occ. eigenvalues --   -0.43110  -0.43062  -0.42886  -0.42795  -0.42470
 Alpha  occ. eigenvalues --   -0.42239  -0.42029  -0.41837  -0.41127  -0.40772
 Alpha  occ. eigenvalues --   -0.40520  -0.39876  -0.39354  -0.39287  -0.38890
 Alpha  occ. eigenvalues --   -0.38765  -0.38585  -0.38064  -0.38003  -0.37833
 Alpha  occ. eigenvalues --   -0.37753  -0.37479  -0.37377  -0.37053  -0.36219
 Alpha  occ. eigenvalues --   -0.36032  -0.35851  -0.35281  -0.35200  -0.34124
 Alpha  occ. eigenvalues --   -0.33294  -0.33266  -0.32603  -0.31602  -0.31064
 Alpha  occ. eigenvalues --   -0.30829  -0.30305  -0.28895  -0.28636  -0.28216
 Alpha  occ. eigenvalues --   -0.27089  -0.26506  -0.25951  -0.25580  -0.25023
 Alpha  occ. eigenvalues --   -0.24438  -0.23669  -0.22968  -0.22122  -0.18543
 Alpha virt. eigenvalues --   -0.11905  -0.06853  -0.04692  -0.02545  -0.01247
 Alpha virt. eigenvalues --    0.00601   0.01188   0.01780   0.02739   0.03290
 Alpha virt. eigenvalues --    0.03717   0.04405   0.04888   0.05290   0.05827

 Mulliken charges:
               1
     1  O   -0.204655
     2  O   -0.185707
     3  O   -0.265859
     4  O   -0.249815
     5  O   -0.207470
     6  O   -0.132955
     7  N    0.032311
     8  N   -0.148047
     9  N   -0.091999
    10  N   -0.262574
    11  C    0.095649
    12  C    0.248906
    13  C   -0.165762
    14  C   -0.092406
    15  C   -0.060060
    16  C    0.059440
    17  C   -0.200136
    18  C   -0.026107
    19  C   -0.099416
    20  C   -0.054889
    21  C    0.033587
    22  C    0.158412
    23  C   -0.125098
    24  C   -0.040885
    25  C   -0.000065
    26  C   -0.103346
    27  C    0.082856
    28  C    0.201739
    29  C    0.132227
    30  C    0.037676
    31  C   -0.063265
    32  C    0.108954
    33  C   -0.104198
    34  C    0.126599
    35  C    0.038009
    36  C   -0.005646
    37  C    0.169925
    38  C    0.101340
    39  C   -0.260504
    40  C    0.143641
    41  C   -0.107269
    42  C    0.125278
    43  C   -0.067556
    44  H   -0.011396
    45  H   -0.049880
    46  H    0.025384
    47  H    0.062333
    48  H    0.112299
    49  H    0.023878
    50  H    0.043009
    51  H   -0.078215
    52  H    0.034701
    53  H    0.042671
    54  H    0.069123
    55  H    0.050412
    56  H    0.066861
    57  H    0.061081
    58  H   -0.020133
    59  H    0.031744
    60  H    0.127728
    61  H    0.015938
    62  H    0.016921
    63  H    0.009446
    64  H    0.065138
    65  H    0.058729
    66  H    0.017894
    67  H    0.020438
    68  H    0.010973
    69  H   -0.059256
    70  H    0.039690
    71  H   -0.000402
    72  H    0.208840
    73  H    0.028856
    74  H    0.073623
    75  H    0.005955
    76  H   -0.006045
    77  H    0.217981
    78  H    0.032690
    79  H    0.080132
 Sum of Mulliken charges =  -0.00000

 Dipole moment (field-independent basis, Debye):
    X=             -2.3322    Y=              0.5872    Z=              2.2245  Tot=              3.2760
 Quadrupole moment (field-independent basis, Debye-Ang):
   XX=           -216.9263   YY=           -237.7933   ZZ=           -260.0756
   XY=            -11.8195   XZ=             29.1011   YZ=              1.9631

 Normal termination of Gaussian 16 at Sat Sep 21 15:22:24 2019.
