 Gaussian 16, Revision A.03,
 Gaussian 16:  ES64L-G16RevA.03 25-Dec-2016

 --------------------------
 # td=(NStates=1) B3LYP/SVP
 --------------------------

 --
 TD
 --
 Symbolic Z-matrix:
 Charge =  0 Multiplicity = 1

                         Standard orientation:
 ---------------------------------------------------------------------
 Center     Atomic      Atomic             Coordinates (Angstroms)
 Number     Number       Type             X           Y           Z
 ---------------------------------------------------------------------
      1          8           0       -3.274973   -1.256913   -2.901839
      2          8           0        3.146494    3.118456    2.880715
      3          8           0        3.682330    1.444120    4.302924
      4          8           0        7.586674   -1.657871   -0.550994
      5          8           0        6.663704   -3.164563   -1.900270
      6          8           0       -2.577910    1.560301    1.555556
      7          7           0       -0.300466   -2.364690    0.836852
      8          7           0       -2.743823   -1.212921   -0.678243
      9          7           0        1.071255    0.119643   -0.769230
     10          7           0       -0.868870    1.578853   -0.085653
     11          6           0       -3.375950   -1.336749    0.543833
     12          6           0       -2.661702   -2.248297    1.597976
     13          6           0       -1.271692   -1.980297    1.796128
     14          6           0       -0.526061   -1.256572    2.795922
     15          6           0        0.779913   -1.173260    2.422287
     16          6           0        0.907809   -1.814743    1.178431
     17          6           0       -4.655090   -1.953063    0.216274
     18          6           0        1.889495   -0.329876    3.055339
     19          6           0       -4.732065   -2.072289   -1.079861
     20          6           0        1.928742   -1.905146    0.198550
     21          6           0        2.030405   -0.847452   -0.666062
     22          6           0       -3.541670   -1.487716   -1.714858
     23          6           0        2.964203   -0.688439   -1.848950
     24          6           0       -1.155651   -0.673861    3.948603
     25          6           0       -5.688714   -2.211874    1.339049
     26          6           0        2.481670    0.368553   -2.483619
     27          6           0        1.910453    1.127963    2.534565
     28          6           0        1.317871    0.848765   -1.861095
     29          6           0        4.270202   -1.452196   -2.127762
     30          6           0       -5.820383   -2.574206   -1.935120
     31          6           0        5.367151   -1.134217   -1.149904
     32          6           0        3.074756    1.127023   -3.664460
     33          6           0        0.455569    1.955344   -2.075306
     34          6           0        3.026032    1.878975    3.370618
     35          6           0       -0.432832    2.423169   -1.076309
     36          6           0       -6.937463   -3.247122   -1.542698
     37          6           0        6.565121   -2.086225   -1.332126
     38          6           0       -1.288599    3.600247   -1.131254
     39          6           0       -2.202965    3.398575   -0.054767
     40          6           0       -1.983971    2.082611    0.597959
     41          6           0       -1.240702    4.726584   -2.065208
     42          6           0       -3.371438    4.344596    0.359356
     43          6           0       -1.956489    5.764722   -2.241589
     44          1           0       -3.646050   -0.262430    1.128460
     45          1           0       -2.715527   -3.263274    1.133051
     46          1           0       -3.241230   -2.184734    2.502223
     47          1           0       -0.519759   -2.457265   -0.063945
     48          1           0       -2.169831   -0.433164   -0.810167
     49          1           0        1.885299   -0.233036    4.200059
     50          1           0        2.836523   -0.822757    2.962793
     51          1           0        2.630510   -2.567032    0.700555
     52          1           0       -2.012824   -1.316229    4.360276
     53          1           0       -0.577574   -0.553730    4.880449
     54          1           0       -1.630428    0.377181    3.631275
     55          1           0       -5.385882   -1.589649    2.138386
     56          1           0       -5.797047   -3.319861    1.727591
     57          1           0       -6.716165   -1.983762    0.842595
     58          1           0        2.123427    1.170461    1.535992
     59          1           0        0.979581    1.292248    2.755396
     60          1           0        0.321458    0.310614   -0.133587
     61          1           0        4.461662   -1.433138   -3.092061
     62          1           0        4.073791   -2.468192   -2.120440
     63          1           0       -5.630908   -2.382036   -3.041008
     64          1           0        5.001528   -1.485166   -0.273248
     65          1           0        5.687683   -0.004750   -1.226029
     66          1           0        3.977433    0.360467   -4.086358
     67          1           0        3.494528    2.108289   -3.448245
     68          1           0        2.235070    1.243862   -4.327014
     69          1           0        0.666310    2.730203   -2.968254
     70          1           0       -7.331157   -3.269366   -0.585418
     71          1           0       -7.428035   -3.802232   -2.320574
     72          1           0        3.996330    3.512108    3.148638
     73          1           0       -0.462038    4.500698   -2.846373
     74          1           0       -4.099254    4.360846   -0.520580
     75          1           0       -4.016544    3.853961    1.109630
     76          1           0       -3.084238    5.375638    0.786573
     77          1           0        8.307482   -2.265421   -0.463353
     78          1           0       -1.955434    6.561988   -3.113834
     79          1           0       -2.931669    6.103051   -1.741940
 ---------------------------------------------------------------------

 SCF Done:  E(RB3LYP) =  -1947.84969846     A.U. after   19 cycles

 Excitation energies and oscillator strengths:

 Excited State   1:      Singlet-A      0.7037 eV 1761.98 nm  f=0.0040  <S**2>=0.000
     155 ->156         0.70505
 This state for optimization and/or second-order correction.
 Total Energy, E(TD-HF/TD-DFT) =  -1947.82383934
 Copying the excited state density for this state as the 1-particle RhoCI density.

 The electronic state is 1-A.
 Alpha  occ. eigenvalues --  -19.18675 -19.18543 -19.14166 -19.13049 -19.12716
 Alpha  occ. eigenvalues --  -19.08547 -14.37775 -14.35487 -14.33316 -14.30147
 Alpha  occ. eigenvalues --  -10.33916 -10.32399 -10.28489 -10.26856 -10.26537
 Alpha  occ. eigenvalues --  -10.26361 -10.25541 -10.23248 -10.23173 -10.22560
 Alpha  occ. eigenvalues --  -10.22488 -10.22311 -10.22180 -10.22110 -10.21850
 Alpha  occ. eigenvalues --  -10.21773 -10.21143 -10.20848 -10.20763 -10.20753
 Alpha  occ. eigenvalues --  -10.20410 -10.20195 -10.19711 -10.19577 -10.19169
 Alpha  occ. eigenvalues --  -10.19111 -10.18588 -10.18247 -10.17877 -10.17623
 Alpha  occ. eigenvalues --  -10.17563 -10.17063 -10.16555  -1.10563  -1.09753
 Alpha  occ. eigenvalues --   -1.02370  -1.01975  -1.01605  -1.01124  -1.00547
 Alpha  occ. eigenvalues --   -0.96808  -0.94649  -0.92950  -0.85421  -0.83333
 Alpha  occ. eigenvalues --   -0.81570  -0.81246  -0.80972  -0.80678  -0.79162
 Alpha  occ. eigenvalues --   -0.77049  -0.76916  -0.75195  -0.74212  -0.73373
 Alpha  occ. eigenvalues --   -0.71364  -0.71117  -0.70548  -0.69910  -0.67716
 Alpha  occ. eigenvalues --   -0.66861  -0.66306  -0.64108  -0.62966  -0.61113
 Alpha  occ. eigenvalues --   -0.60601  -0.60391  -0.59948  -0.59282  -0.57701
 Alpha  occ. eigenvalues --   -0.57198  -0.56399  -0.55509  -0.53877  -0.53265
 Alpha  occ. eigenvalues --   -0.52528  -0.51963  -0.51683  -0.51159  -0.50347
 Alpha  occ. eigenvalues --   -0.50103  -0.49290  -0.49026  -0.48710  -0.48453
 Alpha  occ. eigenvalues --   -0.48056  -0.47715  -0.47300  -0.46440  -0.46371
 Alpha  occ. eigenvalues --   -0.45522  -0.45313  -0.44664  -0.44503  -0.44196
 Alpha  occ. eigenvalues --   -0.43556  -0.43399  -0.42888  -0.42867  -0.42454
 Alpha  occ. eigenvalues --   -0.41903  -0.41774  -0.41699  -0.41270  -0.40881
 Alpha  occ. eigenvalues --   -0.40779  -0.40583  -0.40495  -0.39811  -0.39614
 Alpha  occ. eigenvalues --   -0.39200  -0.38652  -0.38543  -0.38306  -0.37945
 Alpha  occ. eigenvalues --   -0.37874  -0.37479  -0.37210  -0.36887  -0.36749
 Alpha  occ. eigenvalues --   -0.36401  -0.36053  -0.35964  -0.34810  -0.34063
 Alpha  occ. eigenvalues --   -0.33527  -0.33420  -0.33013  -0.32625  -0.32387
 Alpha  occ. eigenvalues --   -0.31950  -0.30260  -0.29757  -0.29622  -0.28786
 Alpha  occ. eigenvalues --   -0.28712  -0.28446  -0.25634  -0.25388  -0.24256
 Alpha  occ. eigenvalues --   -0.23737  -0.23714  -0.22594  -0.22485  -0.18365
 Alpha virt. eigenvalues --   -0.13363  -0.08029  -0.04144  -0.01501  -0.01070
 Alpha virt. eigenvalues --    0.00067   0.01171   0.02050   0.02374   0.02783
 Alpha virt. eigenvalues --    0.04142   0.04620   0.04735   0.05322   0.05494

 Mulliken charges:
               1
     1  O   -0.252889
     2  O   -0.171459
     3  O   -0.228306
     4  O   -0.182207
     5  O   -0.224443
     6  O   -0.224393
     7  N   -0.020767
     8  N   -0.075496
     9  N   -0.024183
    10  N   -0.370089
    11  C   -0.068818
    12  C    0.259273
    13  C   -0.100533
    14  C   -0.076467
    15  C   -0.046072
    16  C   -0.135525
    17  C   -0.162104
    18  C    0.035367
    19  C   -0.048350
    20  C   -0.074572
    21  C    0.098947
    22  C    0.099889
    23  C   -0.100222
    24  C    0.012354
    25  C    0.056278
    26  C   -0.117387
    27  C    0.110917
    28  C    0.102710
    29  C    0.226604
    30  C   -0.037990
    31  C    0.066969
    32  C    0.057116
    33  C   -0.112872
    34  C    0.141299
    35  C    0.105308
    36  C    0.000646
    37  C    0.120202
    38  C    0.037855
    39  C   -0.212758
    40  C    0.215971
    41  C    0.078908
    42  C    0.046256
    43  C   -0.129843
    44  H    0.088509
    45  H   -0.021410
    46  H   -0.030451
    47  H    0.069781
    48  H    0.111405
    49  H    0.016893
    50  H   -0.026657
    51  H    0.043029
    52  H    0.005056
    53  H    0.002967
    54  H    0.059119
    55  H    0.018581
    56  H    0.051054
    57  H    0.053797
    58  H    0.001728
    59  H   -0.000755
    60  H    0.166485
    61  H   -0.056071
    62  H   -0.018233
    63  H    0.021368
    64  H    0.012242
    65  H    0.069308
    66  H    0.045271
    67  H    0.043043
    68  H    0.038701
    69  H    0.026315
    70  H   -0.014049
    71  H    0.018651
    72  H    0.179384
    73  H   -0.008374
    74  H    0.042148
    75  H    0.015140
    76  H    0.056350
    77  H    0.174781
    78  H    0.039844
    79  H    0.029926
 Sum of Mulliken charges =  -0.00000

 Dipole moment (field-independent basis, Debye):
    X=              3.9008    Y=              3.2617    Z=             -0.9678  Tot=              5.1760
 Quadrupole moment (field-independent basis, Debye-Ang):
   XX=           -229.2755   YY=           -241.5441   ZZ=           -271.4468
   XY=              5.4306   XZ=            -19.0878   YZ=            -15.6826

 Normal termination of Gaussian 16 at Mon Jul 29 11:00:44 2019.
