 Gaussian 16, Revision A.03,
 Gaussian 16:  ES64L-G16RevA.03 25-Dec-2016

 --------------------------
 # td=(NStates=1) B3LYP/SVP
 --------------------------

 --
 TD
 --
 Symbolic Z-matrix:
 Charge =  0 Multiplicity = 1

                         Standard orientation:
 ---------------------------------------------------------------------
 Center     Atomic      Atomic             Coordinates (Angstroms)
 Number     Number       Type             X           Y           Z
 ---------------------------------------------------------------------
      1          8           0        5.201681   -0.200132   -3.280317
      2          8           0       -2.848203   -2.990768    3.283944
      3          8           0       -3.290355   -0.858632    2.816373
      4          8           0       -2.351150    7.248503    1.358769
      5          8           0       -0.882127    7.013908   -0.470994
      6          8           0       -1.483081   -3.933325    0.161158
      7          7           0        2.410303    1.150101    0.677565
      8          7           0        4.301658   -0.434417   -1.117191
      9          7           0       -1.730859    0.697360   -0.415576
     10          7           0       -2.463120   -1.936739   -0.436028
     11          6           0        4.787636   -1.103889    0.109225
     12          6           0        4.399007   -0.067329    1.288104
     13          6           0        2.934293    0.217195    1.353576
     14          6           0        2.033464   -0.474709    2.186286
     15          6           0        0.751379    0.095767    1.799766
     16          6           0        0.953151    1.072486    0.786166
     17          6           0        6.254612   -1.245670   -0.162224
     18          6           0       -0.565861   -0.157888    2.419340
     19          6           0        6.631495   -0.819139   -1.378999
     20          6           0        0.187356    2.009642    0.088167
     21          6           0       -1.111818    1.857360   -0.408953
     22          6           0        5.343141   -0.395232   -2.104875
     23          6           0       -2.052257    2.884480   -0.924888
     24          6           0        2.210100   -1.612075    3.115426
     25          6           0        7.222429   -1.697857    0.946126
     26          6           0       -3.203417    2.253973   -1.357415
     27          6           0       -1.029288   -1.614003    2.566964
     28          6           0       -2.972386    0.773318   -1.040271
     29          6           0       -1.734797    4.349675   -0.923827
     30          6           0        7.898400   -0.652136   -1.969195
     31          6           0       -1.980895    5.043349    0.401446
     32          6           0       -4.484937    2.766095   -1.967174
     33          6           0       -3.863693   -0.232966   -1.332927
     34          6           0       -2.549437   -1.781306    2.793939
     35          6           0       -3.532918   -1.548680   -1.105299
     36          6           0        9.138753   -0.578359   -1.561684
     37          6           0       -1.622591    6.518518    0.397324
     38          6           0       -4.377138   -2.835815   -1.461488
     39          6           0       -3.670505   -3.940588   -0.986945
     40          6           0       -2.363272   -3.400986   -0.389656
     41          6           0       -5.829834   -2.760444   -1.911434
     42          6           0       -4.016104   -5.360528   -0.951701
     43          6           0       -6.469848   -3.757562   -2.571726
     44          1           0        4.305467   -2.149789    0.309724
     45          1           0        5.104056    0.653467    1.022940
     46          1           0        4.698302   -0.460995    2.400700
     47          1           0        2.820792    1.605074   -0.124940
     48          1           0        3.334390   -0.688939   -1.597277
     49          1           0       -0.816347    0.126958    3.372015
     50          1           0       -1.312202    0.428724    1.872425
     51          1           0        0.645659    2.955231   -0.460395
     52          1           0        3.317871   -1.794048    3.493272
     53          1           0        1.475576   -1.348777    4.091144
     54          1           0        1.564451   -2.466260    2.589963
     55          1           0        6.504023   -2.300928    1.620818
     56          1           0        7.342580   -0.731922    1.381418
     57          1           0        8.263473   -1.918892    0.610338
     58          1           0       -0.961868   -2.172596    1.791396
     59          1           0       -0.231189   -2.048939    3.040546
     60          1           0       -1.374817   -0.292038   -0.166025
     61          1           0       -2.271967    4.897292   -1.794976
     62          1           0       -0.899258    4.522036   -1.190422
     63          1           0        7.846308   -0.426720   -3.146289
     64          1           0       -1.617701    4.201141    1.073389
     65          1           0       -3.069526    4.834175    0.718331
     66          1           0       -4.154471    3.745945   -2.411408
     67          1           0       -5.300044    2.611603   -1.104813
     68          1           0       -4.679326    2.213355   -2.867894
     69          1           0       -4.754700   -0.139840   -1.843761
     70          1           0        9.690313   -0.861090   -0.540897
     71          1           0        9.854994   -0.264579   -2.163776
     72          1           0       -3.724316   -3.036911    3.283858
     73          1           0       -6.244129   -1.578382   -1.735964
     74          1           0       -5.039697   -5.764046   -0.608800
     75          1           0       -3.952342   -5.594581   -2.119742
     76          1           0       -3.237332   -5.882862   -0.346142
     77          1           0       -1.840580    8.147709    0.976493
     78          1           0       -7.482260   -3.590912   -2.906836
     79          1           0       -6.089497   -4.827422   -2.878319
 ---------------------------------------------------------------------

 SCF Done:  E(RB3LYP) =  -1947.74370890     A.U. after   16 cycles

 Excitation energies and oscillator strengths:

 Excited State   1:      Singlet-A      2.0471 eV  605.65 nm  f=0.4651  <S**2>=0.000
     155 ->156         0.69916
     155 <-156        -0.12106
 This state for optimization and/or second-order correction.
 Total Energy, E(TD-HF/TD-DFT) =  -1947.66847901
 Copying the excited state density for this state as the 1-particle RhoCI density.

 The electronic state is 1-A.
 Alpha  occ. eigenvalues --  -19.20159 -19.16532 -19.15105 -19.11810 -19.11600
 Alpha  occ. eigenvalues --  -19.11557 -14.38291 -14.36680 -14.36383 -14.28207
 Alpha  occ. eigenvalues --  -10.34236 -10.30928 -10.29550 -10.27117 -10.26476
 Alpha  occ. eigenvalues --  -10.24376 -10.23494 -10.23430 -10.23179 -10.22821
 Alpha  occ. eigenvalues --  -10.22625 -10.22606 -10.22520 -10.22425 -10.21943
 Alpha  occ. eigenvalues --  -10.21746 -10.21701 -10.21122 -10.20892 -10.20839
 Alpha  occ. eigenvalues --  -10.20810 -10.20714 -10.20585 -10.20408 -10.20264
 Alpha  occ. eigenvalues --  -10.20144 -10.20007 -10.19608 -10.19357 -10.18888
 Alpha  occ. eigenvalues --  -10.17782 -10.17360 -10.15961  -1.10740  -1.08340
 Alpha  occ. eigenvalues --   -1.04823  -1.04133  -1.01414  -1.00206  -1.00189
 Alpha  occ. eigenvalues --   -0.98414  -0.93653  -0.90284  -0.82804  -0.82730
 Alpha  occ. eigenvalues --   -0.82274  -0.81171  -0.79602  -0.78940  -0.77810
 Alpha  occ. eigenvalues --   -0.77317  -0.76960  -0.75642  -0.74523  -0.72449
 Alpha  occ. eigenvalues --   -0.71798  -0.70995  -0.69122  -0.68213  -0.67962
 Alpha  occ. eigenvalues --   -0.67423  -0.66113  -0.63558  -0.61432  -0.61231
 Alpha  occ. eigenvalues --   -0.59891  -0.58101  -0.57664  -0.57236  -0.56901
 Alpha  occ. eigenvalues --   -0.56676  -0.56207  -0.55288  -0.53677  -0.53042
 Alpha  occ. eigenvalues --   -0.52778  -0.51578  -0.50950  -0.50652  -0.50348
 Alpha  occ. eigenvalues --   -0.49478  -0.49106  -0.47903  -0.47689  -0.47382
 Alpha  occ. eigenvalues --   -0.46949  -0.46829  -0.46558  -0.45995  -0.45615
 Alpha  occ. eigenvalues --   -0.45541  -0.44802  -0.44223  -0.43981  -0.43680
 Alpha  occ. eigenvalues --   -0.43603  -0.43390  -0.43259  -0.42960  -0.42686
 Alpha  occ. eigenvalues --   -0.42486  -0.42344  -0.41969  -0.41761  -0.41382
 Alpha  occ. eigenvalues --   -0.40914  -0.40523  -0.40328  -0.40066  -0.39744
 Alpha  occ. eigenvalues --   -0.39672  -0.39369  -0.39248  -0.39176  -0.38453
 Alpha  occ. eigenvalues --   -0.38308  -0.37970  -0.37754  -0.37253  -0.36742
 Alpha  occ. eigenvalues --   -0.36530  -0.35425  -0.35025  -0.34691  -0.34665
 Alpha  occ. eigenvalues --   -0.34135  -0.33229  -0.33094  -0.32128  -0.32011
 Alpha  occ. eigenvalues --   -0.31420  -0.30799  -0.30285  -0.29006  -0.28023
 Alpha  occ. eigenvalues --   -0.27213  -0.27031  -0.26372  -0.25861  -0.25207
 Alpha  occ. eigenvalues --   -0.24667  -0.23884  -0.23621  -0.21835  -0.17838
 Alpha virt. eigenvalues --   -0.09961  -0.06134  -0.05808  -0.03063  -0.00545
 Alpha virt. eigenvalues --    0.00220   0.01262   0.01908   0.02203   0.02489
 Alpha virt. eigenvalues --    0.03363   0.03663   0.04210   0.04516   0.04816

 Mulliken charges:
               1
     1  O   -0.184701
     2  O   -0.110053
     3  O   -0.200219
     4  O   -0.255328
     5  O   -0.257017
     6  O   -0.140060
     7  N    0.005287
     8  N   -0.288373
     9  N   -0.060663
    10  N   -0.335759
    11  C    0.043603
    12  C    0.158483
    13  C   -0.099873
    14  C   -0.125473
    15  C   -0.048706
    16  C    0.095948
    17  C   -0.230069
    18  C    0.101885
    19  C    0.010770
    20  C   -0.123156
    21  C    0.002870
    22  C    0.158871
    23  C   -0.143353
    24  C   -0.020031
    25  C    0.126628
    26  C   -0.176495
    27  C    0.108366
    28  C    0.154511
    29  C    0.253855
    30  C   -0.021737
    31  C   -0.046864
    32  C    0.127288
    33  C   -0.081969
    34  C    0.130100
    35  C    0.055379
    36  C   -0.059585
    37  C    0.253597
    38  C   -0.003411
    39  C   -0.192941
    40  C    0.161120
    41  C   -0.046202
    42  C    0.012850
    43  C   -0.059582
    44  H    0.050974
    45  H   -0.031499
    46  H    0.026015
    47  H    0.119978
    48  H    0.169574
    49  H   -0.016489
    50  H   -0.004819
    51  H    0.027484
    52  H    0.039988
    53  H    0.055519
    54  H    0.085066
    55  H    0.039297
    56  H    0.019851
    57  H    0.046027
    58  H   -0.061841
    59  H   -0.049425
    60  H    0.180253
    61  H   -0.000126
    62  H   -0.116781
    63  H    0.040825
    64  H    0.052318
    65  H    0.035127
    66  H    0.019285
    67  H    0.073141
    68  H    0.017457
    69  H   -0.074876
    70  H    0.022008
    71  H   -0.014699
    72  H    0.116000
    73  H    0.053532
    74  H    0.045541
    75  H    0.054161
    76  H    0.035160
    77  H    0.218532
    78  H    0.022862
    79  H    0.054784
 Sum of Mulliken charges =  -0.00000

 Dipole moment (field-independent basis, Debye):
    X=              1.2695    Y=              0.5763    Z=              1.5754  Tot=              2.1037
 Quadrupole moment (field-independent basis, Debye-Ang):
   XX=           -216.8524   YY=           -250.6575   ZZ=           -264.8960
   XY=             -0.3943   XZ=             29.2409   YZ=              1.0652

 Normal termination of Gaussian 16 at Thu Sep 19 06:37:38 2019.
