 Gaussian 16, Revision A.03,
 Gaussian 16:  ES64L-G16RevA.03 25-Dec-2016

 --------------------------
 # td=(NStates=1) B3LYP/SVP
 --------------------------

 --
 TD
 --
 Symbolic Z-matrix:
 Charge =  0 Multiplicity = 1

                         Standard orientation:
 ---------------------------------------------------------------------
 Center     Atomic      Atomic             Coordinates (Angstroms)
 Number     Number       Type             X           Y           Z
 ---------------------------------------------------------------------
      1          8           0        5.464485    0.146035   -3.099624
      2          8           0       -3.339368   -2.864701    2.939912
      3          8           0       -3.411730   -0.618143    3.080459
      4          8           0       -1.006837    7.089265    1.709622
      5          8           0        0.292455    6.800649   -0.087732
      6          8           0       -2.147893   -3.864424   -0.036056
      7          7           0        2.476275    0.685102    0.697140
      8          7           0        4.325755   -0.696855   -1.326570
      9          7           0       -1.761796    0.795087   -0.383203
     10          7           0       -2.797252   -1.659217   -0.580036
     11          6           0        4.642243   -1.567247   -0.087111
     12          6           0        4.258279   -0.805862    1.267107
     13          6           0        2.867513   -0.384106    1.347324
     14          6           0        1.821893   -1.037937    1.959300
     15          6           0        0.626207   -0.287833    1.718081
     16          6           0        1.001647    0.729517    0.852383
     17          6           0        6.139728   -1.742670   -0.294760
     18          6           0       -0.656599   -0.270541    2.467628
     19          6           0        6.658188   -1.116207   -1.370647
     20          6           0        0.436333    1.860369    0.223475
     21          6           0       -0.907882    1.882267   -0.291694
     22          6           0        5.453129   -0.447251   -2.056721
     23          6           0       -1.578676    3.040379   -0.917695
     24          6           0        1.862434   -2.231936    2.906647
     25          6           0        6.875330   -2.648123    0.746784
     26          6           0       -2.830691    2.613792   -1.299918
     27          6           0       -1.361241   -1.648912    2.472475
     28          6           0       -2.840743    1.139556   -1.098725
     29          6           0       -1.055626    4.468437   -0.945261
     30          6           0        8.010211   -0.889791   -1.973440
     31          6           0       -1.122013    5.024102    0.569532
     32          6           0       -3.920125    3.383041   -1.908002
     33          6           0       -3.954477    0.293391   -1.310928
     34          6           0       -2.861578   -1.648511    2.798319
     35          6           0       -3.889162   -1.147507   -1.152379
     36          6           0        9.223563   -1.075235   -1.267250
     37          6           0       -0.399375    6.383841    0.719114
     38          6           0       -4.982560   -2.130159   -1.439986
     39          6           0       -4.332245   -3.407622   -1.075707
     40          6           0       -3.048610   -3.090638   -0.524632
     41          6           0       -6.233304   -1.936506   -2.121257
     42          6           0       -4.872409   -4.710037   -1.188346
     43          6           0       -7.148033   -2.724338   -2.580536
     44          1           0        4.044454   -2.530279   -0.281367
     45          1           0        5.111084   -0.065877    1.428871
     46          1           0        4.598225   -1.646491    1.987352
     47          1           0        2.988543    0.925169   -0.062237
     48          1           0        3.435456   -0.684562   -1.802014
     49          1           0       -0.394404   -0.020512    3.474434
     50          1           0       -1.275132    0.586903    1.854695
     51          1           0        1.042217    2.911940    0.190616
     52          1           0        2.975328   -2.512356    3.261168
     53          1           0        1.187894   -2.110802    3.819736
     54          1           0        1.457759   -3.028066    2.304957
     55          1           0        6.173903   -3.336305    1.286088
     56          1           0        7.206635   -1.901472    1.633565
     57          1           0        7.758943   -3.133272    0.294331
     58          1           0       -1.400844   -2.314782    1.608533
     59          1           0       -0.901188   -2.361906    3.127350
     60          1           0       -1.687610   -0.337604   -0.341818
     61          1           0       -1.606813    5.010953   -1.597642
     62          1           0       -0.057747    4.475906   -1.238761
     63          1           0        7.854225   -0.434402   -2.869042
     64          1           0       -0.624318    4.435275    1.294356
     65          1           0       -2.119899    5.085652    1.102979
     66          1           0       -3.645139    4.412148   -1.846947
     67          1           0       -4.974869    3.249211   -1.449452
     68          1           0       -4.033290    3.024683   -2.856055
     69          1           0       -4.722619    0.685095   -1.921806
     70          1           0        9.176050   -1.301428   -0.254399
     71          1           0       10.261575   -0.866158   -1.764339
     72          1           0       -4.370231   -2.753496    3.024519
     73          1           0       -6.514234   -0.991990   -2.263748
     74          1           0       -5.918489   -4.919980   -0.527246
     75          1           0       -5.091147   -4.963804   -2.272060
     76          1           0       -4.062900   -5.452422   -0.743573
     77          1           0       -0.632686    8.121696    1.906038
     78          1           0       -7.899001   -1.975723   -3.132173
     79          1           0       -7.137594   -3.877541   -2.137916
 ---------------------------------------------------------------------

 SCF Done:  E(RB3LYP) =  -1947.84320998     A.U. after   18 cycles

 Excitation energies and oscillator strengths:

 Excited State   1:      Singlet-A      1.8113 eV  684.49 nm  f=0.3903  <S**2>=0.000
     154 ->156         0.15002
     155 ->156         0.69338
     155 <-156        -0.12848
 This state for optimization and/or second-order correction.
 Total Energy, E(TD-HF/TD-DFT) =  -1947.77664470
 Copying the excited state density for this state as the 1-particle RhoCI density.

 The electronic state is 1-A.
 Alpha  occ. eigenvalues --  -19.18293 -19.17776 -19.13161 -19.10306 -19.10091
 Alpha  occ. eigenvalues --  -19.10075 -14.36867 -14.36301 -14.35289 -14.29556
 Alpha  occ. eigenvalues --  -10.31577 -10.29622 -10.28335 -10.26706 -10.26536
 Alpha  occ. eigenvalues --  -10.24445 -10.23935 -10.23462 -10.23059 -10.22917
 Alpha  occ. eigenvalues --  -10.22867 -10.22756 -10.22725 -10.22530 -10.21430
 Alpha  occ. eigenvalues --  -10.21276 -10.21154 -10.21058 -10.20935 -10.20856
 Alpha  occ. eigenvalues --  -10.20856 -10.20841 -10.20524 -10.20490 -10.20400
 Alpha  occ. eigenvalues --  -10.20306 -10.19906 -10.19786 -10.19389 -10.19004
 Alpha  occ. eigenvalues --  -10.18875 -10.18811 -10.17601  -1.10461  -1.08620
 Alpha  occ. eigenvalues --   -1.03454  -1.01228  -0.99180  -0.99088  -0.98403
 Alpha  occ. eigenvalues --   -0.97841  -0.92853  -0.90800  -0.82555  -0.82336
 Alpha  occ. eigenvalues --   -0.81759  -0.81379  -0.80630  -0.79019  -0.77648
 Alpha  occ. eigenvalues --   -0.76929  -0.76048  -0.75494  -0.74131  -0.72184
 Alpha  occ. eigenvalues --   -0.71032  -0.70770  -0.69616  -0.68401  -0.68356
 Alpha  occ. eigenvalues --   -0.67432  -0.65661  -0.63416  -0.61740  -0.60407
 Alpha  occ. eigenvalues --   -0.59090  -0.58629  -0.58110  -0.57267  -0.56881
 Alpha  occ. eigenvalues --   -0.56096  -0.55627  -0.54940  -0.53914  -0.53339
 Alpha  occ. eigenvalues --   -0.51679  -0.51011  -0.50221  -0.49810  -0.49382
 Alpha  occ. eigenvalues --   -0.48502  -0.48121  -0.47940  -0.47872  -0.47054
 Alpha  occ. eigenvalues --   -0.46991  -0.46657  -0.46302  -0.46042  -0.45377
 Alpha  occ. eigenvalues --   -0.45017  -0.44987  -0.43778  -0.43501  -0.43438
 Alpha  occ. eigenvalues --   -0.43378  -0.42995  -0.42639  -0.42589  -0.42399
 Alpha  occ. eigenvalues --   -0.42103  -0.41470  -0.41216  -0.41036  -0.40956
 Alpha  occ. eigenvalues --   -0.40469  -0.40276  -0.39992  -0.39769  -0.39592
 Alpha  occ. eigenvalues --   -0.39185  -0.38770  -0.38695  -0.38542  -0.38326
 Alpha  occ. eigenvalues --   -0.38259  -0.38104  -0.37537  -0.37405  -0.37191
 Alpha  occ. eigenvalues --   -0.36447  -0.36213  -0.35918  -0.35512  -0.34372
 Alpha  occ. eigenvalues --   -0.34065  -0.33168  -0.32764  -0.32710  -0.31514
 Alpha  occ. eigenvalues --   -0.31028  -0.30602  -0.28909  -0.28636  -0.28227
 Alpha  occ. eigenvalues --   -0.26867  -0.25874  -0.25598  -0.25517  -0.25107
 Alpha  occ. eigenvalues --   -0.24244  -0.24140  -0.23478  -0.22036  -0.18536
 Alpha virt. eigenvalues --   -0.11493  -0.07221  -0.06309  -0.00525   0.00014
 Alpha virt. eigenvalues --    0.00301   0.01075   0.01769   0.02561   0.03247
 Alpha virt. eigenvalues --    0.03348   0.04079   0.04387   0.04497   0.04965

 Mulliken charges:
               1
     1  O   -0.209200
     2  O   -0.185845
     3  O   -0.229680
     4  O   -0.283563
     5  O   -0.143999
     6  O   -0.266484
     7  N   -0.030509
     8  N   -0.231481
     9  N   -0.113688
    10  N   -0.327695
    11  C    0.065317
    12  C    0.103612
    13  C   -0.039571
    14  C   -0.148298
    15  C   -0.057515
    16  C    0.070421
    17  C   -0.215212
    18  C    0.132785
    19  C   -0.052675
    20  C   -0.138525
    21  C    0.054616
    22  C    0.119242
    23  C   -0.132059
    24  C    0.057078
    25  C    0.033335
    26  C   -0.146680
    27  C   -0.018927
    28  C    0.053238
    29  C    0.262227
    30  C    0.064644
    31  C   -0.042986
    32  C    0.145339
    33  C   -0.045913
    34  C    0.107981
    35  C    0.075511
    36  C   -0.025127
    37  C    0.121972
    38  C    0.075177
    39  C   -0.141592
    40  C    0.194455
    41  C    0.005350
    42  C   -0.046740
    43  C   -0.090235
    44  H    0.047393
    45  H    0.018269
    46  H    0.007037
    47  H    0.079075
    48  H    0.132209
    49  H    0.011308
    50  H    0.063225
    51  H    0.054174
    52  H    0.023613
    53  H    0.039158
    54  H    0.037951
    55  H    0.033246
    56  H    0.047784
    57  H    0.051454
    58  H    0.033454
    59  H   -0.003039
    60  H    0.217309
    61  H   -0.023870
    62  H   -0.006410
    63  H   -0.024750
    64  H    0.014753
    65  H    0.040524
    66  H    0.006056
    67  H    0.032379
    68  H    0.005824
    69  H   -0.039870
    70  H    0.011039
    71  H    0.058901
    72  H    0.205631
    73  H   -0.059517
    74  H    0.055115
    75  H    0.052061
    76  H    0.053255
    77  H    0.236116
    78  H    0.053569
    79  H    0.057471
 Sum of Mulliken charges =  -0.00000

 Dipole moment (field-independent basis, Debye):
    X=              0.3363    Y=              1.6363    Z=              2.3813  Tot=              2.9088
 Quadrupole moment (field-independent basis, Debye-Ang):
   XX=           -222.3879   YY=           -239.2487   ZZ=           -261.5573
   XY=            -15.2610   XZ=             32.1872   YZ=              3.6682

 Normal termination of Gaussian 16 at Thu Sep 19 17:26:27 2019.
