 Gaussian 16, Revision A.03,
 Gaussian 16:  ES64L-G16RevA.03 25-Dec-2016

 --------------------------
 # td=(NStates=1) B3LYP/SVP
 --------------------------

 --
 TD
 --
 Symbolic Z-matrix:
 Charge =  0 Multiplicity = 1

                         Standard orientation:
 ---------------------------------------------------------------------
 Center     Atomic      Atomic             Coordinates (Angstroms)
 Number     Number       Type             X           Y           Z
 ---------------------------------------------------------------------
      1          8           0       -3.405377   -1.158119   -2.865572
      2          8           0        3.134077    2.814311    3.606014
      3          8           0        4.184918    0.965771    4.182506
      4          8           0        7.695995   -1.684578   -0.846476
      5          8           0        6.530577   -2.843879   -2.374907
      6          8           0       -2.750474    1.564732    1.479649
      7          7           0       -0.269913   -2.352572    0.725015
      8          7           0       -2.701894   -1.115022   -0.643647
      9          7           0        1.121652    0.168781   -0.789382
     10          7           0       -1.022184    1.484693   -0.147438
     11          6           0       -3.383600   -1.325351    0.602424
     12          6           0       -2.622086   -2.532854    1.460725
     13          6           0       -1.199417   -2.103648    1.623542
     14          6           0       -0.592694   -1.385421    2.712225
     15          6           0        0.719989   -1.252908    2.439189
     16          6           0        0.981665   -1.809935    1.120157
     17          6           0       -4.764630   -1.893176    0.255783
     18          6           0        1.839883   -0.555811    3.189613
     19          6           0       -4.812445   -1.964269   -1.119409
     20          6           0        2.099886   -1.881930    0.153024
     21          6           0        2.119218   -0.815238   -0.755630
     22          6           0       -3.635985   -1.301516   -1.713341
     23          6           0        2.965098   -0.485284   -1.870599
     24          6           0       -1.302265   -0.799595    3.952618
     25          6           0       -5.787860   -2.297647    1.217542
     26          6           0        2.633191    0.653838   -2.409502
     27          6           0        1.848217    0.920542    3.093544
     28          6           0        1.366035    1.091130   -1.832993
     29          6           0        4.232661   -1.414759   -2.193751
     30          6           0       -5.863929   -2.421228   -2.101531
     31          6           0        5.421845   -1.093527   -1.196667
     32          6           0        3.038343    1.334540   -3.710836
     33          6           0        0.596090    2.250837   -1.973735
     34          6           0        3.185033    1.546845    3.675413
     35          6           0       -0.585344    2.434941   -1.107773
     36          6           0       -6.796367   -3.327782   -1.851528
     37          6           0        6.545905   -1.950306   -1.510538
     38          6           0       -1.405021    3.625772   -1.062633
     39          6           0       -2.289994    3.476954   -0.075036
     40          6           0       -2.080007    2.111161    0.510852
     41          6           0       -1.204677    4.786933   -1.923728
     42          6           0       -3.466929    4.369352    0.501234
     43          6           0       -1.997275    5.853351   -1.962353
     44          1           0       -3.324896   -0.425812    1.347293
     45          1           0       -2.730620   -3.418427    0.987392
     46          1           0       -3.153818   -2.587687    2.560633
     47          1           0       -0.453249   -2.876318   -0.176942
     48          1           0       -1.856217   -0.476777   -0.630353
     49          1           0        1.728364   -0.948132    4.091575
     50          1           0        2.774848   -1.024213    2.797794
     51          1           0        2.752430   -2.661523   -0.008493
     52          1           0       -1.963664   -1.398408    4.467258
     53          1           0       -0.522948   -0.322712    4.575102
     54          1           0       -1.932162    0.020752    3.524983
     55          1           0       -5.800020   -1.584696    2.054136
     56          1           0       -5.500970   -3.276011    1.713882
     57          1           0       -6.897731   -2.583017    0.782526
     58          1           0        1.923662    1.152646    1.927100
     59          1           0        1.025034    1.411539    3.726372
     60          1           0        0.306713    0.536689   -0.107981
     61          1           0        4.582520   -1.230715   -3.164599
     62          1           0        3.838758   -2.378345   -2.345168
     63          1           0       -5.781792   -1.867729   -3.036137
     64          1           0        4.963947   -1.255254   -0.104925
     65          1           0        5.914047   -0.009897   -1.146239
     66          1           0        3.896362    0.617146   -4.047041
     67          1           0        3.705451    2.221021   -3.377825
     68          1           0        2.348163    1.427092   -4.435202
     69          1           0        0.804193    2.937511   -2.871981
     70          1           0       -7.006926   -3.923078   -0.963470
     71          1           0       -7.566839   -3.782749   -2.480769
     72          1           0        4.084852    3.092699    3.947845
     73          1           0       -0.361245    4.735573   -2.629630
     74          1           0       -4.214338    4.493922   -0.336697
     75          1           0       -3.910420    3.973540    1.477025
     76          1           0       -3.254931    5.544119    0.708212
     77          1           0        8.357893   -2.341731   -1.159790
     78          1           0       -1.652945    6.609610   -2.630027
     79          1           0       -2.948085    5.968218   -1.315224
 ---------------------------------------------------------------------

 SCF Done:  E(RB3LYP) =  -1947.88063045     A.U. after   22 cycles

 Excitation energies and oscillator strengths:

 Excited State   1:      Singlet-A      0.5876 eV 2109.88 nm  f=0.0014  <S**2>=0.000
     155 ->156         0.70364
 This state for optimization and/or second-order correction.
 Total Energy, E(TD-HF/TD-DFT) =  -1947.85903518
 Copying the excited state density for this state as the 1-particle RhoCI density.

 The electronic state is 1-A.
 Alpha  occ. eigenvalues --  -19.19781 -19.19217 -19.13155 -19.12478 -19.11399
 Alpha  occ. eigenvalues --  -19.08227 -14.37146 -14.36500 -14.32427 -14.32138
 Alpha  occ. eigenvalues --  -10.33053 -10.31584 -10.29092 -10.26875 -10.26402
 Alpha  occ. eigenvalues --  -10.26022 -10.25420 -10.24324 -10.22919 -10.22565
 Alpha  occ. eigenvalues --  -10.22282 -10.22207 -10.22150 -10.22149 -10.21957
 Alpha  occ. eigenvalues --  -10.21900 -10.21731 -10.21601 -10.21510 -10.21290
 Alpha  occ. eigenvalues --  -10.20723 -10.20325 -10.20278 -10.20208 -10.19845
 Alpha  occ. eigenvalues --  -10.19638 -10.18851 -10.17892 -10.17723 -10.17265
 Alpha  occ. eigenvalues --  -10.17128 -10.16906 -10.16158  -1.11850  -1.10091
 Alpha  occ. eigenvalues --   -1.01917  -0.99915  -0.99902  -0.98149  -0.97473
 Alpha  occ. eigenvalues --   -0.96476  -0.92864  -0.90689  -0.83304  -0.82164
 Alpha  occ. eigenvalues --   -0.81942  -0.80597  -0.79412  -0.79206  -0.77461
 Alpha  occ. eigenvalues --   -0.76037  -0.75706  -0.75294  -0.74024  -0.72849
 Alpha  occ. eigenvalues --   -0.70892  -0.69764  -0.69628  -0.69136  -0.67047
 Alpha  occ. eigenvalues --   -0.66833  -0.65385  -0.62673  -0.60955  -0.60292
 Alpha  occ. eigenvalues --   -0.59861  -0.59165  -0.59005  -0.57480  -0.56663
 Alpha  occ. eigenvalues --   -0.55621  -0.55437  -0.54774  -0.52837  -0.52485
 Alpha  occ. eigenvalues --   -0.51862  -0.51560  -0.50426  -0.49743  -0.49291
 Alpha  occ. eigenvalues --   -0.49128  -0.48816  -0.48622  -0.48238  -0.47898
 Alpha  occ. eigenvalues --   -0.47800  -0.47061  -0.46785  -0.45674  -0.45537
 Alpha  occ. eigenvalues --   -0.45180  -0.44566  -0.44170  -0.43941  -0.43812
 Alpha  occ. eigenvalues --   -0.43244  -0.42766  -0.42572  -0.42416  -0.42254
 Alpha  occ. eigenvalues --   -0.41854  -0.41587  -0.41289  -0.41136  -0.40981
 Alpha  occ. eigenvalues --   -0.40463  -0.40089  -0.39856  -0.39555  -0.39438
 Alpha  occ. eigenvalues --   -0.39372  -0.38908  -0.38727  -0.38167  -0.38076
 Alpha  occ. eigenvalues --   -0.37781  -0.36769  -0.36417  -0.36289  -0.36165
 Alpha  occ. eigenvalues --   -0.35944  -0.35818  -0.35526  -0.35292  -0.34614
 Alpha  occ. eigenvalues --   -0.33457  -0.33058  -0.32671  -0.32120  -0.31376
 Alpha  occ. eigenvalues --   -0.30978  -0.29971  -0.29292  -0.28947  -0.28878
 Alpha  occ. eigenvalues --   -0.27961  -0.26916  -0.26227  -0.24720  -0.24109
 Alpha  occ. eigenvalues --   -0.23803  -0.23287  -0.22543  -0.22291  -0.18013
 Alpha virt. eigenvalues --   -0.13329  -0.07800  -0.03404  -0.02222  -0.02062
 Alpha virt. eigenvalues --    0.00826   0.02443   0.02610   0.02929   0.03351
 Alpha virt. eigenvalues --    0.03601   0.03959   0.04852   0.04998   0.05221

 Mulliken charges:
               1
     1  O   -0.196636
     2  O   -0.135066
     3  O   -0.300113
     4  O   -0.188176
     5  O   -0.265840
     6  O   -0.271252
     7  N   -0.047094
     8  N   -0.255606
     9  N   -0.198752
    10  N   -0.349587
    11  C   -0.006708
    12  C    0.201765
    13  C   -0.128870
    14  C   -0.141283
    15  C   -0.135124
    16  C   -0.000411
    17  C   -0.103495
    18  C    0.190978
    19  C   -0.106085
    20  C   -0.056185
    21  C    0.095290
    22  C    0.150508
    23  C   -0.081781
    24  C    0.133447
    25  C    0.037529
    26  C   -0.147643
    27  C   -0.017459
    28  C    0.099750
    29  C    0.185325
    30  C    0.069959
    31  C   -0.071495
    32  C    0.117972
    33  C   -0.101413
    34  C    0.105492
    35  C    0.107442
    36  C   -0.061984
    37  C    0.161631
    38  C    0.070459
    39  C   -0.162578
    40  C    0.213573
    41  C   -0.030477
    42  C    0.001250
    43  C    0.002646
    44  H    0.081246
    45  H   -0.060645
    46  H    0.016644
    47  H    0.134790
    48  H    0.154897
    49  H   -0.036694
    50  H   -0.006313
    51  H   -0.025601
    52  H   -0.011829
    53  H   -0.006942
    54  H    0.029471
    55  H    0.024627
    56  H    0.031551
    57  H    0.052052
    58  H    0.056211
    59  H    0.060318
    60  H    0.240892
    61  H   -0.018176
    62  H    0.016918
    63  H    0.012719
    64  H    0.084067
    65  H    0.073558
    66  H    0.012192
    67  H    0.036455
    68  H    0.030430
    69  H    0.029684
    70  H   -0.001563
    71  H    0.007792
    72  H    0.208019
    73  H   -0.012002
    74  H    0.050829
    75  H    0.061458
    76  H    0.045792
    77  H    0.194006
    78  H    0.015845
    79  H    0.033400
 Sum of Mulliken charges =  -0.00000

 Dipole moment (field-independent basis, Debye):
    X=              3.1609    Y=              3.8449    Z=             -0.9815  Tot=              5.0733
 Quadrupole moment (field-independent basis, Debye-Ang):
   XX=           -241.5750   YY=           -229.9113   ZZ=           -266.6384
   XY=              7.2271   XZ=            -22.6365   YZ=            -11.7182

 Normal termination of Gaussian 16 at Thu Jul 25 01:40:55 2019.
