 Gaussian 16, Revision A.03,
 Gaussian 16:  ES64L-G16RevA.03 25-Dec-2016

 --------------------------
 # td=(NStates=1) B3LYP/SVP
 --------------------------

 --
 TD
 --
 Symbolic Z-matrix:
 Charge =  0 Multiplicity = 1

                         Standard orientation:
 ---------------------------------------------------------------------
 Center     Atomic      Atomic             Coordinates (Angstroms)
 Number     Number       Type             X           Y           Z
 ---------------------------------------------------------------------
      1          8           0       -3.354215   -1.583922   -2.806773
      2          8           0        3.150366    3.247846    2.894614
      3          8           0        3.646141    1.639425    4.465008
      4          8           0        7.688717   -1.699281   -0.608914
      5          8           0        6.682638   -3.142329   -1.978051
      6          8           0       -2.770898    1.758487    1.148629
      7          7           0       -0.333680   -2.325120    1.019072
      8          7           0       -2.700080   -1.213609   -0.711735
      9          7           0        1.134935   -0.083863   -0.783109
     10          7           0       -0.903108    1.375418   -0.260296
     11          6           0       -3.364694   -1.296806    0.588277
     12          6           0       -2.709519   -2.165231    1.681287
     13          6           0       -1.289459   -1.800050    1.843572
     14          6           0       -0.690792   -0.992077    2.861138
     15          6           0        0.730139   -0.939776    2.581359
     16          6           0        0.956312   -1.722517    1.423816
     17          6           0       -4.811721   -1.821930    0.340299
     18          6           0        1.845781   -0.241888    3.195824
     19          6           0       -4.834297   -1.993584   -0.990594
     20          6           0        2.155242   -1.867116    0.529715
     21          6           0        2.037061   -1.003288   -0.625680
     22          6           0       -3.652497   -1.638931   -1.683664
     23          6           0        3.104751   -0.791794   -1.660179
     24          6           0       -1.330454   -0.315044    3.946716
     25          6           0       -5.859215   -1.843420    1.367666
     26          6           0        2.583764    0.259850   -2.398536
     27          6           0        1.983406    1.193161    2.707595
     28          6           0        1.354250    0.858761   -1.861041
     29          6           0        4.255089   -1.782893   -1.902484
     30          6           0       -6.097914   -2.586770   -1.815741
     31          6           0        5.436929   -1.279073   -1.059117
     32          6           0        3.247625    0.885966   -3.679637
     33          6           0        0.617495    1.939163   -2.174582
     34          6           0        3.082132    2.009891    3.474797
     35          6           0       -0.506789    2.262774   -1.334801
     36          6           0       -7.041600   -3.369470   -1.304029
     37          6           0        6.649192   -2.164201   -1.263246
     38          6           0       -1.268988    3.423738   -1.367453
     39          6           0       -2.198384    3.423148   -0.338673
     40          6           0       -1.971582    2.091538    0.224304
     41          6           0       -1.131245    4.481144   -2.508062
     42          6           0       -3.231552    4.409234    0.067135
     43          6           0       -1.793887    5.585338   -2.579256
     44          1           0       -3.643138   -0.203933    1.014333
     45          1           0       -2.589309   -3.132226    1.199782
     46          1           0       -3.287744   -1.968525    2.682636
     47          1           0       -0.583316   -2.816048    0.173595
     48          1           0       -2.101014   -0.444747   -0.783967
     49          1           0        1.722040   -0.195964    4.373686
     50          1           0        2.778249   -0.858778    3.016107
     51          1           0        2.674094   -2.786894    0.320294
     52          1           0       -2.155648   -1.004301    4.255941
     53          1           0       -0.648728    0.102014    4.906183
     54          1           0       -2.174672    0.543791    3.745688
     55          1           0       -5.858557   -1.095021    2.075828
     56          1           0       -5.766112   -2.731667    2.061421
     57          1           0       -6.853742   -1.811439    0.996802
     58          1           0        2.234239    1.071526    1.613977
     59          1           0        1.035882    1.872415    2.733774
     60          1           0        0.157547    0.329899   -0.153802
     61          1           0        4.304405   -1.679578   -3.083719
     62          1           0        3.945963   -2.628982   -1.727892
     63          1           0       -6.140574   -2.283809   -2.775830
     64          1           0        5.310106   -1.372719    0.133662
     65          1           0        5.806148   -0.317520   -1.459975
     66          1           0        3.918727    0.108207   -3.756442
     67          1           0        3.747308    1.856595   -3.478886
     68          1           0        2.608069    1.080867   -4.670373
     69          1           0        0.864076    2.586208   -2.831341
     70          1           0       -7.088642   -3.760454   -0.311373
     71          1           0       -7.882057   -3.619994   -2.092945
     72          1           0        3.890810    3.736112    3.245671
     73          1           0       -0.302267    4.261434   -3.031370
     74          1           0       -3.905589    4.441125   -0.808070
     75          1           0       -3.823879    4.124091    0.944309
     76          1           0       -2.790554    5.420558    0.182794
     77          1           0        8.471263   -2.227898   -0.983164
     78          1           0       -1.543682    6.134504   -3.382964
     79          1           0       -2.585639    5.992470   -1.828355
 ---------------------------------------------------------------------

 SCF Done:  E(RB3LYP) =  -1947.77820861     A.U. after   22 cycles

 Excitation energies and oscillator strengths:

 Excited State   1:      Singlet-A      0.5040 eV 2459.90 nm  f=0.0033  <S**2>=0.000
     155 ->156         0.70501
 This state for optimization and/or second-order correction.
 Total Energy, E(TD-HF/TD-DFT) =  -1947.75968615
 Copying the excited state density for this state as the 1-particle RhoCI density.

 The electronic state is 1-A.
 Alpha  occ. eigenvalues --  -19.19887 -19.17694 -19.12965 -19.12829 -19.11700
 Alpha  occ. eigenvalues --  -19.08380 -14.35801 -14.35320 -14.32894 -14.31163
 Alpha  occ. eigenvalues --  -10.32273 -10.31684 -10.28311 -10.26306 -10.26092
 Alpha  occ. eigenvalues --  -10.26073 -10.24561 -10.23048 -10.22206 -10.22185
 Alpha  occ. eigenvalues --  -10.22136 -10.21834 -10.21700 -10.21605 -10.21412
 Alpha  occ. eigenvalues --  -10.20995 -10.20918 -10.20896 -10.20878 -10.20636
 Alpha  occ. eigenvalues --  -10.20603 -10.20166 -10.19984 -10.19886 -10.19682
 Alpha  occ. eigenvalues --  -10.19058 -10.18942 -10.18749 -10.18736 -10.18616
 Alpha  occ. eigenvalues --  -10.18575 -10.16856 -10.16350  -1.11650  -1.08770
 Alpha  occ. eigenvalues --   -1.03643  -1.01435  -1.01274  -1.01124  -0.97858
 Alpha  occ. eigenvalues --   -0.93930  -0.93524  -0.91067  -0.83024  -0.82477
 Alpha  occ. eigenvalues --   -0.82339  -0.80310  -0.79975  -0.78640  -0.77742
 Alpha  occ. eigenvalues --   -0.77522  -0.75725  -0.75199  -0.74376  -0.72937
 Alpha  occ. eigenvalues --   -0.71961  -0.71677  -0.69693  -0.68647  -0.67445
 Alpha  occ. eigenvalues --   -0.65795  -0.64912  -0.63046  -0.61161  -0.60429
 Alpha  occ. eigenvalues --   -0.60154  -0.58673  -0.58029  -0.57606  -0.56967
 Alpha  occ. eigenvalues --   -0.55647  -0.54425  -0.53856  -0.53033  -0.52602
 Alpha  occ. eigenvalues --   -0.51815  -0.51540  -0.50333  -0.49735  -0.49557
 Alpha  occ. eigenvalues --   -0.49201  -0.49024  -0.48613  -0.47931  -0.47806
 Alpha  occ. eigenvalues --   -0.47219  -0.46794  -0.46376  -0.46049  -0.45688
 Alpha  occ. eigenvalues --   -0.45431  -0.44981  -0.44742  -0.44228  -0.43981
 Alpha  occ. eigenvalues --   -0.43514  -0.43214  -0.42859  -0.42402  -0.42070
 Alpha  occ. eigenvalues --   -0.42009  -0.41676  -0.41583  -0.41296  -0.41074
 Alpha  occ. eigenvalues --   -0.40716  -0.40579  -0.40442  -0.40125  -0.40068
 Alpha  occ. eigenvalues --   -0.39636  -0.39486  -0.39154  -0.38641  -0.38098
 Alpha  occ. eigenvalues --   -0.37839  -0.37364  -0.36702  -0.36204  -0.36117
 Alpha  occ. eigenvalues --   -0.35655  -0.35448  -0.35092  -0.34421  -0.33813
 Alpha  occ. eigenvalues --   -0.33284  -0.33143  -0.32645  -0.32153  -0.31311
 Alpha  occ. eigenvalues --   -0.30202  -0.29992  -0.29299  -0.28715  -0.28605
 Alpha  occ. eigenvalues --   -0.27853  -0.26186  -0.25616  -0.24949  -0.24343
 Alpha  occ. eigenvalues --   -0.24057  -0.23441  -0.22124  -0.21886  -0.17850
 Alpha virt. eigenvalues --   -0.13597  -0.07567  -0.03485  -0.01626   0.00276
 Alpha virt. eigenvalues --    0.00842   0.02024   0.02195   0.02652   0.03608
 Alpha virt. eigenvalues --    0.04057   0.04295   0.04995   0.05370   0.05596

 Mulliken charges:
               1
     1  O   -0.154195
     2  O   -0.191883
     3  O   -0.199149
     4  O   -0.173032
     5  O   -0.234259
     6  O   -0.252283
     7  N   -0.108647
     8  N   -0.207101
     9  N   -0.204499
    10  N   -0.345152
    11  C   -0.067566
    12  C    0.267259
    13  C   -0.111928
    14  C   -0.040587
    15  C   -0.079965
    16  C   -0.008068
    17  C   -0.132481
    18  C    0.076380
    19  C   -0.108299
    20  C    0.000475
    21  C    0.010793
    22  C    0.127658
    23  C   -0.134521
    24  C   -0.030729
    25  C    0.143311
    26  C   -0.152626
    27  C   -0.067256
    28  C    0.206484
    29  C    0.232787
    30  C    0.054798
    31  C   -0.014508
    32  C    0.080772
    33  C    0.007449
    34  C    0.151598
    35  C    0.112816
    36  C   -0.035811
    37  C    0.095987
    38  C   -0.031431
    39  C   -0.168054
    40  C    0.182450
    41  C    0.076756
    42  C    0.102082
    43  C    0.024863
    44  H    0.073641
    45  H   -0.040639
    46  H    0.009197
    47  H    0.113667
    48  H    0.113666
    49  H    0.017565
    50  H    0.012850
    51  H    0.001279
    52  H   -0.011220
    53  H    0.041799
    54  H    0.026444
    55  H   -0.008625
    56  H    0.026661
    57  H    0.011788
    58  H    0.036548
    59  H    0.063857
    60  H    0.290615
    61  H    0.050017
    62  H   -0.082391
    63  H   -0.033472
    64  H    0.086106
    65  H    0.045959
    66  H   -0.024484
    67  H    0.032188
    68  H    0.050857
    69  H   -0.122938
    70  H    0.010850
    71  H    0.035885
    72  H    0.165707
    73  H   -0.052890
    74  H    0.042968
    75  H    0.036087
    76  H    0.045797
    77  H    0.201619
    78  H   -0.008990
    79  H    0.041345
 Sum of Mulliken charges =  -0.00000

 Dipole moment (field-independent basis, Debye):
    X=              2.2609    Y=              4.8684    Z=             -1.7929  Tot=              5.6592
 Quadrupole moment (field-independent basis, Debye-Ang):
   XX=           -223.7895   YY=           -233.7497   ZZ=           -271.6938
   XY=              2.7242   XZ=            -22.3536   YZ=            -16.3936

 Normal termination of Gaussian 16 at Fri Jul 26 21:58:30 2019.
