 Gaussian 16, Revision A.03,
 Gaussian 16:  ES64L-G16RevA.03 25-Dec-2016

 --------------------------
 # td=(NStates=1) B3LYP/SVP
 --------------------------

 --
 TD
 --
 Symbolic Z-matrix:
 Charge =  0 Multiplicity = 1

                         Standard orientation:
 ---------------------------------------------------------------------
 Center     Atomic      Atomic             Coordinates (Angstroms)
 Number     Number       Type             X           Y           Z
 ---------------------------------------------------------------------
      1          8           0       -3.263967   -0.975824   -2.929185
      2          8           0        2.774137    2.752979    3.617603
      3          8           0        3.877889    0.872116    4.436681
      4          8           0        7.688338   -1.201118   -1.171474
      5          8           0        6.464316   -3.066959   -2.048229
      6          8           0       -2.554889    1.685488    1.610086
      7          7           0       -0.389495   -2.481386    0.680601
      8          7           0       -2.659442   -1.115791   -0.662015
      9          7           0        1.140281    0.141181   -0.675064
     10          7           0       -0.965945    1.534116   -0.045509
     11          6           0       -3.351327   -1.269255    0.513949
     12          6           0       -2.694709   -2.405031    1.452247
     13          6           0       -1.285226   -2.201967    1.651148
     14          6           0       -0.569844   -1.516246    2.712957
     15          6           0        0.794442   -1.408509    2.393696
     16          6           0        0.849244   -2.034185    1.077508
     17          6           0       -4.713475   -1.849410    0.090182
     18          6           0        1.870740   -0.850590    3.140083
     19          6           0       -4.831262   -1.881380   -1.342196
     20          6           0        2.040666   -1.972172    0.060261
     21          6           0        2.137101   -0.855704   -0.668610
     22          6           0       -3.592454   -1.364834   -1.790476
     23          6           0        3.021950   -0.569887   -1.873612
     24          6           0       -1.233228   -0.916588    3.907132
     25          6           0       -5.752385   -2.327630    1.069876
     26          6           0        2.534007    0.597855   -2.466485
     27          6           0        1.905639    0.750509    3.021078
     28          6           0        1.412254    1.030325   -1.716582
     29          6           0        4.096176   -1.372697   -2.117209
     30          6           0       -5.926991   -2.299712   -2.166737
     31          6           0        5.406475   -0.915732   -1.286702
     32          6           0        3.224188    1.352528   -3.583579
     33          6           0        0.572722    2.205651   -1.854835
     34          6           0        2.954577    1.424004    3.798266
     35          6           0       -0.517974    2.429969   -1.028167
     36          6           0       -6.861806   -3.161041   -2.022931
     37          6           0        6.613018   -1.884084   -1.690532
     38          6           0       -1.307245    3.739124   -0.955430
     39          6           0       -2.251602    3.561367    0.001670
     40          6           0       -2.020879    2.095558    0.614288
     41          6           0       -1.081446    4.773054   -1.808255
     42          6           0       -3.242877    4.401303    0.629820
     43          6           0       -1.942204    5.890890   -2.057244
     44          1           0       -3.571609   -0.408541    1.109489
     45          1           0       -2.880112   -3.531173    0.953488
     46          1           0       -3.042818   -2.207886    2.499042
     47          1           0       -0.530692   -2.891860   -0.189353
     48          1           0       -1.960042   -0.451525   -0.720370
     49          1           0        1.815046   -1.024586    4.190284
     50          1           0        2.817685   -1.263937    2.744569
     51          1           0        2.831919   -2.802619   -0.138134
     52          1           0       -2.213182   -1.557050    4.295779
     53          1           0       -0.495972   -0.726886    4.649310
     54          1           0       -1.770957   -0.023822    3.449099
     55          1           0       -5.710518   -1.612987    1.944045
     56          1           0       -5.458162   -3.478272    1.459484
     57          1           0       -6.855045   -2.249323    0.825189
     58          1           0        1.905682    1.152076    1.861240
     59          1           0        0.953381    1.220792    3.631391
     60          1           0        0.426742    0.405099   -0.048372
     61          1           0        4.498384   -1.218114   -3.135441
     62          1           0        3.887735   -2.349355   -2.117880
     63          1           0       -5.631853   -1.728090   -3.118212
     64          1           0        5.336859   -1.016402   -0.121157
     65          1           0        5.428926    0.253026   -1.392918
     66          1           0        4.001529    0.578092   -4.417344
     67          1           0        3.569013    2.311483   -3.127602
     68          1           0        2.486817    1.641291   -4.403855
     69          1           0        0.828688    2.912683   -2.563024
     70          1           0       -7.069392   -3.714269   -1.206501
     71          1           0       -7.416527   -3.432385   -2.914938
     72          1           0        3.605044    3.260538    3.894313
     73          1           0       -0.185524    4.951418   -2.427935
     74          1           0       -4.147720    4.834796   -0.081114
     75          1           0       -3.719659    3.956606    1.524519
     76          1           0       -2.718747    5.457948    1.010960
     77          1           0        8.210663   -2.124450   -1.158370
     78          1           0       -1.567022    6.478031   -2.793405
     79          1           0       -2.960526    6.146456   -1.403703
 ---------------------------------------------------------------------

 SCF Done:  E(RB3LYP) =  -1947.78431956     A.U. after   16 cycles

 Excitation energies and oscillator strengths:

 Excited State   1:      Singlet-A      1.0388 eV 1193.50 nm  f=0.0030  <S**2>=0.000
     155 ->156         0.70442
 This state for optimization and/or second-order correction.
 Total Energy, E(TD-HF/TD-DFT) =  -1947.74614318
 Copying the excited state density for this state as the 1-particle RhoCI density.

 The electronic state is 1-A.
 Alpha  occ. eigenvalues --  -19.22298 -19.18484 -19.17175 -19.12255 -19.11290
 Alpha  occ. eigenvalues --  -19.08354 -14.36988 -14.36903 -14.31684 -14.30123
 Alpha  occ. eigenvalues --  -10.35986 -10.31766 -10.27307 -10.27132 -10.26980
 Alpha  occ. eigenvalues --  -10.25321 -10.24905 -10.24718 -10.24483 -10.23364
 Alpha  occ. eigenvalues --  -10.23231 -10.22985 -10.21877 -10.21863 -10.21722
 Alpha  occ. eigenvalues --  -10.21694 -10.21477 -10.21069 -10.20727 -10.20689
 Alpha  occ. eigenvalues --  -10.20613 -10.20290 -10.20266 -10.20200 -10.20016
 Alpha  occ. eigenvalues --  -10.19586 -10.18992 -10.18985 -10.18674 -10.18363
 Alpha  occ. eigenvalues --  -10.17363 -10.17108 -10.16870  -1.11178  -1.08083
 Alpha  occ. eigenvalues --   -1.03125  -1.03026  -0.99271  -0.98750  -0.98741
 Alpha  occ. eigenvalues --   -0.97118  -0.91814  -0.91459  -0.85295  -0.82163
 Alpha  occ. eigenvalues --   -0.81310  -0.81028  -0.80762  -0.78275  -0.77711
 Alpha  occ. eigenvalues --   -0.76362  -0.75868  -0.75020  -0.74382  -0.72434
 Alpha  occ. eigenvalues --   -0.71356  -0.70055  -0.69745  -0.69505  -0.67728
 Alpha  occ. eigenvalues --   -0.66660  -0.65048  -0.62506  -0.60826  -0.60529
 Alpha  occ. eigenvalues --   -0.59416  -0.58909  -0.58563  -0.57880  -0.56611
 Alpha  occ. eigenvalues --   -0.55689  -0.55214  -0.53856  -0.52980  -0.52743
 Alpha  occ. eigenvalues --   -0.52109  -0.51634  -0.51349  -0.51083  -0.50337
 Alpha  occ. eigenvalues --   -0.50000  -0.48836  -0.48134  -0.48032  -0.47722
 Alpha  occ. eigenvalues --   -0.47117  -0.46740  -0.46696  -0.46376  -0.45825
 Alpha  occ. eigenvalues --   -0.45429  -0.45166  -0.44337  -0.44076  -0.43834
 Alpha  occ. eigenvalues --   -0.43442  -0.43122  -0.42707  -0.42500  -0.42240
 Alpha  occ. eigenvalues --   -0.41911  -0.41540  -0.41377  -0.41257  -0.40747
 Alpha  occ. eigenvalues --   -0.40484  -0.40069  -0.39811  -0.39606  -0.39422
 Alpha  occ. eigenvalues --   -0.38970  -0.38343  -0.38281  -0.37783  -0.37456
 Alpha  occ. eigenvalues --   -0.37045  -0.36855  -0.36744  -0.36395  -0.36110
 Alpha  occ. eigenvalues --   -0.35856  -0.35665  -0.35431  -0.35284  -0.35162
 Alpha  occ. eigenvalues --   -0.34802  -0.34368  -0.32781  -0.32006  -0.31799
 Alpha  occ. eigenvalues --   -0.31715  -0.31195  -0.30083  -0.28870  -0.28319
 Alpha  occ. eigenvalues --   -0.27294  -0.26793  -0.24744  -0.24594  -0.23376
 Alpha  occ. eigenvalues --   -0.22903  -0.22651  -0.22512  -0.21800  -0.18262
 Alpha virt. eigenvalues --   -0.11976  -0.07112  -0.05228  -0.04546  -0.01954
 Alpha virt. eigenvalues --   -0.00495   0.00334   0.01473   0.01513   0.02007
 Alpha virt. eigenvalues --    0.03416   0.03583   0.04099   0.04558   0.04688

 Mulliken charges:
               1
     1  O   -0.260391
     2  O   -0.212551
     3  O   -0.263350
     4  O   -0.202779
     5  O   -0.239005
     6  O   -0.197842
     7  N    0.013039
     8  N   -0.183978
     9  N   -0.079947
    10  N   -0.328648
    11  C    0.127125
    12  C    0.134024
    13  C   -0.100868
    14  C   -0.128808
    15  C   -0.064761
    16  C   -0.062471
    17  C   -0.202290
    18  C    0.167829
    19  C   -0.022113
    20  C   -0.147845
    21  C    0.154356
    22  C    0.146233
    23  C   -0.067932
    24  C    0.037981
    25  C    0.012501
    26  C   -0.084163
    27  C   -0.132615
    28  C    0.105544
    29  C    0.153340
    30  C    0.007184
    31  C   -0.111618
    32  C   -0.007744
    33  C   -0.055505
    34  C    0.165454
    35  C    0.125777
    36  C    0.015162
    37  C    0.223457
    38  C    0.182958
    39  C   -0.169799
    40  C    0.166145
    41  C   -0.152588
    42  C   -0.037036
    43  C   -0.026935
    44  H    0.028354
    45  H    0.014037
    46  H   -0.012891
    47  H    0.093041
    48  H    0.102435
    49  H   -0.004277
    50  H    0.000618
    51  H    0.042695
    52  H    0.022064
    53  H    0.004376
    54  H    0.057535
    55  H    0.025123
    56  H    0.066574
    57  H    0.043924
    58  H    0.073467
    59  H    0.073405
    60  H    0.150345
    61  H   -0.005670
    62  H   -0.009525
    63  H    0.019018
    64  H    0.073337
    65  H    0.059265
    66  H    0.066138
    67  H    0.054013
    68  H    0.044158
    69  H   -0.065965
    70  H   -0.024197
    71  H    0.021223
    72  H    0.200111
    73  H   -0.001231
    74  H    0.054253
    75  H    0.039337
    76  H    0.046213
    77  H    0.200795
    78  H   -0.003320
    79  H    0.056697
 Sum of Mulliken charges =  -0.00000

 Dipole moment (field-independent basis, Debye):
    X=              4.3956    Y=              1.7363    Z=             -1.4146  Tot=              4.9332
 Quadrupole moment (field-independent basis, Debye-Ang):
   XX=           -229.0467   YY=           -236.9997   ZZ=           -270.1089
   XY=              9.5126   XZ=            -25.8980   YZ=             -5.8736

 Normal termination of Gaussian 16 at Fri Jul 26 07:01:05 2019.
