 Gaussian 16, Revision A.03,
 Gaussian 16:  ES64L-G16RevA.03 25-Dec-2016

 --------------------------
 # td=(NStates=1) B3LYP/SVP
 --------------------------

 --
 TD
 --
 Symbolic Z-matrix:
 Charge =  0 Multiplicity = 1

                         Standard orientation:
 ---------------------------------------------------------------------
 Center     Atomic      Atomic             Coordinates (Angstroms)
 Number     Number       Type             X           Y           Z
 ---------------------------------------------------------------------
      1          8           0        5.332193   -0.076684   -3.265385
      2          8           0       -2.824556   -2.869625    3.375858
      3          8           0       -3.294273   -0.721722    3.219166
      4          8           0       -2.314828    7.210833    1.215492
      5          8           0       -1.200585    7.042707   -0.677359
      6          8           0       -1.582159   -4.142674    0.215331
      7          7           0        2.330448    1.068607    0.609608
      8          7           0        4.308014   -0.478327   -1.181765
      9          7           0       -1.887268    0.666678   -0.282387
     10          7           0       -2.381662   -2.045536   -0.433625
     11          6           0        4.841710   -0.967487    0.000414
     12          6           0        4.434517   -0.030821    1.217664
     13          6           0        3.008104    0.158731    1.359376
     14          6           0        1.985706   -0.459183    2.129005
     15          6           0        0.755954    0.067628    1.856052
     16          6           0        0.969303    1.094216    0.918369
     17          6           0        6.239798   -1.200400   -0.175319
     18          6           0       -0.480780   -0.201360    2.554045
     19          6           0        6.673482   -0.754053   -1.322973
     20          6           0        0.105590    2.008783    0.149121
     21          6           0       -1.227407    1.809423   -0.222980
     22          6           0        5.394120   -0.378577   -2.084838
     23          6           0       -2.128541    2.768397   -0.884500
     24          6           0        2.403927   -1.423294    3.180647
     25          6           0        7.240305   -1.665999    0.965823
     26          6           0       -3.223578    2.205522   -1.295886
     27          6           0       -1.058382   -1.598447    2.606471
     28          6           0       -3.060355    0.779255   -0.951351
     29          6           0       -1.646434    4.225075   -0.952515
     30          6           0        7.976546   -0.706215   -2.123283
     31          6           0       -2.275517    5.045316    0.260505
     32          6           0       -4.417407    2.771428   -1.954716
     33          6           0       -3.839513   -0.307693   -1.279944
     34          6           0       -2.482653   -1.590285    3.115429
     35          6           0       -3.604259   -1.628929   -0.995058
     36          6           0        9.146531   -0.352852   -1.531144
     37          6           0       -1.840338    6.535115    0.185456
     38          6           0       -4.413883   -2.859382   -1.502457
     39          6           0       -3.665144   -3.970811   -1.008041
     40          6           0       -2.462838   -3.401059   -0.350919
     41          6           0       -5.667353   -2.806599   -2.303440
     42          6           0       -3.841969   -5.441470   -1.309740
     43          6           0       -6.440718   -3.909576   -2.466675
     44          1           0        4.119897   -1.831138    0.140307
     45          1           0        5.034298    0.818803    0.922665
     46          1           0        4.794772   -0.474196    2.205651
     47          1           0        2.700109    1.586324   -0.129005
     48          1           0        3.474075   -0.548160   -1.597098
     49          1           0       -0.151443    0.194871    3.470027
     50          1           0       -1.257962    0.489478    2.054431
     51          1           0        0.650191    2.869711   -0.103993
     52          1           0        3.455062   -1.037061    3.917399
     53          1           0        1.566005   -1.408992    3.866811
     54          1           0        2.641057   -2.686099    2.789062
     55          1           0        6.749025   -2.258545    1.763037
     56          1           0        7.781994   -0.866825    1.475481
     57          1           0        7.880113   -2.295399    0.346002
     58          1           0       -1.148250   -2.075108    1.678811
     59          1           0       -0.573996   -2.145328    3.380813
     60          1           0       -1.492862   -0.256579   -0.215367
     61          1           0       -2.081710    4.557843   -2.051103
     62          1           0       -0.543564    4.296055   -1.085884
     63          1           0        7.748631   -0.723647   -3.065786
     64          1           0       -1.848591    4.555006    1.107852
     65          1           0       -3.521338    4.948064    0.342603
     66          1           0       -4.319423    3.891227   -2.128139
     67          1           0       -5.267414    2.646437   -1.487669
     68          1           0       -4.398244    2.262642   -3.118397
     69          1           0       -4.666653   -0.153645   -1.889239
     70          1           0        9.437286    0.036779   -0.644960
     71          1           0       10.122859   -0.274776   -2.164903
     72          1           0       -3.837467   -3.017393    3.243432
     73          1           0       -5.840223   -1.752262   -3.058601
     74          1           0       -4.806601   -5.880731   -0.909436
     75          1           0       -3.938279   -5.554607   -2.531192
     76          1           0       -2.790355   -6.028309   -1.081222
     77          1           0       -1.910713    8.104977    0.973895
     78          1           0       -7.384999   -3.947853   -3.020174
     79          1           0       -6.279484   -4.950584   -1.739338
 ---------------------------------------------------------------------

 SCF Done:  E(RB3LYP) =  -1947.79593882     A.U. after   19 cycles

 Excitation energies and oscillator strengths:

 Excited State   1:      Singlet-A      2.0460 eV  605.97 nm  f=0.3971  <S**2>=0.000
     154 ->156         0.23015
     155 ->156         0.66367
     155 <-156        -0.11608
 This state for optimization and/or second-order correction.
 Total Energy, E(TD-HF/TD-DFT) =  -1947.72074829
 Copying the excited state density for this state as the 1-particle RhoCI density.

 The electronic state is 1-A.
 Alpha  occ. eigenvalues --  -19.19735 -19.15414 -19.13922 -19.10802 -19.10527
 Alpha  occ. eigenvalues --  -19.08750 -14.38502 -14.37366 -14.35097 -14.29103
 Alpha  occ. eigenvalues --  -10.32920 -10.29643 -10.28696 -10.25455 -10.25247
 Alpha  occ. eigenvalues --  -10.24767 -10.24499 -10.23841 -10.23384 -10.23177
 Alpha  occ. eigenvalues --  -10.23168 -10.22924 -10.22775 -10.22644 -10.22635
 Alpha  occ. eigenvalues --  -10.21917 -10.21713 -10.21523 -10.21446 -10.21437
 Alpha  occ. eigenvalues --  -10.21070 -10.20982 -10.20938 -10.20935 -10.20844
 Alpha  occ. eigenvalues --  -10.20835 -10.20477 -10.20397 -10.19100 -10.18829
 Alpha  occ. eigenvalues --  -10.18726 -10.18488 -10.17786  -1.12597  -1.07373
 Alpha  occ. eigenvalues --   -1.02988  -1.02534  -1.01315  -0.99502  -0.98124
 Alpha  occ. eigenvalues --   -0.97429  -0.96399  -0.89704  -0.83780  -0.83379
 Alpha  occ. eigenvalues --   -0.83193  -0.82175  -0.80405  -0.79152  -0.77604
 Alpha  occ. eigenvalues --   -0.77564  -0.77062  -0.76120  -0.73881  -0.73129
 Alpha  occ. eigenvalues --   -0.71866  -0.71520  -0.69603  -0.68474  -0.68141
 Alpha  occ. eigenvalues --   -0.68112  -0.66312  -0.64053  -0.62788  -0.61055
 Alpha  occ. eigenvalues --   -0.59740  -0.59683  -0.59006  -0.58341  -0.58047
 Alpha  occ. eigenvalues --   -0.56778  -0.55682  -0.55312  -0.54784  -0.53154
 Alpha  occ. eigenvalues --   -0.52743  -0.51736  -0.51274  -0.50727  -0.49997
 Alpha  occ. eigenvalues --   -0.49767  -0.49388  -0.48984  -0.48114  -0.48004
 Alpha  occ. eigenvalues --   -0.47304  -0.47081  -0.46608  -0.46438  -0.45974
 Alpha  occ. eigenvalues --   -0.45783  -0.45273  -0.44850  -0.44361  -0.43974
 Alpha  occ. eigenvalues --   -0.43919  -0.43621  -0.43303  -0.42622  -0.42546
 Alpha  occ. eigenvalues --   -0.42101  -0.42027  -0.41737  -0.41426  -0.40976
 Alpha  occ. eigenvalues --   -0.40606  -0.40298  -0.40240  -0.39850  -0.39773
 Alpha  occ. eigenvalues --   -0.39315  -0.38519  -0.38390  -0.38183  -0.37907
 Alpha  occ. eigenvalues --   -0.37672  -0.37436  -0.37043  -0.36689  -0.36286
 Alpha  occ. eigenvalues --   -0.36207  -0.35703  -0.35553  -0.35123  -0.34489
 Alpha  occ. eigenvalues --   -0.33848  -0.33486  -0.32857  -0.32781  -0.31681
 Alpha  occ. eigenvalues --   -0.31049  -0.30278  -0.29892  -0.28502  -0.27481
 Alpha  occ. eigenvalues --   -0.26991  -0.26764  -0.26135  -0.25638  -0.25480
 Alpha  occ. eigenvalues --   -0.25131  -0.23800  -0.23145  -0.21980  -0.19162
 Alpha virt. eigenvalues --   -0.11257  -0.06464  -0.05405  -0.01645  -0.00506
 Alpha virt. eigenvalues --   -0.00450   0.00382   0.02160   0.02261   0.02558
 Alpha virt. eigenvalues --    0.03169   0.03622   0.03783   0.04675   0.04706

 Mulliken charges:
               1
     1  O   -0.224868
     2  O   -0.234192
     3  O   -0.208369
     4  O   -0.164431
     5  O   -0.210591
     6  O   -0.282008
     7  N   -0.036527
     8  N   -0.154281
     9  N    0.012006
    10  N   -0.298869
    11  C    0.072123
    12  C    0.220130
    13  C   -0.073535
    14  C   -0.090314
    15  C   -0.063583
    16  C   -0.003230
    17  C   -0.158599
    18  C    0.032556
    19  C   -0.087197
    20  C   -0.035344
    21  C    0.088740
    22  C    0.108540
    23  C   -0.096266
    24  C   -0.067733
    25  C    0.073319
    26  C   -0.105898
    27  C    0.112670
    28  C    0.085484
    29  C    0.029918
    30  C    0.134348
    31  C   -0.028596
    32  C    0.107755
    33  C   -0.081240
    34  C    0.089883
    35  C    0.096514
    36  C   -0.019069
    37  C    0.134956
    38  C    0.003600
    39  C   -0.137816
    40  C    0.155095
    41  C   -0.034908
    42  C   -0.032640
    43  C   -0.094927
    44  H    0.014300
    45  H   -0.024268
    46  H    0.006512
    47  H    0.086349
    48  H    0.093823
    49  H    0.006037
    50  H    0.023838
    51  H   -0.035931
    52  H    0.041249
    53  H    0.015421
    54  H    0.062458
    55  H    0.019814
    56  H    0.040015
    57  H    0.040524
    58  H    0.048972
    59  H    0.009855
    60  H    0.133869
    61  H    0.035217
    62  H    0.033415
    63  H   -0.038525
    64  H    0.036729
    65  H    0.078850
    66  H    0.021299
    67  H   -0.000771
    68  H    0.050661
    69  H   -0.070747
    70  H   -0.001547
    71  H    0.032862
    72  H    0.208717
    73  H    0.056616
    74  H    0.050249
    75  H    0.048045
    76  H    0.069603
    77  H    0.185219
    78  H    0.032379
    79  H    0.056286
 Sum of Mulliken charges =  -0.00000

 Dipole moment (field-independent basis, Debye):
    X=              0.8682    Y=              4.0146    Z=              1.1402  Tot=              4.2627
 Quadrupole moment (field-independent basis, Debye-Ang):
   XX=           -212.9984   YY=           -251.9854   ZZ=           -267.7641
   XY=             -3.8304   XZ=             34.1377   YZ=              7.2571

 Normal termination of Gaussian 16 at Tue Sep 17 05:24:33 2019.
