 Gaussian 16, Revision A.03,
 Gaussian 16:  ES64L-G16RevA.03 25-Dec-2016

 --------------------------
 # td=(NStates=1) B3LYP/SVP
 --------------------------

 --
 TD
 --
 Symbolic Z-matrix:
 Charge =  0 Multiplicity = 1

                         Standard orientation:
 ---------------------------------------------------------------------
 Center     Atomic      Atomic             Coordinates (Angstroms)
 Number     Number       Type             X           Y           Z
 ---------------------------------------------------------------------
      1          8           0       -3.386755   -1.086792   -2.888792
      2          8           0        3.276066    2.934586    3.134148
      3          8           0        3.861771    1.145692    4.367007
      4          8           0        7.715052   -1.450912   -1.020444
      5          8           0        6.510067   -3.040701   -1.986152
      6          8           0       -2.599387    1.525246    1.514423
      7          7           0       -0.134099   -2.470452    0.937959
      8          7           0       -2.765789   -1.083872   -0.621570
      9          7           0        1.177753    0.027659   -0.718936
     10          7           0       -0.993915    1.359731   -0.195282
     11          6           0       -3.417484   -1.362086    0.681406
     12          6           0       -2.601139   -2.450853    1.513305
     13          6           0       -1.115359   -2.086094    1.780462
     14          6           0       -0.405083   -1.288653    2.843382
     15          6           0        0.938480   -1.286174    2.443147
     16          6           0        1.049077   -1.899785    1.181573
     17          6           0       -4.635169   -1.980873    0.256592
     18          6           0        2.015392   -0.503492    3.113884
     19          6           0       -4.869775   -1.955391   -1.048184
     20          6           0        2.087137   -1.863706    0.172984
     21          6           0        2.056379   -0.834063   -0.815710
     22          6           0       -3.578394   -1.322363   -1.722819
     23          6           0        2.927069   -0.555874   -1.867956
     24          6           0       -1.178637   -0.681316    3.917323
     25          6           0       -5.811574   -2.370703    1.282653
     26          6           0        2.463477    0.556994   -2.527799
     27          6           0        2.008942    1.059766    2.881388
     28          6           0        1.248910    1.003562   -1.843665
     29          6           0        4.139271   -1.565438   -2.122003
     30          6           0       -5.963067   -2.287354   -1.970217
     31          6           0        5.380533   -0.947116   -1.406565
     32          6           0        3.046962    1.253781   -3.705813
     33          6           0        0.381494    1.988079   -2.052137
     34          6           0        3.115921    1.721187    3.637232
     35          6           0       -0.691839    2.237038   -1.202552
     36          6           0       -7.125591   -2.948611   -1.771873
     37          6           0        6.620101   -1.945538   -1.550400
     38          6           0       -1.440661    3.503833   -1.142657
     39          6           0       -2.289035    3.396503   -0.018502
     40          6           0       -2.024918    2.077474    0.510543
     41          6           0       -1.194988    4.683155   -1.944221
     42          6           0       -3.419579    4.214915    0.599979
     43          6           0       -1.907246    5.859217   -1.940600
     44          1           0       -3.362752   -0.222393    1.136546
     45          1           0       -2.555780   -3.335502    0.630370
     46          1           0       -3.099925   -2.452979    2.493573
     47          1           0       -0.432061   -2.708663   -0.136871
     48          1           0       -1.875018   -0.351605   -0.602904
     49          1           0        1.981164   -0.790609    4.251881
     50          1           0        2.979499   -0.685745    2.729786
     51          1           0        2.830082   -2.687667    0.298144
     52          1           0       -2.186927   -1.067146    4.362747
     53          1           0       -0.654588   -0.324593    4.845268
     54          1           0       -1.697182    0.078101    3.279897
     55          1           0       -5.680779   -1.647843    2.296463
     56          1           0       -5.647505   -3.497295    1.526147
     57          1           0       -6.838991   -2.129671    0.893741
     58          1           0        2.140027    1.454988    1.772123
     59          1           0        0.989456    1.357171    3.272042
     60          1           0        0.309538    0.315681   -0.266983
     61          1           0        4.267050   -1.654965   -3.191119
     62          1           0        3.894542   -2.515338   -1.924501
     63          1           0       -5.615531   -2.086462   -3.139008
     64          1           0        5.341472   -0.915003   -0.383139
     65          1           0        5.574397    0.241474   -1.647319
     66          1           0        3.708291    0.688762   -4.447284
     67          1           0        3.631987    2.180731   -3.186109
     68          1           0        2.046081    1.531752   -4.284283
     69          1           0        0.460894    2.654673   -2.965520
     70          1           0       -7.507904   -3.487692   -0.850922
     71          1           0       -7.683712   -3.197580   -2.779481
     72          1           0        3.809232    3.457967    3.671535
     73          1           0       -0.508698    4.828616   -2.706837
     74          1           0       -4.232793    4.395216   -0.151756
     75          1           0       -3.777309    3.558587    1.622642
     76          1           0       -2.979541    5.207586    1.153485
     77          1           0        8.094367   -2.369777   -1.091710
     78          1           0       -1.826569    6.527873   -2.803297
     79          1           0       -2.754295    6.080808   -1.427142
 ---------------------------------------------------------------------

 SCF Done:  E(RB3LYP) =  -1947.75423597     A.U. after   22 cycles

 Excitation energies and oscillator strengths:

 Excited State   1:      Singlet-A      0.2694 eV 4603.03 nm  f=0.0002  <S**2>=0.000
     155 ->156         0.70390
 This state for optimization and/or second-order correction.
 Total Energy, E(TD-HF/TD-DFT) =  -1947.74433740
 Copying the excited state density for this state as the 1-particle RhoCI density.

 The electronic state is 1-A.
 Alpha  occ. eigenvalues --  -19.20597 -19.17891 -19.14842 -19.13306 -19.12074
 Alpha  occ. eigenvalues --  -19.08416 -14.37075 -14.36578 -14.32906 -14.32586
 Alpha  occ. eigenvalues --  -10.33596 -10.31039 -10.29444 -10.26531 -10.26339
 Alpha  occ. eigenvalues --  -10.26164 -10.24661 -10.23840 -10.23723 -10.23036
 Alpha  occ. eigenvalues --  -10.22882 -10.22861 -10.22829 -10.22449 -10.22254
 Alpha  occ. eigenvalues --  -10.22103 -10.21953 -10.21898 -10.21427 -10.21336
 Alpha  occ. eigenvalues --  -10.20998 -10.20994 -10.19840 -10.19825 -10.19660
 Alpha  occ. eigenvalues --  -10.19472 -10.19208 -10.19087 -10.18283 -10.18000
 Alpha  occ. eigenvalues --  -10.17896 -10.17401 -10.16731  -1.14513  -1.10997
 Alpha  occ. eigenvalues --   -1.04008  -1.01998  -1.01800  -1.01461  -1.00529
 Alpha  occ. eigenvalues --   -0.96862  -0.94082  -0.90803  -0.84104  -0.83401
 Alpha  occ. eigenvalues --   -0.82130  -0.79391  -0.78950  -0.78480  -0.77689
 Alpha  occ. eigenvalues --   -0.76990  -0.75518  -0.75124  -0.73771  -0.72188
 Alpha  occ. eigenvalues --   -0.71481  -0.70312  -0.68954  -0.67994  -0.66903
 Alpha  occ. eigenvalues --   -0.66381  -0.65778  -0.63871  -0.61907  -0.60750
 Alpha  occ. eigenvalues --   -0.59644  -0.59199  -0.58763  -0.57982  -0.57154
 Alpha  occ. eigenvalues --   -0.55891  -0.54375  -0.54114  -0.53374  -0.52660
 Alpha  occ. eigenvalues --   -0.52343  -0.52134  -0.51049  -0.50111  -0.49709
 Alpha  occ. eigenvalues --   -0.49506  -0.48865  -0.48606  -0.48299  -0.47597
 Alpha  occ. eigenvalues --   -0.47379  -0.47028  -0.46714  -0.46065  -0.45444
 Alpha  occ. eigenvalues --   -0.45176  -0.44721  -0.44587  -0.44083  -0.43765
 Alpha  occ. eigenvalues --   -0.43276  -0.43126  -0.42932  -0.42414  -0.41985
 Alpha  occ. eigenvalues --   -0.41699  -0.41551  -0.41264  -0.40890  -0.40620
 Alpha  occ. eigenvalues --   -0.39928  -0.39916  -0.39707  -0.39443  -0.39167
 Alpha  occ. eigenvalues --   -0.39007  -0.38904  -0.38225  -0.37865  -0.37432
 Alpha  occ. eigenvalues --   -0.37190  -0.36897  -0.36699  -0.36311  -0.36188
 Alpha  occ. eigenvalues --   -0.35439  -0.35309  -0.35192  -0.34902  -0.34807
 Alpha  occ. eigenvalues --   -0.33782  -0.33341  -0.32810  -0.32310  -0.32160
 Alpha  occ. eigenvalues --   -0.31359  -0.31065  -0.30513  -0.29971  -0.29666
 Alpha  occ. eigenvalues --   -0.27673  -0.27356  -0.26974  -0.24683  -0.23485
 Alpha  occ. eigenvalues --   -0.23122  -0.22486  -0.22295  -0.21840  -0.17651
 Alpha virt. eigenvalues --   -0.14151  -0.08764  -0.03619  -0.03177  -0.00258
 Alpha virt. eigenvalues --    0.00816   0.01797   0.02109   0.02884   0.03354
 Alpha virt. eigenvalues --    0.04151   0.04169   0.04827   0.05225   0.05266

 Mulliken charges:
               1
     1  O   -0.224003
     2  O   -0.135271
     3  O   -0.201569
     4  O   -0.140224
     5  O   -0.215243
     6  O   -0.259748
     7  N   -0.048508
     8  N   -0.327562
     9  N   -0.005823
    10  N   -0.359913
    11  C    0.035025
    12  C    0.143393
    13  C   -0.142090
    14  C   -0.056144
    15  C   -0.081236
    16  C   -0.044690
    17  C   -0.173170
    18  C    0.097940
    19  C   -0.045550
    20  C   -0.141551
    21  C    0.098420
    22  C    0.157932
    23  C   -0.122627
    24  C    0.001361
    25  C   -0.017612
    26  C   -0.112411
    27  C   -0.084489
    28  C    0.126772
    29  C    0.230658
    30  C   -0.032733
    31  C   -0.031947
    32  C   -0.010005
    33  C   -0.130611
    34  C    0.117890
    35  C    0.113620
    36  C   -0.089534
    37  C    0.134256
    38  C    0.103132
    39  C   -0.138442
    40  C    0.213138
    41  C   -0.025516
    42  C   -0.029486
    43  C   -0.010466
    44  H    0.109033
    45  H    0.022861
    46  H    0.006949
    47  H    0.157038
    48  H    0.189400
    49  H    0.033589
    50  H   -0.033006
    51  H    0.032051
    52  H    0.009918
    53  H    0.017750
    54  H    0.045886
    55  H    0.037000
    56  H    0.052049
    57  H    0.047925
    58  H    0.053474
    59  H    0.047659
    60  H    0.166057
    61  H   -0.000113
    62  H   -0.021552
    63  H    0.054467
    64  H    0.015069
    65  H    0.058424
    66  H    0.052085
    67  H    0.068073
    68  H    0.053884
    69  H    0.012855
    70  H    0.036309
    71  H    0.035504
    72  H    0.148264
    73  H   -0.029046
    74  H    0.069684
    75  H    0.076765
    76  H    0.057702
    77  H    0.164039
    78  H    0.031501
    79  H   -0.014909
 Sum of Mulliken charges =  -0.00000

 Dipole moment (field-independent basis, Debye):
    X=              3.6960    Y=              5.3601    Z=             -1.9216  Tot=              6.7885
 Quadrupole moment (field-independent basis, Debye-Ang):
   XX=           -249.1579   YY=           -232.0462   ZZ=           -263.9028
   XY=             -0.3151   XZ=            -21.9306   YZ=             -7.3571

 Normal termination of Gaussian 16 at Fri Jul 26 16:19:30 2019.
