 Gaussian 16, Revision A.03,
 Gaussian 16:  ES64L-G16RevA.03 25-Dec-2016

 --------------------------
 # td=(NStates=1) B3LYP/SVP
 --------------------------

 --
 TD
 --
 Symbolic Z-matrix:
 Charge =  0 Multiplicity = 1

                         Standard orientation:
 ---------------------------------------------------------------------
 Center     Atomic      Atomic             Coordinates (Angstroms)
 Number     Number       Type             X           Y           Z
 ---------------------------------------------------------------------
      1          8           0       -3.195724   -1.625314   -2.692806
      2          8           0        3.196488    3.266269    2.597550
      3          8           0        3.630166    1.840577    4.193938
      4          8           0        7.590674   -1.617110   -0.455013
      5          8           0        6.602120   -3.236516   -1.720401
      6          8           0       -2.743811    1.850092    1.255094
      7          7           0       -0.278976   -2.362226    1.138912
      8          7           0       -2.719398   -1.080895   -0.445564
      9          7           0        1.122181   -0.085167   -0.762218
     10          7           0       -1.003317    1.373759   -0.232863
     11          6           0       -3.432905   -1.215725    0.801852
     12          6           0       -2.693743   -2.165132    1.925843
     13          6           0       -1.298431   -1.873269    2.024633
     14          6           0       -0.671686   -0.935480    2.901987
     15          6           0        0.680915   -0.874060    2.560272
     16          6           0        0.844660   -1.730716    1.381421
     17          6           0       -4.810517   -1.795075    0.385050
     18          6           0        1.825760   -0.080527    3.118273
     19          6           0       -4.866406   -2.016909   -0.921881
     20          6           0        1.986539   -1.927736    0.494216
     21          6           0        2.064698   -1.077452   -0.640850
     22          6           0       -3.475060   -1.585459   -1.528436
     23          6           0        2.982878   -0.940343   -1.739971
     24          6           0       -1.354288   -0.130388    3.995165
     25          6           0       -5.875417   -2.122421    1.369321
     26          6           0        2.590503    0.128011   -2.473948
     27          6           0        1.927391    1.288345    2.567682
     28          6           0        1.322290    0.634272   -1.925213
     29          6           0        4.171907   -1.777819   -1.884328
     30          6           0       -5.809241   -2.519797   -1.866401
     31          6           0        5.324819   -1.246010   -1.017406
     32          6           0        3.232434    0.632055   -3.740156
     33          6           0        0.586756    1.793330   -2.194071
     34          6           0        2.941595    2.164006    3.188625
     35          6           0       -0.525868    2.101375   -1.379493
     36          6           0       -6.939940   -3.255012   -1.765976
     37          6           0        6.485284   -2.183009   -1.102439
     38          6           0       -1.194935    3.449957   -1.485050
     39          6           0       -2.176266    3.463516   -0.411261
     40          6           0       -1.967568    2.190544    0.321274
     41          6           0       -1.093003    4.423386   -2.577424
     42          6           0       -3.094080    4.445102    0.005664
     43          6           0       -1.627148    5.607197   -2.611507
     44          1           0       -3.635374   -0.174239    1.072858
     45          1           0       -2.794503   -3.154752    1.616448
     46          1           0       -3.055995   -1.839519    2.850093
     47          1           0       -0.613497   -2.977916    0.323182
     48          1           0       -1.822097   -0.541034   -0.782167
     49          1           0        1.726217    0.148381    4.170644
     50          1           0        2.883593   -0.525689    2.840028
     51          1           0        2.732526   -2.641714    0.620839
     52          1           0       -2.212930   -0.794543    4.426042
     53          1           0       -0.614616    0.105226    4.687110
     54          1           0       -1.934150    0.609856    3.383559
     55          1           0       -5.767467   -1.400581    2.199372
     56          1           0       -5.820454   -3.094352    1.867359
     57          1           0       -6.932415   -1.821609    1.020745
     58          1           0        2.106627    1.460696    1.567270
     59          1           0        0.806921    1.808996    2.697891
     60          1           0        0.373712    0.133334   -0.200478
     61          1           0        4.493638   -1.732063   -2.868420
     62          1           0        4.194941   -2.865825   -1.516840
     63          1           0       -5.634670   -2.152317   -2.898647
     64          1           0        5.138002   -1.567332    0.083489
     65          1           0        5.668094   -0.348881   -1.045328
     66          1           0        4.301630    0.123779   -3.840625
     67          1           0        3.393014    1.613684   -3.861553
     68          1           0        2.514065    0.506692   -4.588364
     69          1           0        0.840607    2.372367   -3.129683
     70          1           0       -7.081580   -3.772890   -0.799966
     71          1           0       -7.620694   -3.559926   -2.579277
     72          1           0        3.711929    3.817277    3.557578
     73          1           0       -0.548399    3.832758   -3.215426
     74          1           0       -3.748092    4.791147   -0.876182
     75          1           0       -3.752833    3.993916    0.782877
     76          1           0       -2.661614    5.494529    0.343664
     77          1           0        8.351386   -2.236314   -0.495169
     78          1           0       -1.640643    6.272169   -3.587689
     79          1           0       -2.199186    6.161857   -1.792807
 ---------------------------------------------------------------------

 SCF Done:  E(RB3LYP) =  -1947.84304978     A.U. after   19 cycles

 Excitation energies and oscillator strengths:

 Excited State   1:      Singlet-A      0.6736 eV 1840.51 nm  f=0.0001  <S**2>=0.000
     155 ->156         0.70410
 This state for optimization and/or second-order correction.
 Total Energy, E(TD-HF/TD-DFT) =  -1947.81829394
 Copying the excited state density for this state as the 1-particle RhoCI density.

 The electronic state is 1-A.
 Alpha  occ. eigenvalues --  -19.19385 -19.18632 -19.14485 -19.11618 -19.10804
 Alpha  occ. eigenvalues --  -19.08434 -14.37911 -14.37782 -14.32691 -14.31561
 Alpha  occ. eigenvalues --  -10.33772 -10.30798 -10.27791 -10.27480 -10.26467
 Alpha  occ. eigenvalues --  -10.26130 -10.26079 -10.23496 -10.23177 -10.23141
 Alpha  occ. eigenvalues --  -10.22491 -10.22461 -10.22428 -10.22188 -10.22082
 Alpha  occ. eigenvalues --  -10.21653 -10.21460 -10.21443 -10.21100 -10.20636
 Alpha  occ. eigenvalues --  -10.20288 -10.20001 -10.19582 -10.19393 -10.19382
 Alpha  occ. eigenvalues --  -10.19041 -10.18726 -10.18125 -10.18059 -10.17908
 Alpha  occ. eigenvalues --  -10.17608 -10.17459 -10.17213  -1.10026  -1.09068
 Alpha  occ. eigenvalues --   -1.01159  -1.01018  -1.00766  -1.00743  -0.96884
 Alpha  occ. eigenvalues --   -0.96832  -0.91346  -0.90453  -0.86011  -0.82940
 Alpha  occ. eigenvalues --   -0.81820  -0.81026  -0.81021  -0.79660  -0.79270
 Alpha  occ. eigenvalues --   -0.77527  -0.76481  -0.75931  -0.74744  -0.73980
 Alpha  occ. eigenvalues --   -0.71596  -0.70924  -0.69881  -0.68719  -0.67481
 Alpha  occ. eigenvalues --   -0.66416  -0.65674  -0.63860  -0.61898  -0.61057
 Alpha  occ. eigenvalues --   -0.60021  -0.59111  -0.58576  -0.58139  -0.57055
 Alpha  occ. eigenvalues --   -0.55569  -0.54687  -0.54425  -0.54192  -0.53180
 Alpha  occ. eigenvalues --   -0.52871  -0.51984  -0.51272  -0.50106  -0.49489
 Alpha  occ. eigenvalues --   -0.49010  -0.48928  -0.48875  -0.48471  -0.47874
 Alpha  occ. eigenvalues --   -0.47585  -0.47164  -0.46867  -0.46838  -0.45974
 Alpha  occ. eigenvalues --   -0.45358  -0.45228  -0.44868  -0.44718  -0.43920
 Alpha  occ. eigenvalues --   -0.43769  -0.43528  -0.43036  -0.42761  -0.42671
 Alpha  occ. eigenvalues --   -0.42385  -0.42157  -0.41829  -0.41519  -0.41421
 Alpha  occ. eigenvalues --   -0.41120  -0.40821  -0.40664  -0.40210  -0.40110
 Alpha  occ. eigenvalues --   -0.39526  -0.39068  -0.38922  -0.38758  -0.38105
 Alpha  occ. eigenvalues --   -0.38061  -0.37779  -0.37057  -0.36685  -0.36519
 Alpha  occ. eigenvalues --   -0.36209  -0.35723  -0.35242  -0.34950  -0.34086
 Alpha  occ. eigenvalues --   -0.33727  -0.33348  -0.32641  -0.32218  -0.31831
 Alpha  occ. eigenvalues --   -0.30379  -0.29826  -0.29798  -0.29360  -0.28886
 Alpha  occ. eigenvalues --   -0.28053  -0.26671  -0.25641  -0.24070  -0.23652
 Alpha  occ. eigenvalues --   -0.23112  -0.23057  -0.22466  -0.22294  -0.18452
 Alpha virt. eigenvalues --   -0.13373  -0.08148  -0.03182  -0.02667  -0.02074
 Alpha virt. eigenvalues --   -0.01343   0.00869   0.01225   0.01851   0.03038
 Alpha virt. eigenvalues --    0.03469   0.03941   0.04246   0.04759   0.04920

 Mulliken charges:
               1
     1  O   -0.216975
     2  O   -0.221197
     3  O   -0.311095
     4  O   -0.236759
     5  O   -0.232070
     6  O   -0.255933
     7  N   -0.066567
     8  N   -0.291526
     9  N   -0.040656
    10  N   -0.339315
    11  C    0.131153
    12  C    0.357413
    13  C   -0.174480
    14  C   -0.134893
    15  C   -0.083317
    16  C   -0.021736
    17  C   -0.231697
    18  C    0.152820
    19  C    0.004351
    20  C   -0.063491
    21  C    0.070269
    22  C    0.117653
    23  C   -0.018161
    24  C    0.113177
    25  C    0.079741
    26  C   -0.134544
    27  C   -0.037166
    28  C    0.112760
    29  C    0.114794
    30  C   -0.037695
    31  C    0.059229
    32  C    0.117822
    33  C   -0.112965
    34  C    0.127423
    35  C    0.134504
    36  C   -0.049012
    37  C    0.128769
    38  C   -0.064790
    39  C   -0.137123
    40  C    0.196553
    41  C    0.134498
    42  C    0.010476
    43  C   -0.075643
    44  H    0.039167
    45  H   -0.049515
    46  H   -0.039304
    47  H    0.146812
    48  H    0.173941
    49  H    0.000298
    50  H    0.010690
    51  H   -0.026426
    52  H    0.012460
    53  H    0.003963
    54  H    0.056041
    55  H   -0.005285
    56  H    0.034436
    57  H    0.038716
    58  H   -0.006545
    59  H    0.067557
    60  H    0.140655
    61  H   -0.001665
    62  H    0.045532
    63  H    0.009059
    64  H    0.057262
    65  H   -0.018646
    66  H    0.040004
    67  H   -0.013560
    68  H    0.039052
    69  H    0.021265
    70  H    0.007879
    71  H    0.026744
    72  H    0.266449
    73  H   -0.062411
    74  H    0.037059
    75  H    0.040948
    76  H    0.056818
    77  H    0.190762
    78  H    0.042966
    79  H    0.042225
 Sum of Mulliken charges =  -0.00000

 Dipole moment (field-independent basis, Debye):
    X=              4.0027    Y=              2.8662    Z=             -1.6408  Tot=              5.1893
 Quadrupole moment (field-independent basis, Debye-Ang):
   XX=           -245.4153   YY=           -236.4667   ZZ=           -264.3703
   XY=             -0.2993   XZ=            -21.3727   YZ=            -15.1148

 Normal termination of Gaussian 16 at Fri Jul 26 17:41:23 2019.
