 Gaussian 16, Revision A.03,
 Gaussian 16:  ES64L-G16RevA.03 25-Dec-2016

 --------------------------
 # td=(NStates=1) B3LYP/SVP
 --------------------------

 --
 TD
 --
 Symbolic Z-matrix:
 Charge =  0 Multiplicity = 1

                         Standard orientation:
 ---------------------------------------------------------------------
 Center     Atomic      Atomic             Coordinates (Angstroms)
 Number     Number       Type             X           Y           Z
 ---------------------------------------------------------------------
      1          8           0       -3.147097   -1.887810   -2.661693
      2          8           0        2.996488    3.562947    2.625634
      3          8           0        3.592950    2.210013    4.217347
      4          8           0        7.686873   -1.666477   -0.568943
      5          8           0        6.676338   -3.143939   -1.995418
      6          8           0       -2.624611    1.717349    1.299819
      7          7           0       -0.251606   -2.232654    1.184184
      8          7           0       -2.591538   -1.398552   -0.484429
      9          7           0        1.155472   -0.005549   -0.632931
     10          7           0       -0.936906    1.447923   -0.304482
     11          6           0       -3.337464   -1.229699    0.847904
     12          6           0       -2.670778   -2.076619    1.895004
     13          6           0       -1.249615   -1.777073    2.070698
     14          6           0       -0.475607   -0.879266    3.078224
     15          6           0        0.834209   -0.854620    2.666566
     16          6           0        1.034766   -1.726218    1.552037
     17          6           0       -4.781043   -1.895208    0.479327
     18          6           0        1.930782   -0.063970    3.197739
     19          6           0       -4.778778   -2.217031   -0.854054
     20          6           0        2.237137   -1.819276    0.571122
     21          6           0        2.168552   -0.927701   -0.525994
     22          6           0       -3.468262   -1.778861   -1.566921
     23          6           0        2.984908   -0.880997   -1.623814
     24          6           0       -1.212228   -0.010798    3.940815
     25          6           0       -5.823005   -1.831488    1.476826
     26          6           0        2.414898    0.112846   -2.469913
     27          6           0        1.921032    1.414077    2.531047
     28          6           0        1.390824    0.752229   -1.794912
     29          6           0        4.207800   -1.784554   -1.879865
     30          6           0       -5.810996   -2.769494   -1.637893
     31          6           0        5.388436   -1.315801   -0.979487
     32          6           0        3.013663    0.622954   -3.778971
     33          6           0        0.495570    1.850072   -2.165127
     34          6           0        2.898222    2.316359    3.232629
     35          6           0       -0.542857    2.195757   -1.440172
     36          6           0       -6.925831   -3.473872   -1.424839
     37          6           0        6.711337   -2.137185   -1.220748
     38          6           0       -1.429359    3.356318   -1.605195
     39          6           0       -2.347570    3.309749   -0.549711
     40          6           0       -1.966184    2.136130    0.360374
     41          6           0       -1.409464    4.234065   -2.777139
     42          6           0       -3.482964    4.230696   -0.300466
     43          6           0       -2.055516    5.449690   -2.971813
     44          1           0       -3.485157   -0.211938    1.056096
     45          1           0       -2.807678   -3.057421    1.582600
     46          1           0       -3.139340   -1.901789    3.022105
     47          1           0       -0.523803   -2.979821    0.519367
     48          1           0       -1.951644   -0.531821   -0.806976
     49          1           0        1.983748    0.045518    4.320870
     50          1           0        2.874304   -0.437946    2.841682
     51          1           0        2.900306   -2.732971    0.545466
     52          1           0       -1.605232   -0.801176    4.654760
     53          1           0       -0.316033    0.613072    4.391637
     54          1           0       -1.760577    0.672639    3.230002
     55          1           0       -6.002125   -1.043081    1.854406
     56          1           0       -5.588360   -2.664218    2.185495
     57          1           0       -6.982017   -2.070427    0.874245
     58          1           0        2.129936    1.543381    1.367063
     59          1           0        1.045030    1.774669    2.675589
     60          1           0        0.419145    0.073845   -0.272062
     61          1           0        4.542384   -1.755388   -2.865601
     62          1           0        4.052721   -2.728884   -1.356776
     63          1           0       -5.485711   -2.654287   -2.589611
     64          1           0        5.091429   -1.437412    0.092777
     65          1           0        5.746905   -0.225023   -1.258994
     66          1           0        3.539487   -0.075946   -4.339123
     67          1           0        3.650252    1.634868   -3.537676
     68          1           0        2.076116    0.909157   -4.424132
     69          1           0        0.691545    2.275104   -3.139108
     70          1           0       -7.276991   -3.634070   -0.416841
     71          1           0       -7.671464   -3.783760   -2.108738
     72          1           0        3.656613    3.917140    3.114411
     73          1           0       -0.720147    4.058567   -3.871926
     74          1           0       -3.963010    4.217976   -1.250478
     75          1           0       -3.972846    3.878394    0.790139
     76          1           0       -3.174198    5.254987    0.401987
     77          1           0        8.357285   -2.362160   -0.701422
     78          1           0       -1.928531    5.834223   -4.050785
     79          1           0       -2.665505    6.183911   -2.200473
 ---------------------------------------------------------------------

 SCF Done:  E(RB3LYP) =  -1947.65322732     A.U. after   22 cycles

 Excitation energies and oscillator strengths:

 Excited State   1:      Singlet-A      0.3449 eV 3594.42 nm  f=0.0008  <S**2>=0.000
     155 ->156         0.70522
 This state for optimization and/or second-order correction.
 Total Energy, E(TD-HF/TD-DFT) =  -1947.64055119
 Copying the excited state density for this state as the 1-particle RhoCI density.

 The electronic state is 1-A.
 Alpha  occ. eigenvalues --  -19.23075 -19.15380 -19.13797 -19.12397 -19.11950
 Alpha  occ. eigenvalues --  -19.10503 -14.37378 -14.36486 -14.32326 -14.29622
 Alpha  occ. eigenvalues --  -10.34301 -10.31391 -10.27775 -10.27175 -10.27046
 Alpha  occ. eigenvalues --  -10.26022 -10.25286 -10.23980 -10.23538 -10.23414
 Alpha  occ. eigenvalues --  -10.23294 -10.23034 -10.22900 -10.22383 -10.22068
 Alpha  occ. eigenvalues --  -10.21675 -10.21590 -10.21568 -10.21337 -10.21152
 Alpha  occ. eigenvalues --  -10.20950 -10.20743 -10.20620 -10.20031 -10.19994
 Alpha  occ. eigenvalues --  -10.19470 -10.19342 -10.18409 -10.17867 -10.17450
 Alpha  occ. eigenvalues --  -10.17247 -10.17218 -10.16852  -1.15819  -1.09632
 Alpha  occ. eigenvalues --   -1.05551  -1.02549  -1.01520  -1.00420  -0.99234
 Alpha  occ. eigenvalues --   -0.93894  -0.91447  -0.88744  -0.85184  -0.82652
 Alpha  occ. eigenvalues --   -0.81078  -0.80288  -0.80067  -0.79240  -0.78265
 Alpha  occ. eigenvalues --   -0.77240  -0.76660  -0.75472  -0.74322  -0.73414
 Alpha  occ. eigenvalues --   -0.71518  -0.71189  -0.69848  -0.69693  -0.67456
 Alpha  occ. eigenvalues --   -0.66146  -0.65119  -0.63344  -0.62048  -0.60472
 Alpha  occ. eigenvalues --   -0.59673  -0.59303  -0.58265  -0.58016  -0.57528
 Alpha  occ. eigenvalues --   -0.55744  -0.55225  -0.54391  -0.53153  -0.52341
 Alpha  occ. eigenvalues --   -0.51862  -0.51458  -0.50889  -0.50457  -0.50235
 Alpha  occ. eigenvalues --   -0.49803  -0.49055  -0.48696  -0.47996  -0.47545
 Alpha  occ. eigenvalues --   -0.47393  -0.46999  -0.46884  -0.46577  -0.46222
 Alpha  occ. eigenvalues --   -0.45951  -0.45713  -0.44881  -0.44338  -0.43987
 Alpha  occ. eigenvalues --   -0.43652  -0.43567  -0.43355  -0.42856  -0.42383
 Alpha  occ. eigenvalues --   -0.42348  -0.42119  -0.41854  -0.41519  -0.41287
 Alpha  occ. eigenvalues --   -0.41036  -0.40943  -0.40501  -0.40037  -0.39789
 Alpha  occ. eigenvalues --   -0.39644  -0.39458  -0.38672  -0.38472  -0.38320
 Alpha  occ. eigenvalues --   -0.37871  -0.37558  -0.37188  -0.36550  -0.36034
 Alpha  occ. eigenvalues --   -0.35712  -0.35521  -0.35423  -0.35255  -0.33840
 Alpha  occ. eigenvalues --   -0.33691  -0.32652  -0.31729  -0.31406  -0.31214
 Alpha  occ. eigenvalues --   -0.31095  -0.29838  -0.29000  -0.28619  -0.28191
 Alpha  occ. eigenvalues --   -0.27766  -0.27316  -0.26038  -0.25035  -0.24539
 Alpha  occ. eigenvalues --   -0.23291  -0.22975  -0.22183  -0.21760  -0.17954
 Alpha virt. eigenvalues --   -0.13966  -0.08131  -0.04387  -0.01995  -0.01568
 Alpha virt. eigenvalues --    0.00324   0.00476   0.01512   0.02380   0.02757
 Alpha virt. eigenvalues --    0.02933   0.03301   0.03812   0.04446   0.04689

 Mulliken charges:
               1
     1  O   -0.133926
     2  O   -0.169849
     3  O   -0.232538
     4  O   -0.070961
     5  O   -0.294293
     6  O   -0.220960
     7  N   -0.117848
     8  N   -0.332637
     9  N    0.105835
    10  N   -0.367185
    11  C    0.076699
    12  C    0.231814
    13  C   -0.117521
    14  C   -0.145655
    15  C   -0.062117
    16  C   -0.012536
    17  C   -0.188155
    18  C    0.084578
    19  C   -0.073626
    20  C   -0.082372
    21  C    0.099770
    22  C    0.154093
    23  C   -0.076144
    24  C    0.041930
    25  C    0.168123
    26  C   -0.154771
    27  C    0.057071
    28  C    0.080681
    29  C    0.249598
    30  C    0.041561
    31  C   -0.124544
    32  C    0.052646
    33  C   -0.078186
    34  C    0.110752
    35  C    0.154553
    36  C   -0.015814
    37  C    0.129390
    38  C    0.114852
    39  C   -0.198149
    40  C    0.212709
    41  C   -0.114544
    42  C   -0.009225
    43  C   -0.110600
    44  H    0.027025
    45  H   -0.047244
    46  H    0.025281
    47  H    0.128442
    48  H    0.176602
    49  H    0.038881
    50  H   -0.015936
    51  H    0.039158
    52  H    0.043388
    53  H    0.001557
    54  H    0.079843
    55  H   -0.062186
    56  H    0.043099
    57  H    0.030231
    58  H    0.065804
    59  H   -0.022707
    60  H   -0.011090
    61  H   -0.003838
    62  H    0.011314
    63  H   -0.047973
    64  H    0.057317
    65  H    0.052321
    66  H    0.014959
    67  H    0.068124
    68  H    0.042723
    69  H   -0.030335
    70  H   -0.005950
    71  H    0.010493
    72  H    0.120323
    73  H    0.052523
    74  H    0.057064
    75  H    0.045359
    76  H    0.057066
    77  H    0.185928
    78  H    0.038474
    79  H    0.071462
 Sum of Mulliken charges =  -0.00000

 Dipole moment (field-independent basis, Debye):
    X=              4.3933    Y=              1.0808    Z=             -1.8945  Tot=              4.9049
 Quadrupole moment (field-independent basis, Debye-Ang):
   XX=           -225.1700   YY=           -249.1869   ZZ=           -267.0790
   XY=             -6.9513   XZ=            -18.9755   YZ=            -21.8059

 Normal termination of Gaussian 16 at Sat Jul 27 22:13:01 2019.
