 Gaussian 16, Revision A.03,
 Gaussian 16:  ES64L-G16RevA.03 25-Dec-2016

 --------------------------
 # td=(NStates=1) B3LYP/SVP
 --------------------------

 --
 TD
 --
 Symbolic Z-matrix:
 Charge =  0 Multiplicity = 1

                         Standard orientation:
 ---------------------------------------------------------------------
 Center     Atomic      Atomic             Coordinates (Angstroms)
 Number     Number       Type             X           Y           Z
 ---------------------------------------------------------------------
      1          8           0        5.472666    0.136549   -3.201640
      2          8           0       -3.301863   -2.743935    2.994458
      3          8           0       -3.408595   -0.432081    3.067533
      4          8           0       -1.674077    7.079726    1.437953
      5          8           0       -0.546889    6.997863   -0.475267
      6          8           0       -1.664262   -4.047003    0.041596
      7          7           0        2.266754    0.872118    0.626848
      8          7           0        4.406590   -0.384432   -1.222739
      9          7           0       -1.838349    0.615599   -0.444865
     10          7           0       -2.387147   -1.929598   -0.563776
     11          6           0        4.779962   -1.266496   -0.044045
     12          6           0        4.381503   -0.274647    1.229263
     13          6           0        2.874612   -0.047955    1.370299
     14          6           0        1.924442   -0.674128    2.085725
     15          6           0        0.672684   -0.127283    1.835772
     16          6           0        0.856641    0.951339    0.848284
     17          6           0        6.325110   -1.405161   -0.122038
     18          6           0       -0.667640   -0.178259    2.632308
     19          6           0        6.690392   -0.903062   -1.331821
     20          6           0        0.238199    1.946096    0.229243
     21          6           0       -1.131703    1.838310   -0.353341
     22          6           0        5.468236   -0.202989   -2.074536
     23          6           0       -1.949702    2.886355   -0.910467
     24          6           0        1.961022   -1.653168    3.339403
     25          6           0        7.071314   -2.150256    0.802388
     26          6           0       -3.165705    2.377989   -1.337258
     27          6           0       -1.186520   -1.583361    2.642421
     28          6           0       -3.051757    0.956594   -1.121299
     29          6           0       -1.609926    4.365854   -1.019139
     30          6           0        8.030637   -0.671706   -1.874734
     31          6           0       -1.812812    4.988103    0.372877
     32          6           0       -4.378139    3.009230   -2.009178
     33          6           0       -3.897674   -0.159294   -1.471804
     34          6           0       -2.721516   -1.447857    2.869726
     35          6           0       -3.554746   -1.548449   -1.085931
     36          6           0        9.283595   -0.928473   -1.248377
     37          6           0       -1.314590    6.421668    0.333331
     38          6           0       -4.459754   -2.629491   -1.438842
     39          6           0       -3.837368   -3.825520   -1.069491
     40          6           0       -2.526544   -3.338824   -0.473913
     41          6           0       -5.715366   -2.516774   -2.149360
     42          6           0       -4.157216   -5.311188   -1.180285
     43          6           0       -6.684023   -3.544917   -2.383519
     44          1           0        4.321346   -2.323626   -0.103463
     45          1           0        4.898492    0.682911    1.129112
     46          1           0        4.638532   -0.890402    2.086921
     47          1           0        2.637400    1.309821   -0.171700
     48          1           0        3.336636   -0.251103   -1.258309
     49          1           0       -0.613106    0.590060    3.501677
     50          1           0       -1.490701    0.362771    2.235253
     51          1           0        0.879745    2.799353   -0.259861
     52          1           0        2.965677   -1.983243    3.661747
     53          1           0        1.359325   -1.177111    4.360869
     54          1           0        1.446056   -2.544573    2.830023
     55          1           0        6.198932   -2.565806    1.508477
     56          1           0        7.411792   -1.368395    1.397883
     57          1           0        7.796181   -2.982246    0.347928
     58          1           0       -0.854636   -2.046049    1.759229
     59          1           0       -0.784806   -2.149356    3.608457
     60          1           0       -1.480373   -0.378421   -0.186039
     61          1           0       -2.379189    4.655474   -1.966910
     62          1           0       -0.301814    4.584843   -1.267871
     63          1           0        8.176598   -0.113136   -2.963919
     64          1           0       -0.960325    4.279125    1.123849
     65          1           0       -2.798698    4.849203    0.801100
     66          1           0       -4.006451    4.255440   -2.027528
     67          1           0       -5.254745    3.014198   -1.303633
     68          1           0       -4.453950    2.559937   -3.061206
     69          1           0       -4.898474   -0.138001   -2.106606
     70          1           0        9.498780   -1.413638   -0.244541
     71          1           0       10.182621   -0.524947   -1.823457
     72          1           0       -4.229154   -2.605033    3.186209
     73          1           0       -6.114986   -1.520471   -2.514363
     74          1           0       -5.071330   -5.766957   -0.863217
     75          1           0       -4.036457   -5.394921   -2.211593
     76          1           0       -3.457986   -5.900595   -0.644881
     77          1           0       -1.060651    8.030200    1.216179
     78          1           0       -7.608207   -3.575543   -2.924894
     79          1           0       -6.456730   -4.618218   -1.886238
 ---------------------------------------------------------------------

 SCF Done:  E(RB3LYP) =  -1947.73319434     A.U. after   19 cycles

 Excitation energies and oscillator strengths:

 Excited State   1:      Singlet-A      1.8341 eV  676.01 nm  f=0.4933  <S**2>=0.000
     155 ->156         0.71244
     155 <-156        -0.17004
 This state for optimization and/or second-order correction.
 Total Energy, E(TD-HF/TD-DFT) =  -1947.66579354
 Copying the excited state density for this state as the 1-particle RhoCI density.

 The electronic state is 1-A.
 Alpha  occ. eigenvalues --  -19.19487 -19.16459 -19.13440 -19.13265 -19.10787
 Alpha  occ. eigenvalues --  -19.09978 -14.38732 -14.36456 -14.36426 -14.29473
 Alpha  occ. eigenvalues --  -10.32858 -10.32443 -10.29374 -10.26936 -10.26275
 Alpha  occ. eigenvalues --  -10.24936 -10.24859 -10.24383 -10.24139 -10.24022
 Alpha  occ. eigenvalues --  -10.23466 -10.23400 -10.23294 -10.23195 -10.22871
 Alpha  occ. eigenvalues --  -10.22477 -10.22178 -10.22119 -10.21908 -10.21602
 Alpha  occ. eigenvalues --  -10.21367 -10.21143 -10.21055 -10.21028 -10.20863
 Alpha  occ. eigenvalues --  -10.20722 -10.20602 -10.20461 -10.20416 -10.20316
 Alpha  occ. eigenvalues --  -10.20134 -10.19643 -10.18116  -1.09154  -1.06428
 Alpha  occ. eigenvalues --   -1.04657  -1.00530  -1.00472  -0.98686  -0.98302
 Alpha  occ. eigenvalues --   -0.95805  -0.93317  -0.91647  -0.83256  -0.82433
 Alpha  occ. eigenvalues --   -0.82282  -0.82094  -0.79788  -0.78572  -0.77700
 Alpha  occ. eigenvalues --   -0.77113  -0.76062  -0.75020  -0.73918  -0.71249
 Alpha  occ. eigenvalues --   -0.70904  -0.70049  -0.69655  -0.68831  -0.67311
 Alpha  occ. eigenvalues --   -0.66495  -0.65436  -0.63240  -0.61164  -0.60603
 Alpha  occ. eigenvalues --   -0.58967  -0.57962  -0.57861  -0.57089  -0.57029
 Alpha  occ. eigenvalues --   -0.56074  -0.55046  -0.54127  -0.52840  -0.52295
 Alpha  occ. eigenvalues --   -0.51970  -0.51664  -0.50335  -0.49965  -0.49187
 Alpha  occ. eigenvalues --   -0.49020  -0.48710  -0.48325  -0.47470  -0.47202
 Alpha  occ. eigenvalues --   -0.46931  -0.46568  -0.46260  -0.46069  -0.45687
 Alpha  occ. eigenvalues --   -0.45383  -0.45139  -0.44849  -0.44328  -0.43929
 Alpha  occ. eigenvalues --   -0.43304  -0.43226  -0.43006  -0.42526  -0.41838
 Alpha  occ. eigenvalues --   -0.41717  -0.41409  -0.41373  -0.41266  -0.41001
 Alpha  occ. eigenvalues --   -0.40605  -0.40371  -0.40232  -0.39774  -0.39612
 Alpha  occ. eigenvalues --   -0.39360  -0.39057  -0.38709  -0.38384  -0.38216
 Alpha  occ. eigenvalues --   -0.38031  -0.37774  -0.37599  -0.37369  -0.37090
 Alpha  occ. eigenvalues --   -0.36908  -0.35616  -0.34758  -0.33888  -0.33627
 Alpha  occ. eigenvalues --   -0.33314  -0.32897  -0.31947  -0.31832  -0.31601
 Alpha  occ. eigenvalues --   -0.30979  -0.30548  -0.28946  -0.28753  -0.28338
 Alpha  occ. eigenvalues --   -0.28253  -0.27255  -0.26487  -0.25793  -0.25737
 Alpha  occ. eigenvalues --   -0.24500  -0.23927  -0.23360  -0.21768  -0.18056
 Alpha virt. eigenvalues --   -0.11431  -0.07315  -0.06077  -0.02744  -0.01643
 Alpha virt. eigenvalues --   -0.00901   0.00364   0.00781   0.01239   0.01334
 Alpha virt. eigenvalues --    0.02395   0.02937   0.03315   0.03570   0.04502

 Mulliken charges:
               1
     1  O   -0.168867
     2  O   -0.222433
     3  O   -0.248625
     4  O   -0.242059
     5  O   -0.285567
     6  O   -0.212942
     7  N   -0.067566
     8  N   -0.261788
     9  N   -0.178063
    10  N   -0.280314
    11  C    0.008316
    12  C    0.214458
    13  C   -0.116981
    14  C   -0.096905
    15  C   -0.095046
    16  C    0.136702
    17  C   -0.170864
    18  C    0.052618
    19  C   -0.066192
    20  C   -0.167218
    21  C    0.064521
    22  C    0.179492
    23  C   -0.073812
    24  C   -0.004062
    25  C    0.113384
    26  C   -0.116403
    27  C    0.006932
    28  C    0.160145
    29  C   -0.065565
    30  C   -0.074789
    31  C   -0.055401
    32  C    0.026811
    33  C   -0.154306
    34  C    0.191694
    35  C    0.063749
    36  C   -0.091341
    37  C    0.200505
    38  C    0.046921
    39  C   -0.194274
    40  C    0.142396
    41  C   -0.063056
    42  C    0.147978
    43  C   -0.079728
    44  H    0.065660
    45  H    0.015215
    46  H   -0.008336
    47  H    0.093187
    48  H    0.149773
    49  H    0.029960
    50  H    0.000289
    51  H    0.031638
    52  H    0.012338
    53  H    0.071008
    54  H    0.063429
    55  H    0.015394
    56  H    0.018868
    57  H    0.090135
    58  H    0.065454
    59  H    0.062077
    60  H    0.195585
    61  H    0.071439
    62  H    0.068676
    63  H    0.061970
    64  H    0.096655
    65  H    0.045130
    66  H    0.026442
    67  H    0.059202
    68  H    0.072781
    69  H    0.009336
    70  H    0.035591
    71  H    0.041859
    72  H    0.168765
    73  H    0.011772
    74  H    0.027612
    75  H    0.019455
    76  H    0.008054
    77  H    0.242320
    78  H    0.028694
    79  H    0.030119
 Sum of Mulliken charges =  -0.00000

 Dipole moment (field-independent basis, Debye):
    X=              0.6776    Y=              1.0139    Z=              3.4457  Tot=              3.6551
 Quadrupole moment (field-independent basis, Debye-Ang):
   XX=           -225.5366   YY=           -255.8097   ZZ=           -264.6790
   XY=             -7.8251   XZ=             33.6591   YZ=              3.3237

 Normal termination of Gaussian 16 at Thu Sep 19 20:30:25 2019.
