 Gaussian 16, Revision A.03,
 Gaussian 16:  ES64L-G16RevA.03 25-Dec-2016

 --------------------------
 # td=(NStates=1) B3LYP/SVP
 --------------------------

 --
 TD
 --
 Symbolic Z-matrix:
 Charge =  0 Multiplicity = 1

                         Standard orientation:
 ---------------------------------------------------------------------
 Center     Atomic      Atomic             Coordinates (Angstroms)
 Number     Number       Type             X           Y           Z
 ---------------------------------------------------------------------
      1          8           0        5.548507    0.069575   -3.296053
      2          8           0       -3.177394   -2.955463    3.195924
      3          8           0       -3.322909   -0.713919    3.185649
      4          8           0       -1.597605    6.943550    1.631965
      5          8           0       -0.665097    7.009594   -0.403109
      6          8           0       -1.773062   -3.934063    0.077675
      7          7           0        2.331233    0.899214    0.622009
      8          7           0        4.445076   -0.520737   -1.293523
      9          7           0       -1.766277    0.698508   -0.578356
     10          7           0       -2.571617   -1.824819   -0.611416
     11          6           0        4.780057   -1.194729   -0.006646
     12          6           0        4.335465   -0.394497    1.206344
     13          6           0        2.940642   -0.142460    1.318910
     14          6           0        1.888148   -0.681973    2.072383
     15          6           0        0.636709   -0.100643    1.822005
     16          6           0        1.016036    0.977740    0.754027
     17          6           0        6.328865   -1.411248   -0.179297
     18          6           0       -0.635169   -0.220852    2.576737
     19          6           0        6.747370   -0.888328   -1.333471
     20          6           0        0.188809    2.002895    0.144534
     21          6           0       -1.088898    1.784843   -0.410928
     22          6           0        5.518453   -0.350852   -2.150398
     23          6           0       -1.920112    2.900780   -0.902663
     24          6           0        2.128787   -1.756684    3.099659
     25          6           0        7.170418   -2.051113    0.919031
     26          6           0       -3.159829    2.417138   -1.383074
     27          6           0       -1.175143   -1.635208    2.562387
     28          6           0       -3.045933    0.902917   -1.165643
     29          6           0       -1.509582    4.332081   -0.851430
     30          6           0        8.048990   -0.764832   -1.886418
     31          6           0       -1.570797    4.946323    0.541958
     32          6           0       -4.350128    3.019990   -1.957082
     33          6           0       -4.037229   -0.032483   -1.386344
     34          6           0       -2.696571   -1.708516    2.925954
     35          6           0       -3.743638   -1.420270   -1.149731
     36          6           0        9.294908   -0.855400   -1.313528
     37          6           0       -1.184463    6.470238    0.448747
     38          6           0       -4.685084   -2.558492   -1.422415
     39          6           0       -3.999559   -3.736529   -1.024176
     40          6           0       -2.691839   -3.332277   -0.378474
     41          6           0       -5.935781   -2.309437   -2.153404
     42          6           0       -4.369654   -5.175595   -1.194373
     43          6           0       -6.790590   -3.210478   -2.603669
     44          1           0        4.144605   -2.221705    0.011132
     45          1           0        4.851546    0.665158    1.173421
     46          1           0        4.831431   -0.855049    2.029327
     47          1           0        2.861758    1.448585   -0.084931
     48          1           0        3.589958   -0.296291   -1.679055
     49          1           0       -0.604009    0.081524    3.605891
     50          1           0       -1.521249    0.419791    2.142876
     51          1           0        0.670517    3.012435    0.025192
     52          1           0        3.241758   -1.678262    3.201635
     53          1           0        1.381183   -1.576383    3.938616
     54          1           0        1.718593   -2.801742    2.746012
     55          1           0        6.485875   -2.660076    1.605350
     56          1           0        7.739562   -1.339281    1.535726
     57          1           0        8.008680   -2.691420    0.566537
     58          1           0       -0.886201   -2.206957    1.659772
     59          1           0       -0.716562   -2.184428    3.354581
     60          1           0       -1.620768   -0.304908   -0.435029
     61          1           0       -1.989142    5.100375   -1.606872
     62          1           0       -0.442039    4.472168   -1.343754
     63          1           0        8.225775   -0.731656   -3.087968
     64          1           0       -0.782061    4.448031    1.377703
     65          1           0       -2.538171    4.785041    0.960912
     66          1           0       -4.059727    4.051160   -2.272304
     67          1           0       -5.341416    3.100791   -1.279679
     68          1           0       -4.434515    2.276150   -2.898480
     69          1           0       -4.859276    0.341848   -1.912984
     70          1           0        9.329740   -1.008053   -0.103494
     71          1           0       10.070544   -0.763048   -2.241777
     72          1           0       -4.117173   -2.976564    3.490010
     73          1           0       -6.234333   -1.146000   -2.078212
     74          1           0       -5.396243   -5.380255   -0.922291
     75          1           0       -4.419364   -5.194721   -2.327400
     76          1           0       -3.542309   -5.651974   -0.778210
     77          1           0       -1.129815    7.680779    1.712304
     78          1           0       -7.788447   -3.051966   -3.060050
     79          1           0       -6.499069   -4.214729   -2.368974
 ---------------------------------------------------------------------

 SCF Done:  E(RB3LYP) =  -1947.87359141     A.U. after   16 cycles

 Excitation energies and oscillator strengths:

 Excited State   1:      Singlet-A      1.7883 eV  693.31 nm  f=0.3559  <S**2>=0.000
     155 ->156         0.70267
     155 <-156        -0.11891
 This state for optimization and/or second-order correction.
 Total Energy, E(TD-HF/TD-DFT) =  -1947.80787294
 Copying the excited state density for this state as the 1-particle RhoCI density.

 The electronic state is 1-A.
 Alpha  occ. eigenvalues --  -19.18034 -19.16877 -19.14873 -19.12670 -19.11311
 Alpha  occ. eigenvalues --  -19.10529 -14.38977 -14.35762 -14.35480 -14.29195
 Alpha  occ. eigenvalues --  -10.32376 -10.30918 -10.28941 -10.28131 -10.26709
 Alpha  occ. eigenvalues --  -10.24274 -10.23971 -10.23413 -10.23355 -10.22488
 Alpha  occ. eigenvalues --  -10.22083 -10.21957 -10.21935 -10.21766 -10.21752
 Alpha  occ. eigenvalues --  -10.21501 -10.21402 -10.21273 -10.21201 -10.21157
 Alpha  occ. eigenvalues --  -10.21129 -10.20918 -10.20821 -10.20640 -10.20182
 Alpha  occ. eigenvalues --  -10.20024 -10.19916 -10.19438 -10.19281 -10.18980
 Alpha  occ. eigenvalues --  -10.18763 -10.18537 -10.18442  -1.13941  -1.07650
 Alpha  occ. eigenvalues --   -1.06180  -1.04173  -1.02215  -0.99168  -0.98901
 Alpha  occ. eigenvalues --   -0.98203  -0.93667  -0.89907  -0.82433  -0.81819
 Alpha  occ. eigenvalues --   -0.81610  -0.80887  -0.80498  -0.79729  -0.77236
 Alpha  occ. eigenvalues --   -0.76865  -0.76191  -0.75380  -0.74480  -0.71898
 Alpha  occ. eigenvalues --   -0.71263  -0.70098  -0.69877  -0.68664  -0.67446
 Alpha  occ. eigenvalues --   -0.66308  -0.65901  -0.63806  -0.61207  -0.60505
 Alpha  occ. eigenvalues --   -0.60323  -0.59596  -0.58258  -0.57670  -0.56489
 Alpha  occ. eigenvalues --   -0.55480  -0.55333  -0.54433  -0.53788  -0.52726
 Alpha  occ. eigenvalues --   -0.51337  -0.51094  -0.50648  -0.50434  -0.49624
 Alpha  occ. eigenvalues --   -0.49060  -0.48851  -0.48559  -0.47592  -0.47497
 Alpha  occ. eigenvalues --   -0.47186  -0.46767  -0.46419  -0.46106  -0.45803
 Alpha  occ. eigenvalues --   -0.45195  -0.44813  -0.44622  -0.44396  -0.44051
 Alpha  occ. eigenvalues --   -0.43558  -0.43292  -0.42750  -0.42735  -0.42353
 Alpha  occ. eigenvalues --   -0.42098  -0.41809  -0.41717  -0.41261  -0.41145
 Alpha  occ. eigenvalues --   -0.40801  -0.40392  -0.40242  -0.39980  -0.39801
 Alpha  occ. eigenvalues --   -0.39533  -0.39321  -0.39018  -0.38862  -0.38304
 Alpha  occ. eigenvalues --   -0.38033  -0.37755  -0.37304  -0.37194  -0.36422
 Alpha  occ. eigenvalues --   -0.36126  -0.35428  -0.35154  -0.35077  -0.34985
 Alpha  occ. eigenvalues --   -0.34340  -0.34049  -0.32309  -0.31637  -0.31334
 Alpha  occ. eigenvalues --   -0.31143  -0.31018  -0.29960  -0.28621  -0.27901
 Alpha  occ. eigenvalues --   -0.26757  -0.26690  -0.25715  -0.24773  -0.24560
 Alpha  occ. eigenvalues --   -0.24418  -0.24270  -0.23426  -0.21878  -0.17956
 Alpha virt. eigenvalues --   -0.10935  -0.06654  -0.05701  -0.00493   0.00735
 Alpha virt. eigenvalues --    0.01337   0.01536   0.01691   0.02654   0.03500
 Alpha virt. eigenvalues --    0.03745   0.03951   0.04078   0.05007   0.05210

 Mulliken charges:
               1
     1  O   -0.216026
     2  O   -0.212644
     3  O   -0.224664
     4  O   -0.107754
     5  O   -0.125427
     6  O   -0.151827
     7  N   -0.038969
     8  N   -0.202139
     9  N   -0.007016
    10  N   -0.373547
    11  C    0.078129
    12  C    0.147955
    13  C   -0.039991
    14  C   -0.158508
    15  C   -0.054383
    16  C    0.007368
    17  C   -0.143074
    18  C    0.066170
    19  C   -0.005239
    20  C   -0.134446
    21  C    0.109507
    22  C    0.154668
    23  C   -0.069228
    24  C    0.063730
    25  C    0.041907
    26  C   -0.083062
    27  C   -0.031253
    28  C    0.040825
    29  C   -0.011208
    30  C   -0.101233
    31  C   -0.063819
    32  C    0.004922
    33  C   -0.048501
    34  C    0.153118
    35  C    0.101659
    36  C   -0.098218
    37  C    0.094716
    38  C    0.045432
    39  C   -0.271187
    40  C    0.195329
    41  C   -0.048561
    42  C    0.147982
    43  C   -0.013361
    44  H    0.050287
    45  H    0.009990
    46  H   -0.015740
    47  H    0.118988
    48  H    0.100922
    49  H    0.002011
    50  H    0.042841
    51  H    0.010463
    52  H    0.015407
    53  H    0.024884
    54  H    0.043123
    55  H    0.032229
    56  H    0.040847
    57  H    0.040112
    58  H    0.065842
    59  H    0.003026
    60  H    0.136185
    61  H    0.029191
    62  H    0.026463
    63  H    0.046850
    64  H    0.065736
    65  H    0.028454
    66  H    0.022340
    67  H    0.068967
    68  H    0.059281
    69  H   -0.051764
    70  H    0.042025
    71  H    0.066437
    72  H    0.189766
    73  H    0.033812
    74  H    0.035776
    75  H    0.039716
    76  H    0.018403
    77  H    0.108809
    78  H    0.037879
    79  H   -0.007688
 Sum of Mulliken charges =  -0.00000

 Dipole moment (field-independent basis, Debye):
    X=             -1.0117    Y=              0.9506    Z=              2.8712  Tot=              3.1892
 Quadrupole moment (field-independent basis, Debye-Ang):
   XX=           -221.9458   YY=           -242.4504   ZZ=           -263.9915
   XY=             -0.3929   XZ=             31.8307   YZ=              5.3104

 Normal termination of Gaussian 16 at Thu Oct 10 06:28:56 2019.
