 Gaussian 16, Revision A.03,
 Gaussian 16:  ES64L-G16RevA.03 25-Dec-2016

 --------------------------
 # td=(NStates=1) B3LYP/SVP
 --------------------------

 --
 TD
 --
 Symbolic Z-matrix:
 Charge =  0 Multiplicity = 1

                         Standard orientation:
 ---------------------------------------------------------------------
 Center     Atomic      Atomic             Coordinates (Angstroms)
 Number     Number       Type             X           Y           Z
 ---------------------------------------------------------------------
      1          8           0        5.470800    0.232439   -3.232414
      2          8           0       -3.305275   -3.017899    3.210753
      3          8           0       -3.316617   -0.775936    3.056320
      4          8           0       -1.261421    7.126799    1.802755
      5          8           0       -0.479577    7.122447   -0.306978
      6          8           0       -1.753306   -3.769350   -0.145594
      7          7           0        2.323418    0.804746    0.716366
      8          7           0        4.424961   -0.496482   -1.273126
      9          7           0       -1.929897    0.716381   -0.366373
     10          7           0       -2.678271   -1.771068   -0.536723
     11          6           0        4.760348   -1.191721   -0.018196
     12          6           0        4.416536   -0.439217    1.268502
     13          6           0        2.915059   -0.245374    1.360679
     14          6           0        1.909783   -0.915040    2.057870
     15          6           0        0.674741   -0.258669    1.851342
     16          6           0        0.885851    0.857697    0.937232
     17          6           0        6.171696   -1.526736   -0.285724
     18          6           0       -0.669720   -0.618926    2.452656
     19          6           0        6.626251   -0.933472   -1.427383
     20          6           0        0.179005    1.851932    0.278760
     21          6           0       -1.099073    1.836617   -0.189258
     22          6           0        5.508225   -0.298370   -2.140246
     23          6           0       -1.817162    2.993566   -0.853029
     24          6           0        2.082466   -2.129234    2.961617
     25          6           0        7.006787   -2.178150    0.839127
     26          6           0       -2.957120    2.437739   -1.351977
     27          6           0       -1.266491   -1.947794    2.666213
     28          6           0       -3.026973    1.067948   -1.063655
     29          6           0       -1.399574    4.432697   -0.762150
     30          6           0        8.023280   -0.806236   -2.015556
     31          6           0       -1.570112    5.102165    0.538376
     32          6           0       -4.045748    3.294953   -1.963978
     33          6           0       -4.075456    0.115096   -1.448619
     34          6           0       -2.760559   -1.827300    2.992926
     35          6           0       -3.790146   -1.354665   -1.208852
     36          6           0        9.209467   -0.815074   -1.356026
     37          6           0       -0.981444    6.593335    0.551472
     38          6           0       -4.602867   -2.446741   -1.591899
     39          6           0       -4.059577   -3.624382   -1.112868
     40          6           0       -2.691680   -3.221028   -0.578250
     41          6           0       -5.851694   -2.193878   -2.203165
     42          6           0       -4.382511   -5.050561   -1.262494
     43          6           0       -6.751297   -3.180119   -2.701152
     44          1           0        4.248648   -2.101646   -0.146785
     45          1           0        4.963661    0.550530    1.313930
     46          1           0        4.622003   -0.861449    2.189682
     47          1           0        2.824485    1.346341    0.113126
     48          1           0        3.425813   -0.153383   -1.650590
     49          1           0       -0.409569   -0.280232    3.354070
     50          1           0       -1.673080    0.053276    2.046373
     51          1           0        0.850646    2.618305    0.044180
     52          1           0        3.127205   -2.313580    3.210131
     53          1           0        1.476616   -1.981448    3.907827
     54          1           0        1.581528   -2.963308    2.302704
     55          1           0        6.439181   -2.829339    1.496758
     56          1           0        7.667650   -1.651263    1.483258
     57          1           0        7.780409   -2.975575    0.470672
     58          1           0       -1.143243   -2.606928    1.819316
     59          1           0       -0.950477   -2.480390    3.614569
     60          1           0       -1.711984   -0.320985   -0.402066
     61          1           0       -2.048528    5.135815   -1.456885
     62          1           0       -0.463415    4.586997   -1.320114
     63          1           0        8.042235   -0.788872   -3.014544
     64          1           0       -1.024110    4.672044    1.285038
     65          1           0       -2.605703    5.032596    0.755416
     66          1           0       -4.048018    4.492046   -2.264630
     67          1           0       -4.952044    3.033325   -1.202839
     68          1           0       -4.348957    2.827913   -2.966972
     69          1           0       -4.957390    0.615803   -1.984024
     70          1           0        9.185429   -0.982771   -0.192441
     71          1           0       10.164456   -0.678363   -1.837804
     72          1           0       -4.314672   -2.783239    3.332041
     73          1           0       -6.254938   -1.176776   -2.345699
     74          1           0       -5.243936   -5.226572   -0.886388
     75          1           0       -4.565146   -5.386632   -2.375415
     76          1           0       -3.573106   -5.806114   -0.729350
     77          1           0       -1.088381    8.155275    1.594305
     78          1           0       -7.779425   -2.856587   -2.962909
     79          1           0       -6.483902   -4.324209   -2.787452
 ---------------------------------------------------------------------

 SCF Done:  E(RB3LYP) =  -1947.84380658     A.U. after   16 cycles

 Excitation energies and oscillator strengths:

 Excited State   1:      Singlet-A      1.9026 eV  651.66 nm  f=0.3969  <S**2>=0.000
     154 ->156         0.12866
     155 ->156         0.69602
     155 <-156        -0.11704
 This state for optimization and/or second-order correction.
 Total Energy, E(TD-HF/TD-DFT) =  -1947.77388727
 Copying the excited state density for this state as the 1-particle RhoCI density.

 The electronic state is 1-A.
 Alpha  occ. eigenvalues --  -19.18495 -19.18272 -19.15038 -19.11544 -19.10892
 Alpha  occ. eigenvalues --  -19.09971 -14.37478 -14.35662 -14.35424 -14.28029
 Alpha  occ. eigenvalues --  -10.32418 -10.30354 -10.28235 -10.26320 -10.25003
 Alpha  occ. eigenvalues --  -10.23811 -10.23654 -10.23344 -10.23062 -10.22957
 Alpha  occ. eigenvalues --  -10.22590 -10.22486 -10.22133 -10.21175 -10.21005
 Alpha  occ. eigenvalues --  -10.20914 -10.20774 -10.20704 -10.20650 -10.20650
 Alpha  occ. eigenvalues --  -10.20491 -10.20487 -10.20427 -10.20189 -10.20092
 Alpha  occ. eigenvalues --  -10.20021 -10.19924 -10.19804 -10.19722 -10.19336
 Alpha  occ. eigenvalues --  -10.19079 -10.18323 -10.17887  -1.12422  -1.09394
 Alpha  occ. eigenvalues --   -1.04209  -1.02241  -1.02232  -1.00455  -0.97754
 Alpha  occ. eigenvalues --   -0.97369  -0.93757  -0.90736  -0.82484  -0.81855
 Alpha  occ. eigenvalues --   -0.81379  -0.80835  -0.79801  -0.79437  -0.77946
 Alpha  occ. eigenvalues --   -0.77009  -0.76097  -0.75591  -0.73904  -0.71538
 Alpha  occ. eigenvalues --   -0.71068  -0.69978  -0.69194  -0.68967  -0.67334
 Alpha  occ. eigenvalues --   -0.67011  -0.66237  -0.63797  -0.60613  -0.60388
 Alpha  occ. eigenvalues --   -0.58863  -0.58246  -0.57548  -0.57245  -0.56354
 Alpha  occ. eigenvalues --   -0.55877  -0.54969  -0.54418  -0.53980  -0.52971
 Alpha  occ. eigenvalues --   -0.51589  -0.51472  -0.50759  -0.50582  -0.50211
 Alpha  occ. eigenvalues --   -0.49592  -0.49244  -0.48823  -0.48228  -0.47609
 Alpha  occ. eigenvalues --   -0.47461  -0.47316  -0.47016  -0.46402  -0.45486
 Alpha  occ. eigenvalues --   -0.45104  -0.44684  -0.44199  -0.43662  -0.43591
 Alpha  occ. eigenvalues --   -0.43322  -0.43201  -0.42644  -0.42629  -0.42371
 Alpha  occ. eigenvalues --   -0.42042  -0.41988  -0.41270  -0.40996  -0.40920
 Alpha  occ. eigenvalues --   -0.40664  -0.40348  -0.40060  -0.39907  -0.39727
 Alpha  occ. eigenvalues --   -0.39620  -0.39373  -0.39137  -0.38758  -0.38651
 Alpha  occ. eigenvalues --   -0.38603  -0.38408  -0.38305  -0.37869  -0.37233
 Alpha  occ. eigenvalues --   -0.36330  -0.35490  -0.35174  -0.34986  -0.34656
 Alpha  occ. eigenvalues --   -0.34077  -0.33761  -0.32995  -0.32224  -0.30984
 Alpha  occ. eigenvalues --   -0.30582  -0.30507  -0.29599  -0.28153  -0.27224
 Alpha  occ. eigenvalues --   -0.27009  -0.26122  -0.25662  -0.25431  -0.24921
 Alpha  occ. eigenvalues --   -0.24153  -0.23842  -0.23333  -0.21373  -0.18130
 Alpha virt. eigenvalues --   -0.10571  -0.06862  -0.05874  -0.00944   0.00807
 Alpha virt. eigenvalues --    0.00961   0.01507   0.02939   0.02985   0.03205
 Alpha virt. eigenvalues --    0.03445   0.03702   0.04066   0.04994   0.05450

 Mulliken charges:
               1
     1  O   -0.215910
     2  O   -0.196063
     3  O   -0.216173
     4  O   -0.259564
     5  O   -0.116694
     6  O   -0.136847
     7  N   -0.081664
     8  N   -0.326460
     9  N   -0.071781
    10  N   -0.348719
    11  C    0.215999
    12  C    0.264710
    13  C   -0.130463
    14  C   -0.158980
    15  C   -0.051148
    16  C    0.086436
    17  C   -0.168209
    18  C    0.041225
    19  C   -0.058254
    20  C   -0.082838
    21  C    0.111862
    22  C    0.161778
    23  C   -0.064894
    24  C    0.074321
    25  C    0.045448
    26  C   -0.087131
    27  C    0.002805
    28  C    0.037251
    29  C    0.048891
    30  C    0.044550
    31  C    0.068424
    32  C   -0.036323
    33  C   -0.093282
    34  C    0.110590
    35  C    0.093308
    36  C   -0.036850
    37  C    0.107265
    38  C    0.100959
    39  C   -0.211949
    40  C    0.142024
    41  C   -0.077040
    42  C    0.107235
    43  C   -0.071585
    44  H    0.003137
    45  H    0.010389
    46  H   -0.023396
    47  H    0.071149
    48  H    0.162413
    49  H   -0.030096
    50  H    0.090460
    51  H   -0.036152
    52  H    0.003727
    53  H    0.029778
    54  H    0.064267
    55  H    0.002018
    56  H    0.032851
    57  H    0.030990
    58  H    0.058814
    59  H    0.018456
    60  H    0.166702
    61  H    0.002986
    62  H    0.015138
    63  H   -0.029392
    64  H    0.002417
    65  H    0.029814
    66  H    0.064312
    67  H    0.048874
    68  H    0.033594
    69  H    0.002659
    70  H    0.028116
    71  H    0.030420
    72  H    0.205532
    73  H    0.005547
    74  H   -0.034842
    75  H    0.042499
    76  H    0.053373
    77  H    0.204438
    78  H    0.032097
    79  H    0.040646
 Sum of Mulliken charges =  -0.00000

 Dipole moment (field-independent basis, Debye):
    X=              0.2790    Y=              1.2079    Z=              3.3645  Tot=              3.5856
 Quadrupole moment (field-independent basis, Debye-Ang):
   XX=           -218.5122   YY=           -237.6121   ZZ=           -263.0661
   XY=             -9.9410   XZ=             31.6440   YZ=             -0.2169

 Normal termination of Gaussian 16 at Sat Sep 14 12:46:40 2019.
