 Gaussian 16, Revision A.03,
 Gaussian 16:  ES64L-G16RevA.03 25-Dec-2016

 --------------------------
 # td=(NStates=1) B3LYP/SVP
 --------------------------

 --
 TD
 --
 Symbolic Z-matrix:
 Charge =  0 Multiplicity = 1

                         Standard orientation:
 ---------------------------------------------------------------------
 Center     Atomic      Atomic             Coordinates (Angstroms)
 Number     Number       Type             X           Y           Z
 ---------------------------------------------------------------------
      1          8           0        5.193439   -0.039513   -3.283143
      2          8           0       -3.004603   -2.889699    3.106388
      3          8           0       -3.267426   -0.686390    3.094596
      4          8           0       -1.666120    7.332889    1.327446
      5          8           0       -0.728995    6.883287   -0.724931
      6          8           0       -1.632662   -4.000274   -0.044934
      7          7           0        2.394941    0.954438    0.671513
      8          7           0        4.344743   -0.534608   -1.262338
      9          7           0       -1.891434    0.675117   -0.243173
     10          7           0       -2.554392   -1.909563   -0.629559
     11          6           0        4.799241   -1.181193   -0.013351
     12          6           0        4.394427   -0.366569    1.316815
     13          6           0        2.962040   -0.051542    1.552929
     14          6           0        1.969772   -0.673385    2.350112
     15          6           0        0.759119    0.062336    1.909675
     16          6           0        0.984157    1.032849    0.860965
     17          6           0        6.279872   -1.244060   -0.183094
     18          6           0       -0.622470   -0.110776    2.559576
     19          6           0        6.562306   -0.818293   -1.419601
     20          6           0        0.100486    1.921736    0.145345
     21          6           0       -1.166345    1.850644   -0.245360
     22          6           0        5.370223   -0.377194   -2.141701
     23          6           0       -2.023560    2.834210   -0.920165
     24          6           0        2.164266   -1.742708    3.323543
     25          6           0        7.113957   -1.871640    0.928476
     26          6           0       -3.207313    2.279412   -1.248676
     27          6           0       -1.073186   -1.538471    2.630883
     28          6           0       -3.157086    0.863099   -0.928531
     29          6           0       -1.546248    4.249712   -0.899538
     30          6           0        7.884057   -0.701436   -2.128646
     31          6           0       -1.838699    5.127226    0.321008
     32          6           0       -4.404600    2.992448   -1.727372
     33          6           0       -4.006286   -0.153544   -1.315761
     34          6           0       -2.505503   -1.652386    2.892815
     35          6           0       -3.654075   -1.520888   -1.128145
     36          6           0        9.168743   -0.747875   -1.608132
     37          6           0       -1.316039    6.567380    0.271725
     38          6           0       -4.501741   -2.767950   -1.488718
     39          6           0       -3.765096   -3.813776   -1.139746
     40          6           0       -2.494218   -3.338034   -0.518720
     41          6           0       -5.747474   -2.618266   -2.203717
     42          6           0       -4.083484   -5.226501   -1.118243
     43          6           0       -6.595561   -3.651483   -2.493661
     44          1           0        4.531124   -2.205054   -0.018499
     45          1           0        4.981564    0.631014    1.058484
     46          1           0        4.859752   -0.734100    2.164451
     47          1           0        3.117056    1.559215    0.096850
     48          1           0        3.312125   -0.544579   -1.549695
     49          1           0       -0.456908    0.149438    3.591812
     50          1           0       -1.428847    0.575918    2.013114
     51          1           0        0.729876    2.756193   -0.308600
     52          1           0        3.327339   -1.927607    3.509484
     53          1           0        1.647760   -1.402393    4.198327
     54          1           0        1.501829   -2.487169    2.914249
     55          1           0        6.455265   -2.611492    1.348010
     56          1           0        7.308423   -1.145482    1.833164
     57          1           0        7.972226   -2.498772    0.740087
     58          1           0       -0.960796   -2.062134    1.645034
     59          1           0       -0.726955   -2.227705    3.401477
     60          1           0       -1.561745   -0.325354   -0.120390
     61          1           0       -2.125686    4.826666   -1.559165
     62          1           0       -0.529317    4.118888   -1.201433
     63          1           0        7.912652   -0.446885   -3.301118
     64          1           0       -1.474737    4.525782    1.079654
     65          1           0       -2.908994    5.163393    0.468585
     66          1           0       -4.048450    4.009628   -1.861154
     67          1           0       -5.261682    3.068385   -1.197756
     68          1           0       -4.599692    2.760419   -2.765588
     69          1           0       -5.054742    0.090126   -1.667784
     70          1           0        9.348698   -0.815578   -0.534464
     71          1           0       10.065877   -0.652012   -2.093330
     72          1           0       -4.069674   -2.701384    3.340595
     73          1           0       -6.149387   -1.587488   -2.514406
     74          1           0       -5.016624   -5.414981   -0.332530
     75          1           0       -4.430762   -5.699026   -2.070170
     76          1           0       -3.162345   -5.716355   -0.682481
     77          1           0       -1.488705    8.369230    0.987925
     78          1           0       -7.465149   -3.448437   -2.918191
     79          1           0       -6.178510   -4.728873   -2.410947
 ---------------------------------------------------------------------

 SCF Done:  E(RB3LYP) =  -1947.89367531     A.U. after   16 cycles

 Excitation energies and oscillator strengths:

 Excited State   1:      Singlet-A      2.0722 eV  598.31 nm  f=0.4387  <S**2>=0.000
     155 ->156         0.70281
     155 <-156        -0.10282
 This state for optimization and/or second-order correction.
 Total Energy, E(TD-HF/TD-DFT) =  -1947.81752210
 Copying the excited state density for this state as the 1-particle RhoCI density.

 The electronic state is 1-A.
 Alpha  occ. eigenvalues --  -19.20538 -19.17359 -19.13491 -19.12093 -19.10235
 Alpha  occ. eigenvalues --  -19.09233 -14.38082 -14.35687 -14.35200 -14.28888
 Alpha  occ. eigenvalues --  -10.32892 -10.30148 -10.27682 -10.27253 -10.24724
 Alpha  occ. eigenvalues --  -10.24597 -10.23781 -10.23450 -10.23137 -10.23049
 Alpha  occ. eigenvalues --  -10.22315 -10.22225 -10.21736 -10.21506 -10.21414
 Alpha  occ. eigenvalues --  -10.20801 -10.20653 -10.20551 -10.20457 -10.20455
 Alpha  occ. eigenvalues --  -10.20175 -10.19929 -10.19916 -10.19722 -10.19656
 Alpha  occ. eigenvalues --  -10.19342 -10.19313 -10.19300 -10.19255 -10.19233
 Alpha  occ. eigenvalues --  -10.19087 -10.18843 -10.18539  -1.09672  -1.06732
 Alpha  occ. eigenvalues --   -1.04314  -1.02935  -1.01765  -0.96359  -0.96205
 Alpha  occ. eigenvalues --   -0.94687  -0.93696  -0.93386  -0.82903  -0.81810
 Alpha  occ. eigenvalues --   -0.81697  -0.81031  -0.80784  -0.79399  -0.77770
 Alpha  occ. eigenvalues --   -0.77558  -0.76577  -0.75323  -0.74240  -0.72724
 Alpha  occ. eigenvalues --   -0.71896  -0.71597  -0.69430  -0.68961  -0.68149
 Alpha  occ. eigenvalues --   -0.66417  -0.65994  -0.64114  -0.60678  -0.60444
 Alpha  occ. eigenvalues --   -0.59540  -0.58661  -0.58152  -0.56786  -0.56331
 Alpha  occ. eigenvalues --   -0.55079  -0.54786  -0.54370  -0.53693  -0.53115
 Alpha  occ. eigenvalues --   -0.51969  -0.51407  -0.51193  -0.50901  -0.50122
 Alpha  occ. eigenvalues --   -0.49152  -0.48817  -0.48558  -0.47847  -0.47682
 Alpha  occ. eigenvalues --   -0.46932  -0.46685  -0.46492  -0.46140  -0.45655
 Alpha  occ. eigenvalues --   -0.45481  -0.44953  -0.44455  -0.44036  -0.43949
 Alpha  occ. eigenvalues --   -0.43454  -0.43272  -0.43126  -0.42632  -0.42565
 Alpha  occ. eigenvalues --   -0.42274  -0.41999  -0.41844  -0.41609  -0.41076
 Alpha  occ. eigenvalues --   -0.41008  -0.40766  -0.40450  -0.40090  -0.39642
 Alpha  occ. eigenvalues --   -0.39495  -0.39391  -0.39117  -0.38538  -0.38372
 Alpha  occ. eigenvalues --   -0.38306  -0.37709  -0.37664  -0.37466  -0.36647
 Alpha  occ. eigenvalues --   -0.36441  -0.35886  -0.35648  -0.34837  -0.34190
 Alpha  occ. eigenvalues --   -0.34064  -0.33903  -0.33661  -0.32637  -0.31438
 Alpha  occ. eigenvalues --   -0.31189  -0.29745  -0.29199  -0.28680  -0.28013
 Alpha  occ. eigenvalues --   -0.26414  -0.25874  -0.25760  -0.25306  -0.24395
 Alpha  occ. eigenvalues --   -0.24271  -0.23843  -0.23488  -0.22505  -0.18594
 Alpha virt. eigenvalues --   -0.10385  -0.06302  -0.05723  -0.00882  -0.00627
 Alpha virt. eigenvalues --    0.00827   0.01185   0.01255   0.01569   0.02805
 Alpha virt. eigenvalues --    0.03130   0.04036   0.04329   0.04650   0.05258

 Mulliken charges:
               1
     1  O   -0.202592
     2  O   -0.253825
     3  O   -0.286744
     4  O   -0.238215
     5  O   -0.209577
     6  O   -0.156775
     7  N   -0.207412
     8  N   -0.225192
     9  N   -0.169572
    10  N   -0.261031
    11  C    0.130240
    12  C    0.135588
    13  C   -0.046374
    14  C   -0.131162
    15  C   -0.179386
    16  C    0.100461
    17  C   -0.176009
    18  C    0.090892
    19  C   -0.041845
    20  C   -0.075490
    21  C    0.115075
    22  C    0.131542
    23  C   -0.086283
    24  C    0.144944
    25  C    0.096279
    26  C   -0.149032
    27  C    0.001446
    28  C    0.150447
    29  C    0.132754
    30  C   -0.051626
    31  C    0.050906
    32  C    0.205489
    33  C   -0.127652
    34  C    0.117250
    35  C    0.037560
    36  C   -0.019688
    37  C    0.158162
    38  C    0.097305
    39  C   -0.214247
    40  C    0.170628
    41  C   -0.088178
    42  C    0.010246
    43  C    0.024739
    44  H    0.015988
    45  H    0.006803
    46  H   -0.027136
    47  H    0.159346
    48  H    0.154415
    49  H   -0.002998
    50  H    0.070771
    51  H    0.004280
    52  H    0.038547
    53  H    0.007995
    54  H    0.041565
    55  H   -0.002829
    56  H    0.051725
    57  H    0.031638
    58  H    0.066176
    59  H    0.029867
    60  H    0.164475
    61  H   -0.022632
    62  H    0.013048
    63  H    0.048767
    64  H    0.005657
    65  H    0.018569
    66  H   -0.030841
    67  H    0.011216
    68  H    0.006538
    69  H   -0.001304
    70  H    0.005251
    71  H    0.004675
    72  H    0.236953
    73  H    0.011891
    74  H    0.044471
    75  H    0.043056
    76  H    0.037807
    77  H    0.240049
    78  H   -0.020611
    79  H    0.032767
 Sum of Mulliken charges =  -0.00000

 Dipole moment (field-independent basis, Debye):
    X=             -0.3748    Y=              2.0303    Z=              3.4138  Tot=              3.9895
 Quadrupole moment (field-independent basis, Debye-Ang):
   XX=           -217.2928   YY=           -234.4941   ZZ=           -265.7374
   XY=            -14.4863   XZ=             35.6934   YZ=              1.1003

 Normal termination of Gaussian 16 at Thu Oct  3 00:10:49 2019.
