 Gaussian 16, Revision A.03,
 Gaussian 16:  ES64L-G16RevA.03 25-Dec-2016

 --------------------------
 # td=(NStates=1) B3LYP/SVP
 --------------------------

 --
 TD
 --
 Symbolic Z-matrix:
 Charge =  0 Multiplicity = 1

                         Standard orientation:
 ---------------------------------------------------------------------
 Center     Atomic      Atomic             Coordinates (Angstroms)
 Number     Number       Type             X           Y           Z
 ---------------------------------------------------------------------
      1          8           0       -3.116551   -1.155504   -2.946403
      2          8           0        2.825417    2.905529    3.387019
      3          8           0        3.762828    1.053722    4.365860
      4          8           0        7.793306   -1.440987   -0.902518
      5          8           0        6.680398   -2.770458   -2.259539
      6          8           0       -2.935193    1.390228    1.344450
      7          7           0       -0.265731   -2.450770    0.758465
      8          7           0       -2.644824   -1.190997   -0.708151
      9          7           0        1.207150    0.189798   -0.710428
     10          7           0       -1.124718    1.498732   -0.074918
     11          6           0       -3.296392   -1.323400    0.581954
     12          6           0       -2.611166   -2.417435    1.469819
     13          6           0       -1.183378   -2.168467    1.616766
     14          6           0       -0.518954   -1.512729    2.698794
     15          6           0        0.844374   -1.360369    2.372689
     16          6           0        0.976452   -2.047233    1.090164
     17          6           0       -4.693670   -1.911966    0.150417
     18          6           0        1.888267   -0.639735    3.057637
     19          6           0       -4.680450   -2.028821   -1.219728
     20          6           0        2.076491   -1.891249    0.183546
     21          6           0        2.080164   -0.883437   -0.736231
     22          6           0       -3.409688   -1.406928   -1.754436
     23          6           0        3.047173   -0.536952   -1.825984
     24          6           0       -1.211113   -0.985201    3.887946
     25          6           0       -5.727851   -2.418916    1.121313
     26          6           0        2.636988    0.690176   -2.359555
     27          6           0        1.767695    0.875374    2.872493
     28          6           0        1.353935    1.137801   -1.710212
     29          6           0        4.346806   -1.282985   -2.073544
     30          6           0       -5.639194   -2.393437   -2.242200
     31          6           0        5.444688   -0.954265   -1.042631
     32          6           0        3.161189    1.488567   -3.561945
     33          6           0        0.534245    2.309182   -1.769564
     34          6           0        2.913307    1.625128    3.610569
     35          6           0       -0.599706    2.456339   -0.925011
     36          6           0       -6.761901   -3.223718   -2.131402
     37          6           0        6.681397   -1.805663   -1.499834
     38          6           0       -1.446704    3.679438   -0.924508
     39          6           0       -2.484855    3.419727    0.045668
     40          6           0       -2.153585    2.094501    0.578991
     41          6           0       -1.298071    4.819669   -1.794230
     42          6           0       -3.567570    4.168311    0.605236
     43          6           0       -2.082002    5.889612   -1.885956
     44          1           0       -3.187379   -0.386939    0.984184
     45          1           0       -2.751388   -3.391596    1.024285
     46          1           0       -2.980243   -2.537084    2.422054
     47          1           0       -0.542124   -2.854021   -0.079020
     48          1           0       -1.992584   -0.436428   -0.753963
     49          1           0        1.919727   -0.868786    4.226166
     50          1           0        2.738459   -1.221241    2.712021
     51          1           0        2.938226   -2.573938    0.011781
     52          1           0       -1.800473   -1.685435    4.621860
     53          1           0       -0.541640   -0.264207    4.580074
     54          1           0       -2.141168   -0.399927    3.720518
     55          1           0       -5.753361   -1.884719    2.061820
     56          1           0       -5.549136   -3.563916    1.564116
     57          1           0       -6.834291   -2.475701    0.510535
     58          1           0        1.930065    1.116583    1.751848
     59          1           0        0.799095    1.288488    3.081577
     60          1           0        0.244502    0.269561   -0.225188
     61          1           0        4.600078   -0.871841   -2.929204
     62          1           0        3.917714   -2.358215   -2.226564
     63          1           0       -5.350698   -2.021333   -3.209706
     64          1           0        5.153251   -1.046203   -0.032452
     65          1           0        5.640475    0.144699   -1.290135
     66          1           0        4.038831    0.852913   -3.980397
     67          1           0        3.476360    2.526812   -3.577779
     68          1           0        2.433669    1.634311   -4.479252
     69          1           0        0.596328    3.255740   -2.500400
     70          1           0       -7.065498   -3.669187   -1.224208
     71          1           0       -7.687823   -3.287687   -2.868425
     72          1           0        3.502550    3.419223    3.898822
     73          1           0       -0.478635    4.670375   -2.341029
     74          1           0       -4.187850    4.447836   -0.308480
     75          1           0       -4.122621    3.513793    1.303825
     76          1           0       -3.210984    5.319343    0.984943
     77          1           0        8.552538   -2.212865   -1.030900
     78          1           0       -1.837134    6.720101   -2.515271
     79          1           0       -3.073136    5.878391   -1.575973
 ---------------------------------------------------------------------

 SCF Done:  E(RB3LYP) =  -1947.85539273     A.U. after   20 cycles

 Excitation energies and oscillator strengths:

 Excited State   1:      Singlet-A      0.9101 eV 1362.33 nm  f=0.0032  <S**2>=0.000
     155 ->156         0.70285
 This state for optimization and/or second-order correction.
 Total Energy, E(TD-HF/TD-DFT) =  -1947.82194747
 Copying the excited state density for this state as the 1-particle RhoCI density.

 The electronic state is 1-A.
 Alpha  occ. eigenvalues --  -19.20178 -19.19891 -19.13424 -19.11776 -19.11477
 Alpha  occ. eigenvalues --  -19.07338 -14.38197 -14.37417 -14.32781 -14.31341
 Alpha  occ. eigenvalues --  -10.33558 -10.32214 -10.28266 -10.27881 -10.25985
 Alpha  occ. eigenvalues --  -10.25829 -10.25811 -10.24043 -10.23753 -10.23562
 Alpha  occ. eigenvalues --  -10.23198 -10.23021 -10.22724 -10.21862 -10.21719
 Alpha  occ. eigenvalues --  -10.21701 -10.21693 -10.21343 -10.21126 -10.21031
 Alpha  occ. eigenvalues --  -10.20767 -10.20584 -10.20491 -10.19907 -10.19705
 Alpha  occ. eigenvalues --  -10.18935 -10.18897 -10.18845 -10.18667 -10.18606
 Alpha  occ. eigenvalues --  -10.18469 -10.17375 -10.16452  -1.10723  -1.10561
 Alpha  occ. eigenvalues --   -1.00355  -1.00221  -1.00043  -0.99510  -0.98976
 Alpha  occ. eigenvalues --   -0.97823  -0.92550  -0.92134  -0.84088  -0.82727
 Alpha  occ. eigenvalues --   -0.82211  -0.80781  -0.79856  -0.79168  -0.78806
 Alpha  occ. eigenvalues --   -0.77866  -0.76443  -0.75807  -0.73772  -0.72673
 Alpha  occ. eigenvalues --   -0.71057  -0.70418  -0.69017  -0.68824  -0.68239
 Alpha  occ. eigenvalues --   -0.67452  -0.66460  -0.64195  -0.62753  -0.61576
 Alpha  occ. eigenvalues --   -0.61307  -0.60605  -0.60121  -0.57783  -0.57103
 Alpha  occ. eigenvalues --   -0.56271  -0.56025  -0.55663  -0.53881  -0.53521
 Alpha  occ. eigenvalues --   -0.52728  -0.51596  -0.51109  -0.50554  -0.49681
 Alpha  occ. eigenvalues --   -0.48980  -0.48752  -0.48674  -0.48094  -0.47860
 Alpha  occ. eigenvalues --   -0.47447  -0.47161  -0.46622  -0.46248  -0.46053
 Alpha  occ. eigenvalues --   -0.45693  -0.45491  -0.44882  -0.44462  -0.44181
 Alpha  occ. eigenvalues --   -0.43561  -0.43209  -0.42605  -0.42213  -0.42001
 Alpha  occ. eigenvalues --   -0.41725  -0.41400  -0.40937  -0.40832  -0.40576
 Alpha  occ. eigenvalues --   -0.40408  -0.40125  -0.39922  -0.39843  -0.39668
 Alpha  occ. eigenvalues --   -0.39370  -0.38974  -0.38695  -0.38573  -0.37856
 Alpha  occ. eigenvalues --   -0.37655  -0.37224  -0.36805  -0.36653  -0.36445
 Alpha  occ. eigenvalues --   -0.36116  -0.36028  -0.35827  -0.35679  -0.34654
 Alpha  occ. eigenvalues --   -0.33880  -0.33006  -0.32531  -0.32056  -0.31436
 Alpha  occ. eigenvalues --   -0.31159  -0.29333  -0.29284  -0.29218  -0.28911
 Alpha  occ. eigenvalues --   -0.27376  -0.27031  -0.26021  -0.24383  -0.23356
 Alpha  occ. eigenvalues --   -0.23171  -0.22760  -0.22654  -0.21962  -0.19208
 Alpha virt. eigenvalues --   -0.13420  -0.08487  -0.04732  -0.02725  -0.01623
 Alpha virt. eigenvalues --    0.00012   0.01033   0.01966   0.02085   0.02600
 Alpha virt. eigenvalues --    0.03315   0.03608   0.03887   0.04546   0.04702

 Mulliken charges:
               1
     1  O   -0.287379
     2  O   -0.142570
     3  O   -0.289761
     4  O   -0.210153
     5  O   -0.245629
     6  O   -0.294020
     7  N    0.097901
     8  N   -0.138467
     9  N   -0.147318
    10  N   -0.300758
    11  C    0.119654
    12  C    0.313244
    13  C   -0.226321
    14  C   -0.041147
    15  C   -0.108222
    16  C   -0.009849
    17  C   -0.126961
    18  C    0.086894
    19  C   -0.048436
    20  C   -0.091500
    21  C    0.089396
    22  C    0.108937
    23  C   -0.144847
    24  C   -0.012526
    25  C   -0.018953
    26  C   -0.078203
    27  C   -0.010642
    28  C    0.142193
    29  C    0.182560
    30  C    0.007396
    31  C    0.007584
    32  C    0.008162
    33  C   -0.110677
    34  C    0.149028
    35  C    0.083732
    36  C   -0.066386
    37  C    0.151435
    38  C    0.006148
    39  C   -0.167490
    40  C    0.190808
    41  C    0.071690
    42  C    0.025913
    43  C    0.025915
    44  H    0.003910
    45  H   -0.036852
    46  H   -0.038774
    47  H    0.083690
    48  H    0.121369
    49  H    0.028038
    50  H   -0.001269
    51  H    0.005830
    52  H    0.004194
    53  H    0.020527
    54  H    0.013359
    55  H    0.022975
    56  H    0.048255
    57  H    0.061483
    58  H    0.039922
    59  H    0.043548
    60  H    0.208432
    61  H   -0.054376
    62  H    0.058595
    63  H    0.011610
    64  H    0.048535
    65  H    0.049442
    66  H    0.027211
    67  H    0.028836
    68  H    0.045890
    69  H    0.043861
    70  H   -0.000574
    71  H    0.040952
    72  H    0.195198
    73  H   -0.095985
    74  H    0.047270
    75  H    0.051217
    76  H    0.061115
    77  H    0.243699
    78  H    0.019153
    79  H   -0.000660
 Sum of Mulliken charges =  -0.00000

 Dipole moment (field-independent basis, Debye):
    X=              4.1852    Y=              4.2933    Z=             -0.2822  Tot=              6.0023
 Quadrupole moment (field-independent basis, Debye-Ang):
   XX=           -234.4192   YY=           -229.8653   ZZ=           -273.3964
   XY=              3.6642   XZ=            -22.0564   YZ=            -12.8248

 Normal termination of Gaussian 16 at Fri Jul 26 09:17:54 2019.
