 Gaussian 16, Revision A.03,
 Gaussian 16:  ES64L-G16RevA.03 25-Dec-2016

 --------------------------
 # td=(NStates=1) B3LYP/SVP
 --------------------------

 --
 TD
 --
 Symbolic Z-matrix:
 Charge =  0 Multiplicity = 1

                         Standard orientation:
 ---------------------------------------------------------------------
 Center     Atomic      Atomic             Coordinates (Angstroms)
 Number     Number       Type             X           Y           Z
 ---------------------------------------------------------------------
      1          8           0        5.353086   -0.031846   -3.235024
      2          8           0       -2.857349   -2.772419    3.303667
      3          8           0       -3.473561   -0.591545    2.817634
      4          8           0       -1.542317    7.229733    1.381596
      5          8           0       -1.004983    6.924985   -0.841585
      6          8           0       -1.459701   -4.063492    0.003285
      7          7           0        2.356310    1.019438    0.482425
      8          7           0        4.290250   -0.568620   -1.252030
      9          7           0       -1.749486    0.604848   -0.464174
     10          7           0       -2.475564   -1.955260   -0.504766
     11          6           0        4.798859   -1.141453    0.042141
     12          6           0        4.387041   -0.298176    1.287968
     13          6           0        2.980437    0.013111    1.237270
     14          6           0        2.001392   -0.459584    2.118014
     15          6           0        0.724090    0.130502    1.754180
     16          6           0        1.010119    1.147175    0.753078
     17          6           0        6.263473   -1.248791   -0.091205
     18          6           0       -0.515165   -0.028151    2.548102
     19          6           0        6.617388   -0.837297   -1.394780
     20          6           0        0.083708    2.157638    0.156745
     21          6           0       -1.181123    1.787587   -0.351244
     22          6           0        5.372104   -0.473736   -2.049372
     23          6           0       -2.151170    2.838643   -0.831586
     24          6           0        2.071217   -1.611744    3.147484
     25          6           0        7.135070   -1.746324    0.995577
     26          6           0       -3.275259    2.206632   -1.233385
     27          6           0       -1.157855   -1.437451    2.479164
     28          6           0       -3.029348    0.729951   -0.992686
     29          6           0       -1.756369    4.303540   -0.993192
     30          6           0        7.908607   -0.637358   -1.975210
     31          6           0       -1.944073    5.088755    0.328114
     32          6           0       -4.465263    2.810698   -1.893693
     33          6           0       -3.851259   -0.251871   -1.231866
     34          6           0       -2.579794   -1.441835    2.887088
     35          6           0       -3.599698   -1.653532   -1.036062
     36          6           0        9.115311   -0.826965   -1.308023
     37          6           0       -1.434077    6.428446    0.215328
     38          6           0       -4.398296   -2.830076   -1.367736
     39          6           0       -3.680717   -3.928830   -1.087296
     40          6           0       -2.422434   -3.383224   -0.479604
     41          6           0       -5.781782   -2.661557   -1.889140
     42          6           0       -4.008315   -5.399772   -1.154078
     43          6           0       -6.718192   -3.700844   -2.173274
     44          1           0        4.394210   -2.078882    0.312032
     45          1           0        4.986745    0.517143    1.106228
     46          1           0        4.756955   -0.903453    1.973332
     47          1           0        2.808185    1.525461   -0.416110
     48          1           0        3.344920   -0.627348   -1.526498
     49          1           0       -0.207946    0.021635    3.682049
     50          1           0       -1.467977    0.704496    2.468744
     51          1           0        0.486828    3.138557   -0.120379
     52          1           0        3.043948   -1.638581    3.791767
     53          1           0        1.428071   -1.210561    3.989878
     54          1           0        2.028367   -2.612788    2.724838
     55          1           0        6.387477   -2.222606    1.728330
     56          1           0        7.982081   -0.871204    1.500339
     57          1           0        8.088530   -2.445590    0.575023
     58          1           0       -1.210957   -1.843250    1.518328
     59          1           0       -0.599693   -2.197784    3.102804
     60          1           0       -1.467107   -0.466038   -0.115073
     61          1           0       -2.276924    4.869046   -1.673167
     62          1           0       -0.672338    4.232405   -1.279365
     63          1           0        7.839342   -0.258293   -3.006117
     64          1           0       -1.617158    4.651282    1.179788
     65          1           0       -3.145482    5.266164    0.532177
     66          1           0       -4.310049    3.842653   -2.279999
     67          1           0       -5.375858    2.844246   -1.112587
     68          1           0       -4.814776    2.293206   -2.847910
     69          1           0       -4.921187   -0.013825   -1.496721
     70          1           0        9.348351   -0.912196   -0.353656
     71          1           0       10.205829   -0.890732   -1.923139
     72          1           0       -3.820580   -2.866787    3.183934
     73          1           0       -5.982380   -1.596165   -1.977129
     74          1           0       -4.709838   -5.600965   -0.508226
     75          1           0       -4.254283   -5.687756   -2.327675
     76          1           0       -3.102245   -6.022819   -0.772246
     77          1           0       -1.092375    8.147178    1.403857
     78          1           0       -7.788582   -3.442304   -2.605187
     79          1           0       -6.475835   -4.774355   -2.199933
 ---------------------------------------------------------------------

 SCF Done:  E(RB3LYP) =  -1947.82638321     A.U. after   16 cycles

 Excitation energies and oscillator strengths:

 Excited State   1:      Singlet-A      1.8087 eV  685.49 nm  f=0.3316  <S**2>=0.000
     155 ->156         0.70449
     155 <-156        -0.10700
 This state for optimization and/or second-order correction.
 Total Energy, E(TD-HF/TD-DFT) =  -1947.75991473
 Copying the excited state density for this state as the 1-particle RhoCI density.

 The electronic state is 1-A.
 Alpha  occ. eigenvalues --  -19.17484 -19.16146 -19.12913 -19.12889 -19.12064
 Alpha  occ. eigenvalues --  -19.08334 -14.39037 -14.37091 -14.36159 -14.30900
 Alpha  occ. eigenvalues --  -10.32794 -10.31472 -10.28273 -10.27807 -10.24848
 Alpha  occ. eigenvalues --  -10.24647 -10.24624 -10.24501 -10.24129 -10.23271
 Alpha  occ. eigenvalues --  -10.22646 -10.22531 -10.22455 -10.22420 -10.21959
 Alpha  occ. eigenvalues --  -10.21844 -10.21551 -10.21302 -10.21202 -10.21127
 Alpha  occ. eigenvalues --  -10.21060 -10.20938 -10.20814 -10.20775 -10.20467
 Alpha  occ. eigenvalues --  -10.20457 -10.20446 -10.20337 -10.19874 -10.19426
 Alpha  occ. eigenvalues --  -10.19144 -10.19127 -10.18705  -1.06269  -1.06236
 Alpha  occ. eigenvalues --   -1.00556  -1.00526  -0.98690  -0.98410  -0.98405
 Alpha  occ. eigenvalues --   -0.96753  -0.94627  -0.93200  -0.83373  -0.83001
 Alpha  occ. eigenvalues --   -0.81998  -0.81414  -0.80855  -0.80331  -0.78739
 Alpha  occ. eigenvalues --   -0.77130  -0.76269  -0.75569  -0.74580  -0.72182
 Alpha  occ. eigenvalues --   -0.71588  -0.70654  -0.70350  -0.68730  -0.68426
 Alpha  occ. eigenvalues --   -0.67056  -0.66179  -0.64419  -0.62602  -0.61085
 Alpha  occ. eigenvalues --   -0.59887  -0.59223  -0.57890  -0.57166  -0.56559
 Alpha  occ. eigenvalues --   -0.56373  -0.55336  -0.54912  -0.54490  -0.54186
 Alpha  occ. eigenvalues --   -0.53321  -0.52390  -0.51606  -0.51406  -0.49900
 Alpha  occ. eigenvalues --   -0.49464  -0.49170  -0.48566  -0.47312  -0.46976
 Alpha  occ. eigenvalues --   -0.46639  -0.46416  -0.46291  -0.45892  -0.45661
 Alpha  occ. eigenvalues --   -0.45236  -0.44908  -0.44492  -0.44267  -0.44162
 Alpha  occ. eigenvalues --   -0.43760  -0.43479  -0.43282  -0.43115  -0.42282
 Alpha  occ. eigenvalues --   -0.41791  -0.41640  -0.41329  -0.41230  -0.40901
 Alpha  occ. eigenvalues --   -0.40685  -0.40429  -0.40210  -0.39850  -0.39474
 Alpha  occ. eigenvalues --   -0.39333  -0.38874  -0.38670  -0.38339  -0.38092
 Alpha  occ. eigenvalues --   -0.37941  -0.37554  -0.37097  -0.36868  -0.36821
 Alpha  occ. eigenvalues --   -0.36666  -0.35801  -0.35318  -0.35122  -0.34986
 Alpha  occ. eigenvalues --   -0.34695  -0.34125  -0.32315  -0.31743  -0.31634
 Alpha  occ. eigenvalues --   -0.31021  -0.30811  -0.29258  -0.28827  -0.28102
 Alpha  occ. eigenvalues --   -0.27740  -0.26553  -0.26298  -0.25442  -0.24355
 Alpha  occ. eigenvalues --   -0.24253  -0.24007  -0.23586  -0.22880  -0.18860
 Alpha virt. eigenvalues --   -0.11698  -0.07208  -0.06477  -0.02113  -0.01971
 Alpha virt. eigenvalues --   -0.00492  -0.00149   0.01073   0.02100   0.02823
 Alpha virt. eigenvalues --    0.03200   0.03301   0.03969   0.04804   0.05146

 Mulliken charges:
               1
     1  O   -0.287804
     2  O   -0.238817
     3  O   -0.241085
     4  O   -0.282561
     5  O   -0.250051
     6  O   -0.241617
     7  N   -0.136486
     8  N   -0.144232
     9  N   -0.097436
    10  N   -0.274750
    11  C    0.008253
    12  C    0.408478
    13  C   -0.082363
    14  C   -0.150940
    15  C   -0.055518
    16  C    0.037558
    17  C   -0.106773
    18  C   -0.044546
    19  C   -0.017883
    20  C   -0.099914
    21  C    0.085485
    22  C    0.135294
    23  C   -0.098332
    24  C    0.066249
    25  C   -0.073153
    26  C   -0.081663
    27  C    0.025123
    28  C    0.158416
    29  C    0.150465
    30  C    0.024211
    31  C    0.008986
    32  C    0.029930
    33  C   -0.154477
    34  C    0.147347
    35  C    0.056235
    36  C   -0.048087
    37  C    0.170842
    38  C    0.043867
    39  C   -0.207293
    40  C    0.175559
    41  C    0.001958
    42  C    0.097878
    43  C   -0.058024
    44  H    0.000610
    45  H   -0.051445
    46  H   -0.083415
    47  H    0.165133
    48  H    0.126249
    49  H    0.022661
    50  H    0.060765
    51  H   -0.004038
    52  H   -0.000668
    53  H    0.023478
    54  H    0.056998
    55  H    0.052183
    56  H    0.074728
    57  H    0.075165
    58  H    0.038267
    59  H    0.042569
    60  H    0.231583
    61  H   -0.015985
    62  H    0.034719
    63  H    0.022380
    64  H    0.010799
    65  H    0.072355
    66  H    0.021097
    67  H    0.051217
    68  H    0.037344
    69  H   -0.007835
    70  H   -0.029934
    71  H    0.045760
    72  H    0.173182
    73  H   -0.011416
    74  H   -0.004292
    75  H    0.059357
    76  H    0.042232
    77  H    0.218423
    78  H    0.053600
    79  H    0.037844
 Sum of Mulliken charges =  -0.00000

 Dipole moment (field-independent basis, Debye):
    X=             -1.3532    Y=              0.5108    Z=              2.8478  Tot=              3.1941
 Quadrupole moment (field-independent basis, Debye-Ang):
   XX=           -219.5953   YY=           -245.8541   ZZ=           -270.0072
   XY=             -2.1797   XZ=             39.2257   YZ=              8.3712

 Normal termination of Gaussian 16 at Thu Sep 26 06:01:51 2019.
