 Gaussian 16, Revision A.03,
 Gaussian 16:  ES64L-G16RevA.03 25-Dec-2016

 --------------------------
 # td=(NStates=1) B3LYP/SVP
 --------------------------

 --
 TD
 --
 Symbolic Z-matrix:
 Charge =  0 Multiplicity = 1

                         Standard orientation:
 ---------------------------------------------------------------------
 Center     Atomic      Atomic             Coordinates (Angstroms)
 Number     Number       Type             X           Y           Z
 ---------------------------------------------------------------------
      1          8           0       -3.195571   -1.564026   -2.804120
      2          8           0        3.143761    3.082468    3.139174
      3          8           0        3.699238    1.413069    4.489231
      4          8           0        7.674463   -1.464439   -0.644522
      5          8           0        6.923513   -2.826710   -2.389150
      6          8           0       -2.666895    1.717116    1.582535
      7          7           0       -0.277572   -2.339723    1.035437
      8          7           0       -2.534969   -1.209180   -0.563372
      9          7           0        1.080358    0.113196   -0.730245
     10          7           0       -1.093191    1.356381   -0.217434
     11          6           0       -3.321080   -1.350026    0.604549
     12          6           0       -2.597961   -2.256768    1.696478
     13          6           0       -1.195541   -2.001233    1.973392
     14          6           0       -0.508248   -1.135611    2.878341
     15          6           0        0.858629   -1.148885    2.506200
     16          6           0        0.973828   -1.830750    1.235307
     17          6           0       -4.704415   -1.948837    0.301465
     18          6           0        2.005364   -0.329722    3.122748
     19          6           0       -4.800038   -1.996428   -1.014355
     20          6           0        2.115766   -1.869876    0.304640
     21          6           0        2.040538   -0.850417   -0.683537
     22          6           0       -3.393376   -1.630720   -1.574106
     23          6           0        2.970359   -0.568575   -1.691869
     24          6           0       -1.143970   -0.447777    4.025844
     25          6           0       -5.892330   -2.008651    1.216746
     26          6           0        2.452164    0.483244   -2.523316
     27          6           0        2.020366    1.151457    2.720591
     28          6           0        1.242384    0.919445   -1.871674
     29          6           0        4.176403   -1.423034   -2.024619
     30          6           0       -5.819470   -2.455138   -1.885878
     31          6           0        5.490621   -1.111607   -1.197531
     32          6           0        3.029478    1.114242   -3.637341
     33          6           0        0.356883    1.933724   -2.114972
     34          6           0        3.026498    1.845843    3.577245
     35          6           0       -0.698813    2.162843   -1.247082
     36          6           0       -6.698254   -3.530064   -1.724036
     37          6           0        6.691338   -1.895786   -1.500464
     38          6           0       -1.488348    3.456566   -1.305342
     39          6           0       -2.402400    3.408383   -0.237292
     40          6           0       -2.127459    2.073882    0.460661
     41          6           0       -1.545177    4.481103   -2.414519
     42          6           0       -3.495431    4.186161    0.270786
     43          6           0       -2.117885    5.653477   -2.510818
     44          1           0       -3.406064   -0.427831    1.192417
     45          1           0       -2.592511   -3.395887    1.411381
     46          1           0       -3.258738   -2.122687    2.697199
     47          1           0       -0.508363   -2.564202    0.004032
     48          1           0       -1.892504   -0.295987   -0.617881
     49          1           0        2.144047   -0.487202    4.277205
     50          1           0        2.921673   -0.692243    2.979304
     51          1           0        2.819647   -2.658915    0.325665
     52          1           0       -1.942825   -1.114786    4.429492
     53          1           0       -0.440978   -0.002571    4.866419
     54          1           0       -1.896309    0.323111    3.507842
     55          1           0       -5.722811   -1.204986    2.172678
     56          1           0       -5.883407   -2.886008    2.071718
     57          1           0       -6.790181   -1.989765    0.846165
     58          1           0        2.379474    1.109357    1.694155
     59          1           0        0.900601    1.426764    2.721262
     60          1           0        0.340942    0.169811    0.068011
     61          1           0        4.502142   -1.236741   -3.135614
     62          1           0        3.987618   -2.488535   -1.917785
     63          1           0       -5.708628   -2.249480   -3.127799
     64          1           0        5.348063   -1.343400   -0.156585
     65          1           0        5.661601   -0.059167   -1.379747
     66          1           0        3.881971    0.449197   -3.999930
     67          1           0        3.499723    2.069860   -3.538311
     68          1           0        2.462258    1.226524   -4.611597
     69          1           0        0.535090    2.646276   -2.843287
     70          1           0       -6.729136   -4.184546   -0.897215
     71          1           0       -7.258635   -3.952190   -2.696052
     72          1           0        3.681422    3.539110    3.774156
     73          1           0       -0.853288    4.142405   -3.138922
     74          1           0       -4.440722    4.224555   -0.527345
     75          1           0       -4.065757    3.686962    1.074755
     76          1           0       -3.243984    5.378926    0.499522
     77          1           0        8.420360   -2.027365   -0.980600
     78          1           0       -1.868977    6.247215   -3.386230
     79          1           0       -2.835792    5.957094   -1.731801
 ---------------------------------------------------------------------

 SCF Done:  E(RB3LYP) =  -1947.83381026     A.U. after   20 cycles

 Excitation energies and oscillator strengths:

 Excited State   1:      Singlet-A      0.6408 eV 1934.91 nm  f=0.0004  <S**2>=0.000
     155 ->156         0.70374
 This state for optimization and/or second-order correction.
 Total Energy, E(TD-HF/TD-DFT) =  -1947.81026226
 Copying the excited state density for this state as the 1-particle RhoCI density.

 The electronic state is 1-A.
 Alpha  occ. eigenvalues --  -19.20436 -19.18225 -19.14559 -19.13194 -19.12617
 Alpha  occ. eigenvalues --  -19.08297 -14.38028 -14.36814 -14.33607 -14.32828
 Alpha  occ. eigenvalues --  -10.34526 -10.31792 -10.29698 -10.27390 -10.27209
 Alpha  occ. eigenvalues --  -10.26565 -10.25900 -10.24005 -10.23723 -10.23544
 Alpha  occ. eigenvalues --  -10.23266 -10.22897 -10.22805 -10.22258 -10.22180
 Alpha  occ. eigenvalues --  -10.22014 -10.21789 -10.21183 -10.21082 -10.20881
 Alpha  occ. eigenvalues --  -10.20705 -10.20549 -10.20446 -10.20266 -10.20146
 Alpha  occ. eigenvalues --  -10.19849 -10.19719 -10.19666 -10.18610 -10.18500
 Alpha  occ. eigenvalues --  -10.17604 -10.17578 -10.17009  -1.11313  -1.09907
 Alpha  occ. eigenvalues --   -1.00776  -1.00523  -0.99972  -0.99301  -0.98241
 Alpha  occ. eigenvalues --   -0.96731  -0.93174  -0.92079  -0.84373  -0.83817
 Alpha  occ. eigenvalues --   -0.81806  -0.81153  -0.80513  -0.79993  -0.78852
 Alpha  occ. eigenvalues --   -0.77360  -0.76463  -0.75773  -0.74751  -0.73412
 Alpha  occ. eigenvalues --   -0.71479  -0.70477  -0.69665  -0.69275  -0.67747
 Alpha  occ. eigenvalues --   -0.66295  -0.66003  -0.63141  -0.61099  -0.60466
 Alpha  occ. eigenvalues --   -0.60002  -0.59403  -0.59365  -0.58396  -0.56694
 Alpha  occ. eigenvalues --   -0.56368  -0.55496  -0.54748  -0.53574  -0.52975
 Alpha  occ. eigenvalues --   -0.52258  -0.51636  -0.51458  -0.50483  -0.50037
 Alpha  occ. eigenvalues --   -0.49748  -0.49514  -0.49339  -0.48884  -0.48719
 Alpha  occ. eigenvalues --   -0.48107  -0.47792  -0.47077  -0.46879  -0.46463
 Alpha  occ. eigenvalues --   -0.46071  -0.45346  -0.45171  -0.44604  -0.44118
 Alpha  occ. eigenvalues --   -0.44015  -0.43264  -0.43173  -0.42860  -0.42576
 Alpha  occ. eigenvalues --   -0.41877  -0.41810  -0.41620  -0.41113  -0.40733
 Alpha  occ. eigenvalues --   -0.40577  -0.40424  -0.40254  -0.39896  -0.39348
 Alpha  occ. eigenvalues --   -0.39177  -0.38657  -0.38555  -0.37881  -0.37386
 Alpha  occ. eigenvalues --   -0.37276  -0.37130  -0.36861  -0.36380  -0.36045
 Alpha  occ. eigenvalues --   -0.35915  -0.35476  -0.35091  -0.34936  -0.34356
 Alpha  occ. eigenvalues --   -0.33346  -0.32787  -0.32719  -0.32597  -0.32159
 Alpha  occ. eigenvalues --   -0.31204  -0.30408  -0.29762  -0.29634  -0.29353
 Alpha  occ. eigenvalues --   -0.28628  -0.27407  -0.26496  -0.24951  -0.24285
 Alpha  occ. eigenvalues --   -0.23481  -0.23161  -0.22492  -0.22312  -0.18932
 Alpha virt. eigenvalues --   -0.13946  -0.08936  -0.04349  -0.03707  -0.02335
 Alpha virt. eigenvalues --    0.00064   0.00352   0.01622   0.01976   0.02678
 Alpha virt. eigenvalues --    0.03753   0.04101   0.04371   0.04764   0.04922

 Mulliken charges:
               1
     1  O   -0.259255
     2  O   -0.131773
     3  O   -0.229538
     4  O   -0.192582
     5  O   -0.304475
     6  O   -0.265028
     7  N   -0.059994
     8  N   -0.236679
     9  N   -0.149022
    10  N   -0.359475
    11  C    0.053752
    12  C    0.076366
    13  C   -0.059436
    14  C   -0.115455
    15  C   -0.094710
    16  C   -0.081009
    17  C   -0.059438
    18  C    0.081079
    19  C   -0.031084
    20  C   -0.028893
    21  C    0.078215
    22  C    0.150277
    23  C   -0.045440
    24  C    0.033275
    25  C    0.064425
    26  C   -0.063690
    27  C   -0.022553
    28  C    0.191079
    29  C    0.029921
    30  C   -0.079395
    31  C    0.029386
    32  C    0.047914
    33  C   -0.089688
    34  C    0.126318
    35  C    0.145077
    36  C   -0.080644
    37  C    0.172345
    38  C   -0.009133
    39  C   -0.122660
    40  C    0.216195
    41  C    0.024152
    42  C   -0.026512
    43  C    0.013374
    44  H    0.033049
    45  H    0.001755
    46  H    0.006470
    47  H    0.146231
    48  H    0.205439
    49  H    0.015288
    50  H   -0.066286
    51  H    0.006200
    52  H    0.001997
    53  H    0.041207
    54  H    0.047816
    55  H    0.029951
    56  H    0.028421
    57  H   -0.014263
    58  H    0.028297
    59  H    0.082825
    60  H    0.233068
    61  H    0.042921
    62  H    0.028713
    63  H    0.060329
    64  H    0.045343
    65  H    0.048437
    66  H    0.004964
    67  H    0.031983
    68  H    0.039142
    69  H   -0.050028
    70  H    0.013554
    71  H    0.046869
    72  H    0.159293
    73  H   -0.036859
    74  H    0.050838
    75  H    0.042530
    76  H    0.068467
    77  H    0.190785
    78  H    0.030522
    79  H    0.019145
 Sum of Mulliken charges =  -0.00000

 Dipole moment (field-independent basis, Debye):
    X=              3.3037    Y=              4.4395    Z=             -1.7987  Tot=              5.8189
 Quadrupole moment (field-independent basis, Debye-Ang):
   XX=           -241.5154   YY=           -238.1210   ZZ=           -271.3011
   XY=              5.9248   XZ=            -17.4312   YZ=            -15.6911

 Normal termination of Gaussian 16 at Tue Jul 30 00:45:29 2019.
