 Gaussian 16, Revision A.03,
 Gaussian 16:  ES64L-G16RevA.03 25-Dec-2016

 --------------------------
 # td=(NStates=1) B3LYP/SVP
 --------------------------

 --
 TD
 --
 Symbolic Z-matrix:
 Charge =  0 Multiplicity = 1

                         Standard orientation:
 ---------------------------------------------------------------------
 Center     Atomic      Atomic             Coordinates (Angstroms)
 Number     Number       Type             X           Y           Z
 ---------------------------------------------------------------------
      1          8           0        5.380530   -0.585808   -3.348619
      2          8           0       -3.049499   -2.875965    2.890692
      3          8           0       -3.374787   -0.661896    2.966811
      4          8           0       -1.234202    7.067507    1.513529
      5          8           0        0.001887    6.916830   -0.350173
      6          8           0       -1.832618   -3.894763    0.011894
      7          7           0        2.322821    0.870653    0.479881
      8          7           0        4.428162   -0.848221   -1.297520
      9          7           0       -1.923563    0.687501   -0.242264
     10          7           0       -2.589445   -1.786834   -0.552982
     11          6           0        4.667302   -1.250337   -0.002285
     12          6           0        4.372451   -0.418574    1.229260
     13          6           0        2.841661   -0.059415    1.280821
     14          6           0        1.945060   -0.578018    2.136915
     15          6           0        0.642770   -0.008214    1.821656
     16          6           0        1.044586    0.904791    0.767682
     17          6           0        6.181828   -1.433294   -0.177598
     18          6           0       -0.733714   -0.122501    2.502095
     19          6           0        6.770624   -1.094287   -1.369292
     20          6           0        0.251260    1.874265   -0.001559
     21          6           0       -1.178258    1.930090   -0.304281
     22          6           0        5.570313   -0.701486   -2.126596
     23          6           0       -1.901352    2.998663   -0.901167
     24          6           0        2.044054   -1.578651    3.251285
     25          6           0        7.078507   -2.075880    0.923713
     26          6           0       -3.150460    2.371698   -1.335227
     27          6           0       -1.187575   -1.602768    2.524643
     28          6           0       -3.110903    0.942583   -1.030847
     29          6           0       -1.479796    4.421198   -1.084422
     30          6           0        8.141111   -0.892309   -1.929627
     31          6           0       -1.685513    5.120102    0.252834
     32          6           0       -4.212261    3.068996   -1.986619
     33          6           0       -3.998687   -0.019469   -1.427549
     34          6           0       -2.626504   -1.586043    2.862113
     35          6           0       -3.799768   -1.358907   -1.112147
     36          6           0        9.220563   -0.772196   -1.230079
     37          6           0       -0.840774    6.414795    0.408479
     38          6           0       -4.815886   -2.403534   -1.314782
     39          6           0       -4.088746   -3.673086   -1.014315
     40          6           0       -2.778795   -3.168985   -0.401506
     41          6           0       -6.096438   -2.375100   -1.870954
     42          6           0       -4.459272   -5.031935   -0.990972
     43          6           0       -6.844430   -3.321762   -2.276918
     44          1           0        4.495178   -2.301292    0.280024
     45          1           0        4.954228    0.526408    1.191571
     46          1           0        4.755003   -0.833923    1.968943
     47          1           0        2.789055    1.225763   -0.334309
     48          1           0        3.584523   -1.083211   -1.743414
     49          1           0       -0.821071    0.331818    3.501020
     50          1           0       -1.466101    0.399793    1.748644
     51          1           0        0.949302    2.873407   -0.014220
     52          1           0        3.055323   -1.721617    3.647978
     53          1           0        1.439091   -1.312017    3.978872
     54          1           0        1.890345   -2.595283    2.996953
     55          1           0        6.525561   -2.757305    1.555801
     56          1           0        7.412214   -1.448745    1.809094
     57          1           0        7.989414   -2.491875    0.494711
     58          1           0       -0.912917   -2.123609    1.525048
     59          1           0       -0.664586   -2.145748    3.282114
     60          1           0       -1.892107   -0.308805   -0.206554
     61          1           0       -2.196119    4.778874   -1.967841
     62          1           0       -0.529671    4.627453   -1.396985
     63          1           0        7.920004   -0.670979   -3.024088
     64          1           0       -1.116578    4.519746    1.022444
     65          1           0       -2.699879    5.469080    0.423390
     66          1           0       -4.301843    4.332374   -1.659532
     67          1           0       -5.274569    2.802911   -1.565817
     68          1           0       -4.293241    3.030379   -3.156613
     69          1           0       -5.111258    0.462402   -1.871460
     70          1           0        9.466716   -0.622416   -0.123848
     71          1           0       10.226531   -0.823691   -1.683080
     72          1           0       -4.082237   -2.845993    3.074701
     73          1           0       -6.307595   -1.214544   -1.776097
     74          1           0       -5.495203   -5.280348   -0.511285
     75          1           0       -4.718501   -5.226470   -2.099355
     76          1           0       -3.643249   -5.720941   -0.604937
     77          1           0       -0.743686    7.989137    1.627206
     78          1           0       -7.783122   -2.843647   -2.755027
     79          1           0       -6.893036   -4.308578   -2.253450
 ---------------------------------------------------------------------

 SCF Done:  E(RB3LYP) =  -1947.76046346     A.U. after   20 cycles

 Excitation energies and oscillator strengths:

 Excited State   1:      Singlet-A      1.9387 eV  639.53 nm  f=0.3037  <S**2>=0.000
     154 ->156         0.31861
     155 ->156         0.62665
     155 <-156        -0.11533
 This state for optimization and/or second-order correction.
 Total Energy, E(TD-HF/TD-DFT) =  -1947.68921852
 Copying the excited state density for this state as the 1-particle RhoCI density.

 The electronic state is 1-A.
 Alpha  occ. eigenvalues --  -19.19194 -19.16200 -19.12977 -19.11268 -19.10353
 Alpha  occ. eigenvalues --  -19.09295 -14.38885 -14.35165 -14.34882 -14.29176
 Alpha  occ. eigenvalues --  -10.32751 -10.29782 -10.28857 -10.26037 -10.25552
 Alpha  occ. eigenvalues --  -10.24833 -10.24286 -10.23709 -10.23489 -10.23163
 Alpha  occ. eigenvalues --  -10.23131 -10.22849 -10.22687 -10.22341 -10.22203
 Alpha  occ. eigenvalues --  -10.21572 -10.21384 -10.21330 -10.20873 -10.20810
 Alpha  occ. eigenvalues --  -10.20799 -10.20771 -10.20594 -10.20300 -10.20192
 Alpha  occ. eigenvalues --  -10.19918 -10.19863 -10.19806 -10.19172 -10.18839
 Alpha  occ. eigenvalues --  -10.18289 -10.18247 -10.17961  -1.09064  -1.07483
 Alpha  occ. eigenvalues --   -1.02296  -1.01955  -0.99192  -0.98665  -0.98395
 Alpha  occ. eigenvalues --   -0.95202  -0.95043  -0.89704  -0.83142  -0.82501
 Alpha  occ. eigenvalues --   -0.81855  -0.81235  -0.80925  -0.79669  -0.78157
 Alpha  occ. eigenvalues --   -0.77463  -0.76548  -0.76369  -0.75184  -0.72982
 Alpha  occ. eigenvalues --   -0.72160  -0.71858  -0.70197  -0.69046  -0.68164
 Alpha  occ. eigenvalues --   -0.66727  -0.66057  -0.63572  -0.62105  -0.60821
 Alpha  occ. eigenvalues --   -0.59954  -0.58952  -0.58652  -0.57756  -0.57219
 Alpha  occ. eigenvalues --   -0.56649  -0.54811  -0.54722  -0.53993  -0.53049
 Alpha  occ. eigenvalues --   -0.52570  -0.51719  -0.51280  -0.50813  -0.49636
 Alpha  occ. eigenvalues --   -0.48961  -0.48838  -0.48528  -0.47888  -0.47418
 Alpha  occ. eigenvalues --   -0.47235  -0.46919  -0.46413  -0.46377  -0.45999
 Alpha  occ. eigenvalues --   -0.45793  -0.44804  -0.44431  -0.43961  -0.43850
 Alpha  occ. eigenvalues --   -0.43242  -0.43117  -0.42867  -0.42640  -0.42517
 Alpha  occ. eigenvalues --   -0.42023  -0.41887  -0.41533  -0.40917  -0.40519
 Alpha  occ. eigenvalues --   -0.40438  -0.40266  -0.40056  -0.39714  -0.39538
 Alpha  occ. eigenvalues --   -0.39238  -0.39033  -0.38495  -0.38248  -0.37926
 Alpha  occ. eigenvalues --   -0.37653  -0.37141  -0.36685  -0.36582  -0.36296
 Alpha  occ. eigenvalues --   -0.35800  -0.35605  -0.34830  -0.34278  -0.34133
 Alpha  occ. eigenvalues --   -0.33795  -0.32322  -0.32300  -0.31940  -0.31565
 Alpha  occ. eigenvalues --   -0.30700  -0.30514  -0.28375  -0.28097  -0.27589
 Alpha  occ. eigenvalues --   -0.27069  -0.26642  -0.25785  -0.25221  -0.24912
 Alpha  occ. eigenvalues --   -0.24883  -0.23514  -0.23266  -0.21156  -0.18924
 Alpha virt. eigenvalues --   -0.11396  -0.07394  -0.06289  -0.00860  -0.00449
 Alpha virt. eigenvalues --   -0.00402   0.01389   0.02075   0.02141   0.02610
 Alpha virt. eigenvalues --    0.03400   0.03578   0.04376   0.04539   0.04979

 Mulliken charges:
               1
     1  O   -0.255226
     2  O   -0.228165
     3  O   -0.214598
     4  O   -0.226100
     5  O   -0.252783
     6  O   -0.254853
     7  N    0.050684
     8  N   -0.153697
     9  N   -0.133077
    10  N   -0.313946
    11  C    0.111547
    12  C    0.362200
    13  C   -0.145177
    14  C   -0.153709
    15  C   -0.075267
    16  C   -0.013032
    17  C   -0.256916
    18  C    0.057809
    19  C   -0.064178
    20  C   -0.107636
    21  C    0.117366
    22  C    0.145569
    23  C   -0.062931
    24  C    0.202336
    25  C    0.068833
    26  C   -0.066220
    27  C   -0.045464
    28  C    0.094303
    29  C    0.139828
    30  C    0.077105
    31  C    0.011826
    32  C   -0.089390
    33  C   -0.181619
    34  C    0.143679
    35  C    0.152066
    36  C   -0.073797
    37  C    0.115629
    38  C   -0.025173
    39  C   -0.162921
    40  C    0.177687
    41  C    0.035497
    42  C    0.015961
    43  C   -0.017338
    44  H    0.017594
    45  H   -0.015980
    46  H   -0.127365
    47  H    0.118993
    48  H    0.114017
    49  H    0.018416
    50  H    0.052851
    51  H    0.037497
    52  H   -0.026416
    53  H   -0.016796
    54  H    0.013110
    55  H   -0.002350
    56  H    0.024668
    57  H    0.037902
    58  H    0.102115
    59  H    0.010427
    60  H    0.121456
    61  H    0.035775
    62  H   -0.007817
    63  H    0.041957
    64  H    0.061604
    65  H    0.051038
    66  H    0.035806
    67  H    0.044915
    68  H    0.064492
    69  H    0.044159
    70  H    0.044876
    71  H    0.027669
    72  H    0.200254
    73  H    0.005619
    74  H    0.047483
    75  H    0.043016
    76  H    0.056473
    77  H    0.224436
    78  H    0.028198
    79  H   -0.036804
 Sum of Mulliken charges =  -0.00000

 Dipole moment (field-independent basis, Debye):
    X=              1.0339    Y=              2.3659    Z=              3.8087  Tot=              4.6013
 Quadrupole moment (field-independent basis, Debye-Ang):
   XX=           -212.6739   YY=           -242.1047   ZZ=           -263.1672
   XY=             -7.5668   XZ=             33.6564   YZ=              2.1938

 Normal termination of Gaussian 16 at Sun Sep 22 09:07:47 2019.
