 Gaussian 16, Revision A.03,
 Gaussian 16:  ES64L-G16RevA.03 25-Dec-2016

 --------------------------
 # td=(NStates=1) B3LYP/SVP
 --------------------------

 --
 TD
 --
 Symbolic Z-matrix:
 Charge =  0 Multiplicity = 1

                         Standard orientation:
 ---------------------------------------------------------------------
 Center     Atomic      Atomic             Coordinates (Angstroms)
 Number     Number       Type             X           Y           Z
 ---------------------------------------------------------------------
      1          8           0        5.452632    0.058182   -3.251030
      2          8           0       -2.946360   -2.899029    3.178135
      3          8           0       -3.280537   -0.758736    3.134082
      4          8           0       -1.949183    7.103756    1.443370
      5          8           0       -0.593982    6.982265   -0.420933
      6          8           0       -1.703000   -4.063820   -0.125685
      7          7           0        2.421309    0.998988    0.503683
      8          7           0        4.420670   -0.337973   -1.202644
      9          7           0       -1.834655    0.659019   -0.427309
     10          7           0       -2.612690   -1.903139   -0.409649
     11          6           0        4.838805   -0.969510    0.047071
     12          6           0        4.512009   -0.066047    1.287130
     13          6           0        2.995046    0.068244    1.407420
     14          6           0        2.030109   -0.470449    2.164788
     15          6           0        0.753064    0.004747    1.819690
     16          6           0        0.990386    0.905201    0.747989
     17          6           0        6.243573   -1.285263   -0.087494
     18          6           0       -0.532391   -0.140515    2.524507
     19          6           0        6.656097   -0.915358   -1.351348
     20          6           0        0.144653    1.947861    0.140665
     21          6           0       -1.146567    1.860653   -0.432691
     22          6           0        5.418904   -0.241498   -2.004154
     23          6           0       -2.067850    2.886347   -0.969277
     24          6           0        2.265085   -1.549956    3.301908
     25          6           0        7.116441   -2.003174    0.952944
     26          6           0       -3.242629    2.260870   -1.357897
     27          6           0       -1.119489   -1.652239    2.509287
     28          6           0       -3.134667    0.907268   -1.039645
     29          6           0       -1.686618    4.411210   -0.977843
     30          6           0        7.953973   -0.927720   -2.036410
     31          6           0       -1.808582    5.055962    0.378979
     32          6           0       -4.390140    2.825991   -2.140819
     33          6           0       -3.944741   -0.108786   -1.361421
     34          6           0       -2.590872   -1.663684    2.966325
     35          6           0       -3.699112   -1.561475   -1.010401
     36          6           0        9.217800   -1.046958   -1.611337
     37          6           0       -1.388791    6.518864    0.376733
     38          6           0       -4.594776   -2.695187   -1.473841
     39          6           0       -3.814997   -3.820389   -1.087788
     40          6           0       -2.573787   -3.358706   -0.489324
     41          6           0       -5.836339   -2.576355   -2.043607
     42          6           0       -4.144741   -5.267770   -1.102159
     43          6           0       -6.780669   -3.611988   -2.258039
     44          1           0        4.163361   -2.026815    0.071920
     45          1           0        4.973444    0.952746    1.366024
     46          1           0        4.956055   -0.773051    2.057361
     47          1           0        2.757530    1.747764   -0.155129
     48          1           0        3.423867   -0.525480   -1.436122
     49          1           0       -0.416830    0.319098    3.551385
     50          1           0       -1.296210    0.449782    2.075167
     51          1           0        0.652636    2.945843   -0.149192
     52          1           0        3.334931   -1.576759    3.621733
     53          1           0        1.456696   -1.732787    4.113608
     54          1           0        2.152204   -2.513416    2.943148
     55          1           0        6.293205   -2.684605    1.289866
     56          1           0        7.465483   -1.224261    1.745469
     57          1           0        7.864247   -2.455788    0.469519
     58          1           0       -1.278634   -1.821932    1.483704
     59          1           0       -0.723681   -2.434475    3.193292
     60          1           0       -1.501453   -0.156774   -0.145369
     61          1           0       -2.469638    4.844180   -1.636596
     62          1           0       -0.594689    4.721776   -1.404255
     63          1           0        7.944555   -0.971386   -3.156615
     64          1           0       -1.005420    4.570401    1.087875
     65          1           0       -2.775867    5.063299    0.835847
     66          1           0       -4.300024    4.122200   -2.202301
     67          1           0       -5.219487    2.620058   -1.510745
     68          1           0       -4.663369    2.675543   -3.142181
     69          1           0       -4.784774    0.261820   -1.991636
     70          1           0        9.656090   -1.034191   -0.493421
     71          1           0       10.013124   -1.154080   -2.486026
     72          1           0       -3.896040   -3.028399    3.560419
     73          1           0       -6.215427   -1.696580   -2.149788
     74          1           0       -5.172400   -5.756985   -0.706135
     75          1           0       -4.292206   -5.406721   -2.119467
     76          1           0       -3.336998   -5.845536   -0.750712
     77          1           0       -1.395704    8.023529    1.315397
     78          1           0       -7.776977   -3.490753   -2.574840
     79          1           0       -6.419725   -4.627612   -2.222946
 ---------------------------------------------------------------------

 SCF Done:  E(RB3LYP) =  -1947.82227176     A.U. after   17 cycles

 Excitation energies and oscillator strengths:

 Excited State   1:      Singlet-A      1.8139 eV  683.53 nm  f=0.3545  <S**2>=0.000
     155 ->156         0.70287
     155 <-156        -0.11002
 This state for optimization and/or second-order correction.
 Total Energy, E(TD-HF/TD-DFT) =  -1947.75561266
 Copying the excited state density for this state as the 1-particle RhoCI density.

 The electronic state is 1-A.
 Alpha  occ. eigenvalues --  -19.20822 -19.16875 -19.13970 -19.12036 -19.10451
 Alpha  occ. eigenvalues --  -19.07803 -14.37830 -14.36218 -14.34907 -14.30005
 Alpha  occ. eigenvalues --  -10.32734 -10.29244 -10.27513 -10.27233 -10.26175
 Alpha  occ. eigenvalues --  -10.24678 -10.24105 -10.23868 -10.23063 -10.23041
 Alpha  occ. eigenvalues --  -10.22793 -10.22262 -10.22041 -10.21826 -10.21558
 Alpha  occ. eigenvalues --  -10.21536 -10.21388 -10.21123 -10.21014 -10.20937
 Alpha  occ. eigenvalues --  -10.20873 -10.20477 -10.20362 -10.20350 -10.19976
 Alpha  occ. eigenvalues --  -10.19948 -10.19593 -10.19479 -10.19141 -10.19107
 Alpha  occ. eigenvalues --  -10.19055 -10.19023 -10.18356  -1.10693  -1.10079
 Alpha  occ. eigenvalues --   -1.04905  -1.01713  -1.00751  -1.00744  -0.96751
 Alpha  occ. eigenvalues --   -0.95764  -0.93209  -0.93159  -0.82796  -0.82460
 Alpha  occ. eigenvalues --   -0.81673  -0.80897  -0.80612  -0.79269  -0.77679
 Alpha  occ. eigenvalues --   -0.76788  -0.76158  -0.75299  -0.73991  -0.72123
 Alpha  occ. eigenvalues --   -0.71388  -0.70861  -0.70134  -0.68876  -0.68183
 Alpha  occ. eigenvalues --   -0.67024  -0.65723  -0.64213  -0.61811  -0.61408
 Alpha  occ. eigenvalues --   -0.59879  -0.58560  -0.58455  -0.57000  -0.56324
 Alpha  occ. eigenvalues --   -0.56160  -0.55941  -0.54904  -0.54365  -0.53591
 Alpha  occ. eigenvalues --   -0.52072  -0.51086  -0.50656  -0.50091  -0.49917
 Alpha  occ. eigenvalues --   -0.49481  -0.48648  -0.48246  -0.48021  -0.47707
 Alpha  occ. eigenvalues --   -0.47362  -0.46599  -0.46430  -0.46371  -0.46088
 Alpha  occ. eigenvalues --   -0.45578  -0.45011  -0.44703  -0.44347  -0.43791
 Alpha  occ. eigenvalues --   -0.43692  -0.43375  -0.43078  -0.42696  -0.42250
 Alpha  occ. eigenvalues --   -0.42079  -0.41880  -0.41630  -0.41425  -0.41318
 Alpha  occ. eigenvalues --   -0.40909  -0.40083  -0.39877  -0.39502  -0.39280
 Alpha  occ. eigenvalues --   -0.38920  -0.38543  -0.38527  -0.38262  -0.37859
 Alpha  occ. eigenvalues --   -0.37713  -0.37179  -0.37020  -0.36864  -0.36444
 Alpha  occ. eigenvalues --   -0.36133  -0.35962  -0.35759  -0.35251  -0.35130
 Alpha  occ. eigenvalues --   -0.34467  -0.33847  -0.33746  -0.33532  -0.31642
 Alpha  occ. eigenvalues --   -0.31376  -0.30785  -0.29626  -0.29224  -0.29027
 Alpha  occ. eigenvalues --   -0.26188  -0.26006  -0.25854  -0.24924  -0.24601
 Alpha  occ. eigenvalues --   -0.24223  -0.23623  -0.22984  -0.22006  -0.18501
 Alpha virt. eigenvalues --   -0.11312  -0.07466  -0.05283  -0.01708  -0.00665
 Alpha virt. eigenvalues --    0.00683   0.01065   0.01872   0.02351   0.02923
 Alpha virt. eigenvalues --    0.03766   0.04295   0.04347   0.04793   0.05215

 Mulliken charges:
               1
     1  O   -0.306612
     2  O   -0.197704
     3  O   -0.171393
     4  O   -0.204403
     5  O   -0.238856
     6  O   -0.137270
     7  N   -0.194303
     8  N   -0.085278
     9  N   -0.080328
    10  N   -0.265597
    11  C   -0.057220
    12  C    0.194086
    13  C   -0.046407
    14  C   -0.097280
    15  C   -0.072535
    16  C    0.047127
    17  C   -0.183857
    18  C    0.093313
    19  C   -0.029738
    20  C   -0.103271
    21  C    0.057270
    22  C    0.114935
    23  C   -0.058007
    24  C    0.100479
    25  C    0.151657
    26  C   -0.068614
    27  C    0.015931
    28  C    0.140419
    29  C    0.043191
    30  C   -0.008181
    31  C    0.005799
    32  C    0.041860
    33  C   -0.119301
    34  C    0.053324
    35  C    0.078989
    36  C   -0.118487
    37  C    0.131326
    38  C    0.090465
    39  C   -0.194713
    40  C    0.150277
    41  C   -0.000716
    42  C    0.100385
    43  C    0.003459
    44  H    0.060178
    45  H    0.028255
    46  H   -0.004669
    47  H    0.150137
    48  H    0.154970
    49  H    0.020216
    50  H   -0.007091
    51  H    0.002204
    52  H    0.006396
    53  H    0.023596
    54  H   -0.008996
    55  H    0.028415
    56  H    0.058543
    57  H   -0.002512
    58  H    0.047874
    59  H    0.035039
    60  H    0.076658
    61  H    0.001807
    62  H    0.065970
    63  H    0.033161
    64  H    0.062188
    65  H    0.023103
    66  H    0.023832
    67  H    0.023661
    68  H    0.040008
    69  H   -0.023197
    70  H    0.039794
    71  H    0.045638
    72  H    0.203395
    73  H   -0.092218
    74  H    0.045869
    75  H    0.012799
    76  H    0.010284
    77  H    0.212567
    78  H    0.020278
    79  H    0.007622
 Sum of Mulliken charges =  -0.00000

 Dipole moment (field-independent basis, Debye):
    X=             -2.5288    Y=              0.5874    Z=              3.4415  Tot=              4.3109
 Quadrupole moment (field-independent basis, Debye-Ang):
   XX=           -223.3372   YY=           -237.5653   ZZ=           -264.0075
   XY=             -4.5654   XZ=             36.9312   YZ=              2.8719

 Normal termination of Gaussian 16 at Wed Oct  2 08:51:20 2019.
