 Gaussian 16, Revision A.03,
 Gaussian 16:  ES64L-G16RevA.03 25-Dec-2016

 --------------------------
 # td=(NStates=1) B3LYP/SVP
 --------------------------

 --
 TD
 --
 Symbolic Z-matrix:
 Charge =  0 Multiplicity = 1

                         Standard orientation:
 ---------------------------------------------------------------------
 Center     Atomic      Atomic             Coordinates (Angstroms)
 Number     Number       Type             X           Y           Z
 ---------------------------------------------------------------------
      1          8           0       -3.307165   -1.200418   -2.844604
      2          8           0        2.733596    3.223237    3.310718
      3          8           0        3.487833    1.462253    4.545084
      4          8           0        7.808121   -1.671750   -0.731286
      5          8           0        6.708253   -3.113363   -1.999594
      6          8           0       -2.624653    1.595010    1.352728
      7          7           0       -0.262301   -2.344494    0.887714
      8          7           0       -2.707302   -1.190396   -0.604739
      9          7           0        1.263528    0.220900   -0.682897
     10          7           0       -0.992883    1.414614   -0.274612
     11          6           0       -3.377046   -1.448431    0.568024
     12          6           0       -2.618931   -2.360361    1.589917
     13          6           0       -1.240567   -1.984298    1.752726
     14          6           0       -0.605494   -1.274110    2.752849
     15          6           0        0.685533   -1.165400    2.536671
     16          6           0        0.980582   -1.810484    1.284997
     17          6           0       -4.770004   -1.911706    0.213688
     18          6           0        1.783214   -0.374098    3.203969
     19          6           0       -4.791626   -2.047164   -1.197849
     20          6           0        2.093614   -1.906357    0.337575
     21          6           0        2.142789   -0.872541   -0.605504
     22          6           0       -3.553499   -1.434137   -1.673376
     23          6           0        3.105260   -0.597652   -1.621853
     24          6           0       -1.419398   -0.602261    3.845325
     25          6           0       -5.821440   -2.114494    1.242238
     26          6           0        2.571615    0.369414   -2.388145
     27          6           0        1.711015    1.170898    2.900357
     28          6           0        1.447737    0.918546   -1.827613
     29          6           0        4.302359   -1.414954   -1.914886
     30          6           0       -5.820860   -2.547694   -1.999801
     31          6           0        5.602931   -1.026630   -1.104283
     32          6           0        3.254673    1.042797   -3.725393
     33          6           0        0.535133    1.955908   -2.061482
     34          6           0        2.779977    1.938120    3.652195
     35          6           0       -0.641133    2.172805   -1.308939
     36          6           0       -6.959192   -3.144111   -1.701802
     37          6           0        6.687660   -2.062446   -1.341725
     38          6           0       -1.445052    3.474132   -1.403578
     39          6           0       -2.236423    3.353771   -0.288655
     40          6           0       -1.979639    2.052908    0.316495
     41          6           0       -1.191963    4.458637   -2.328950
     42          6           0       -3.317104    4.375438    0.301386
     43          6           0       -1.671720    5.726629   -2.339548
     44          1           0       -3.385193   -0.632678    1.138513
     45          1           0       -2.579925   -3.332027    1.224786
     46          1           0       -3.286778   -2.504132    2.479822
     47          1           0       -0.232868   -2.931492   -0.038056
     48          1           0       -1.949525   -0.386528   -0.684835
     49          1           0        1.819365   -0.787826    4.254826
     50          1           0        2.818155   -0.773824    2.943653
     51          1           0        2.964528   -2.629111    0.593918
     52          1           0       -2.378784   -1.334467    4.071646
     53          1           0       -0.864890   -0.265819    4.665543
     54          1           0       -1.695720    0.512884    3.351193
     55          1           0       -5.481325   -1.654009    2.298657
     56          1           0       -6.213113   -3.301185    1.357108
     57          1           0       -6.592208   -1.687559    0.928794
     58          1           0        1.646971    1.565047    1.836263
     59          1           0        0.845956    1.532955    3.265864
     60          1           0        0.382561    0.322079   -0.151570
     61          1           0        4.670646   -1.249617   -2.995548
     62          1           0        4.032507   -2.475002   -1.653969
     63          1           0       -5.834961   -2.084578   -3.055942
     64          1           0        5.302052   -1.016974   -0.007932
     65          1           0        5.816780   -0.078232   -1.277369
     66          1           0        4.161996    0.450903   -4.122681
     67          1           0        3.551660    2.041405   -3.630294
     68          1           0        2.423872    1.082039   -4.693308
     69          1           0        0.785813    2.618049   -2.858997
     70          1           0       -7.054106   -3.607078   -0.769428
     71          1           0       -7.770090   -3.345367   -2.585497
     72          1           0        3.390520    3.675233    3.742272
     73          1           0       -0.230192    4.115883   -3.020812
     74          1           0       -4.185524    4.512141   -0.453822
     75          1           0       -3.577883    3.858202    1.043167
     76          1           0       -2.801166    5.338186    0.542333
     77          1           0        8.443011   -2.325763   -1.136181
     78          1           0       -1.451890    6.303868   -3.290753
     79          1           0       -2.383419    5.946246   -1.644188
 ---------------------------------------------------------------------

 SCF Done:  E(RB3LYP) =  -1947.79038343     A.U. after   19 cycles

 Excitation energies and oscillator strengths:

 Excited State   1:      Singlet-A      0.7763 eV 1597.12 nm  f=0.0079  <S**2>=0.000
     155 ->156         0.70411
 This state for optimization and/or second-order correction.
 Total Energy, E(TD-HF/TD-DFT) =  -1947.76185501
 Copying the excited state density for this state as the 1-particle RhoCI density.

 The electronic state is 1-A.
 Alpha  occ. eigenvalues --  -19.19873 -19.18639 -19.14493 -19.12267 -19.11009
 Alpha  occ. eigenvalues --  -19.06937 -14.37538 -14.37278 -14.32334 -14.31645
 Alpha  occ. eigenvalues --  -10.34156 -10.31979 -10.27650 -10.26460 -10.26225
 Alpha  occ. eigenvalues --  -10.25913 -10.25514 -10.24454 -10.23617 -10.22980
 Alpha  occ. eigenvalues --  -10.22944 -10.22860 -10.22769 -10.21900 -10.21184
 Alpha  occ. eigenvalues --  -10.21176 -10.21135 -10.20756 -10.20729 -10.20590
 Alpha  occ. eigenvalues --  -10.20290 -10.19928 -10.19914 -10.19861 -10.19827
 Alpha  occ. eigenvalues --  -10.19381 -10.18764 -10.18520 -10.18232 -10.18170
 Alpha  occ. eigenvalues --  -10.18022 -10.16993 -10.15854  -1.11877  -1.11063
 Alpha  occ. eigenvalues --   -1.01585  -1.00694  -1.00518  -1.00087  -0.99887
 Alpha  occ. eigenvalues --   -0.96794  -0.94048  -0.92446  -0.84878  -0.82823
 Alpha  occ. eigenvalues --   -0.82491  -0.80638  -0.80392  -0.79975  -0.79020
 Alpha  occ. eigenvalues --   -0.77064  -0.76687  -0.76028  -0.75049  -0.72926
 Alpha  occ. eigenvalues --   -0.71167  -0.70538  -0.70107  -0.69914  -0.68027
 Alpha  occ. eigenvalues --   -0.66914  -0.66455  -0.64136  -0.62530  -0.61524
 Alpha  occ. eigenvalues --   -0.61317  -0.60230  -0.59704  -0.58186  -0.57499
 Alpha  occ. eigenvalues --   -0.56234  -0.55030  -0.54599  -0.53726  -0.53430
 Alpha  occ. eigenvalues --   -0.52396  -0.52203  -0.51502  -0.50400  -0.50115
 Alpha  occ. eigenvalues --   -0.49923  -0.49403  -0.49062  -0.48326  -0.48258
 Alpha  occ. eigenvalues --   -0.48160  -0.47468  -0.47283  -0.46634  -0.46211
 Alpha  occ. eigenvalues --   -0.45451  -0.44857  -0.44679  -0.44495  -0.43727
 Alpha  occ. eigenvalues --   -0.43658  -0.43466  -0.43026  -0.42835  -0.42460
 Alpha  occ. eigenvalues --   -0.41701  -0.41408  -0.41236  -0.40884  -0.40626
 Alpha  occ. eigenvalues --   -0.40447  -0.40367  -0.40114  -0.40071  -0.39745
 Alpha  occ. eigenvalues --   -0.39594  -0.39121  -0.38941  -0.38695  -0.38523
 Alpha  occ. eigenvalues --   -0.37972  -0.37410  -0.37147  -0.36823  -0.36546
 Alpha  occ. eigenvalues --   -0.36433  -0.35611  -0.35404  -0.34921  -0.34449
 Alpha  occ. eigenvalues --   -0.34003  -0.33476  -0.32831  -0.32372  -0.32148
 Alpha  occ. eigenvalues --   -0.31518  -0.30210  -0.30172  -0.29928  -0.29242
 Alpha  occ. eigenvalues --   -0.28096  -0.27736  -0.25601  -0.24146  -0.23962
 Alpha  occ. eigenvalues --   -0.23524  -0.23039  -0.22912  -0.21831  -0.18888
 Alpha virt. eigenvalues --   -0.13603  -0.08541  -0.04710  -0.02628  -0.02433
 Alpha virt. eigenvalues --    0.00343   0.01025   0.01983   0.02988   0.03166
 Alpha virt. eigenvalues --    0.03893   0.04146   0.04838   0.04951   0.05308

 Mulliken charges:
               1
     1  O   -0.243303
     2  O   -0.119751
     3  O   -0.249712
     4  O   -0.169776
     5  O   -0.255968
     6  O   -0.289307
     7  N   -0.104087
     8  N   -0.215339
     9  N   -0.104179
    10  N   -0.243540
    11  C    0.135082
    12  C    0.237204
    13  C   -0.066990
    14  C   -0.140596
    15  C   -0.074021
    16  C   -0.054494
    17  C   -0.158665
    18  C    0.092826
    19  C   -0.016921
    20  C   -0.134477
    21  C    0.126841
    22  C    0.115625
    23  C   -0.048609
    24  C    0.038635
    25  C    0.105787
    26  C   -0.093575
    27  C    0.064711
    28  C    0.133069
    29  C    0.037283
    30  C   -0.043969
    31  C    0.032411
    32  C    0.001592
    33  C   -0.092634
    34  C    0.111581
    35  C    0.115032
    36  C   -0.060279
    37  C    0.161794
    38  C    0.090822
    39  C   -0.239934
    40  C    0.156256
    41  C   -0.107978
    42  C    0.181295
    43  C    0.027198
    44  H   -0.034321
    45  H   -0.063664
    46  H   -0.010763
    47  H    0.150326
    48  H    0.186017
    49  H    0.022637
    50  H   -0.011485
    51  H    0.054587
    52  H    0.032000
    53  H   -0.014582
    54  H    0.066198
    55  H    0.047229
    56  H    0.054050
    57  H   -0.030856
    58  H    0.033741
    59  H   -0.001632
    60  H    0.188559
    61  H    0.038689
    62  H    0.043126
    63  H    0.019941
    64  H    0.052434
    65  H   -0.004353
    66  H    0.035180
    67  H    0.030190
    68  H    0.053430
    69  H   -0.039385
    70  H   -0.017739
    71  H    0.047162
    72  H    0.141964
    73  H    0.026598
    74  H    0.049542
    75  H   -0.048089
    76  H    0.040976
    77  H    0.187989
    78  H    0.048662
    79  H   -0.011301
 Sum of Mulliken charges =  -0.00000

 Dipole moment (field-independent basis, Debye):
    X=              4.5781    Y=              3.2868    Z=             -1.0681  Tot=              5.7362
 Quadrupole moment (field-independent basis, Debye-Ang):
   XX=           -236.5126   YY=           -235.5987   ZZ=           -271.7923
   XY=              6.9579   XZ=            -24.0198   YZ=            -14.7916

 Normal termination of Gaussian 16 at Sun Jul 28 06:40:37 2019.
