 Gaussian 16, Revision A.03,
 Gaussian 16:  ES64L-G16RevA.03 25-Dec-2016

 --------------------------
 # td=(NStates=1) B3LYP/SVP
 --------------------------

 --
 TD
 --
 Symbolic Z-matrix:
 Charge =  0 Multiplicity = 1

                         Standard orientation:
 ---------------------------------------------------------------------
 Center     Atomic      Atomic             Coordinates (Angstroms)
 Number     Number       Type             X           Y           Z
 ---------------------------------------------------------------------
      1          8           0       -3.308329   -0.771614   -2.951162
      2          8           0        3.132332    2.592324    3.422256
      3          8           0        3.470193    0.619665    4.668530
      4          8           0        7.631377   -1.442968   -0.796090
      5          8           0        6.700862   -2.720170   -2.382703
      6          8           0       -2.485091    1.452810    1.640753
      7          7           0       -0.313353   -2.559898    0.593970
      8          7           0       -2.762628   -0.996092   -0.755242
      9          7           0        1.072613    0.154019   -0.762626
     10          7           0       -0.872828    1.486795   -0.017004
     11          6           0       -3.454104   -1.338874    0.509685
     12          6           0       -2.736253   -2.382434    1.229784
     13          6           0       -1.223396   -2.298088    1.502686
     14          6           0       -0.606605   -1.484891    2.696186
     15          6           0        0.758955   -1.469740    2.292413
     16          6           0        1.026984   -2.046701    0.997193
     17          6           0       -4.810728   -1.811664   -0.006958
     18          6           0        1.827017   -0.819392    3.018772
     19          6           0       -4.885062   -1.728619   -1.305229
     20          6           0        2.086524   -1.986462    0.078074
     21          6           0        2.045864   -0.901846   -0.838884
     22          6           0       -3.629229   -1.089129   -1.835145
     23          6           0        2.970255   -0.572884   -1.979284
     24          6           0       -1.298118   -1.100776    3.851349
     25          6           0       -5.885648   -2.424559    1.012849
     26          6           0        2.570992    0.683495   -2.456670
     27          6           0        1.902509    0.648587    2.803070
     28          6           0        1.382740    1.009029   -1.668998
     29          6           0        4.245637   -1.248442   -2.184434
     30          6           0       -5.862584   -2.139829   -2.358419
     31          6           0        5.383313   -0.946567   -1.236725
     32          6           0        3.177360    1.574141   -3.544640
     33          6           0        0.540200    2.176863   -1.889988
     34          6           0        2.896118    1.240180    3.733714
     35          6           0       -0.527421    2.315924   -0.912697
     36          6           0       -7.001579   -2.773492   -2.089091
     37          6           0        6.602252   -1.754436   -1.611506
     38          6           0       -1.224022    3.660265   -0.654245
     39          6           0       -2.167115    3.388991    0.360916
     40          6           0       -1.850508    2.042388    0.728449
     41          6           0       -1.169857    4.849414   -1.632815
     42          6           0       -3.034677    4.369390    0.847426
     43          6           0       -1.779027    6.052381   -1.685753
     44          1           0       -3.472649   -0.476090    1.156044
     45          1           0       -2.893197   -3.307017    0.628852
     46          1           0       -3.167127   -2.378962    2.279088
     47          1           0       -0.303900   -2.876755   -0.361457
     48          1           0       -2.103085   -0.172476   -0.678236
     49          1           0        1.507702   -1.088916    4.181893
     50          1           0        2.715696   -1.291723    2.982131
     51          1           0        3.064810   -2.705682   -0.205498
     52          1           0       -2.272927   -1.799892    4.116630
     53          1           0       -0.515460   -0.991611    4.706058
     54          1           0       -1.933150   -0.344726    3.584742
     55          1           0       -5.836403   -2.025437    1.889621
     56          1           0       -5.897015   -3.369763    0.907364
     57          1           0       -6.914015   -2.235713    0.714208
     58          1           0        1.860383    1.060478    1.752475
     59          1           0        0.860184    0.954223    3.227421
     60          1           0        0.297951    0.181721   -0.284349
     61          1           0        4.567449   -1.025810   -3.278110
     62          1           0        4.046777   -2.315328   -2.368969
     63          1           0       -5.633206   -1.764712   -3.292414
     64          1           0        4.754433   -1.252974   -0.277268
     65          1           0        5.717282    0.268820   -1.200493
     66          1           0        4.394866    1.528058   -3.474130
     67          1           0        2.964468    2.918304   -3.203830
     68          1           0        2.611335    1.063272   -4.380072
     69          1           0        0.552310    2.891965   -2.564826
     70          1           0       -7.283951   -3.331395   -1.062168
     71          1           0       -7.784601   -3.072899   -2.849992
     72          1           0        3.810531    2.862360    4.033919
     73          1           0       -0.225991    4.699518   -2.437900
     74          1           0       -3.823891    4.567498    0.167432
     75          1           0       -3.665179    3.718436    1.565685
     76          1           0       -2.781302    5.436975    1.262200
     77          1           0        8.291897   -1.948724   -0.981777
     78          1           0       -1.636119    6.830601   -2.250796
     79          1           0       -2.497013    6.206889   -0.856320
 ---------------------------------------------------------------------

 SCF Done:  E(RB3LYP) =  -1947.67183667     A.U. after   19 cycles

 Excitation energies and oscillator strengths:

 Excited State   1:      Singlet-A      0.8451 eV 1467.03 nm  f=0.0007  <S**2>=0.000
     155 ->156         0.70225
 This state for optimization and/or second-order correction.
 Total Energy, E(TD-HF/TD-DFT) =  -1947.64077846
 Copying the excited state density for this state as the 1-particle RhoCI density.

 The electronic state is 1-A.
 Alpha  occ. eigenvalues --  -19.18783 -19.17862 -19.14497 -19.12938 -19.11818
 Alpha  occ. eigenvalues --  -19.08644 -14.37859 -14.37804 -14.32161 -14.30860
 Alpha  occ. eigenvalues --  -10.34354 -10.32407 -10.28098 -10.27068 -10.26677
 Alpha  occ. eigenvalues --  -10.26422 -10.25869 -10.24988 -10.24915 -10.24160
 Alpha  occ. eigenvalues --  -10.23588 -10.23476 -10.23152 -10.22244 -10.22102
 Alpha  occ. eigenvalues --  -10.22029 -10.21288 -10.20739 -10.20652 -10.20562
 Alpha  occ. eigenvalues --  -10.20376 -10.20062 -10.19915 -10.19811 -10.19670
 Alpha  occ. eigenvalues --  -10.19648 -10.18978 -10.18581 -10.18474 -10.18163
 Alpha  occ. eigenvalues --  -10.18115 -10.17963 -10.17283  -1.12737  -1.07217
 Alpha  occ. eigenvalues --   -1.02852  -1.01880  -1.01666  -1.01532  -0.98822
 Alpha  occ. eigenvalues --   -0.95817  -0.95615  -0.91561  -0.85360  -0.82351
 Alpha  occ. eigenvalues --   -0.81848  -0.81410  -0.80438  -0.79965  -0.78355
 Alpha  occ. eigenvalues --   -0.77318  -0.76798  -0.76100  -0.74495  -0.73391
 Alpha  occ. eigenvalues --   -0.71762  -0.71426  -0.71322  -0.70345  -0.68291
 Alpha  occ. eigenvalues --   -0.66812  -0.65835  -0.63637  -0.63216  -0.61032
 Alpha  occ. eigenvalues --   -0.60429  -0.59819  -0.59021  -0.58434  -0.57323
 Alpha  occ. eigenvalues --   -0.56336  -0.56147  -0.54621  -0.54308  -0.52912
 Alpha  occ. eigenvalues --   -0.52173  -0.52077  -0.51311  -0.50508  -0.49757
 Alpha  occ. eigenvalues --   -0.49499  -0.49013  -0.48223  -0.48154  -0.47828
 Alpha  occ. eigenvalues --   -0.47503  -0.47420  -0.47152  -0.46874  -0.46429
 Alpha  occ. eigenvalues --   -0.46090  -0.45936  -0.45513  -0.44770  -0.44556
 Alpha  occ. eigenvalues --   -0.44265  -0.43450  -0.42994  -0.42739  -0.42394
 Alpha  occ. eigenvalues --   -0.42207  -0.42099  -0.41788  -0.41704  -0.41250
 Alpha  occ. eigenvalues --   -0.40787  -0.40742  -0.40541  -0.40264  -0.40002
 Alpha  occ. eigenvalues --   -0.39890  -0.39351  -0.39089  -0.38244  -0.37804
 Alpha  occ. eigenvalues --   -0.37585  -0.37073  -0.36832  -0.36640  -0.36337
 Alpha  occ. eigenvalues --   -0.36032  -0.35138  -0.34426  -0.34023  -0.33680
 Alpha  occ. eigenvalues --   -0.33418  -0.33127  -0.31781  -0.31721  -0.31381
 Alpha  occ. eigenvalues --   -0.31177  -0.30877  -0.30105  -0.29344  -0.28796
 Alpha  occ. eigenvalues --   -0.28143  -0.27827  -0.26079  -0.24743  -0.24190
 Alpha  occ. eigenvalues --   -0.24061  -0.23700  -0.23282  -0.22316  -0.18233
 Alpha virt. eigenvalues --   -0.12528  -0.08350  -0.03821  -0.03587  -0.01742
 Alpha virt. eigenvalues --   -0.01364  -0.00290   0.00151   0.01928   0.02542
 Alpha virt. eigenvalues --    0.02760   0.03814   0.04184   0.04382   0.05371

 Mulliken charges:
               1
     1  O   -0.218055
     2  O   -0.206618
     3  O   -0.261411
     4  O   -0.090463
     5  O   -0.241727
     6  O   -0.245739
     7  N   -0.047244
     8  N   -0.252606
     9  N    0.082138
    10  N   -0.224955
    11  C    0.108137
    12  C    0.171280
    13  C   -0.084557
    14  C   -0.107037
    15  C   -0.097534
    16  C    0.024812
    17  C   -0.222389
    18  C    0.078949
    19  C   -0.062556
    20  C   -0.128550
    21  C    0.035611
    22  C    0.127888
    23  C   -0.066076
    24  C    0.100246
    25  C    0.262996
    26  C   -0.109617
    27  C    0.001349
    28  C    0.092637
    29  C    0.039120
    30  C    0.090092
    31  C   -0.063982
    32  C   -0.047452
    33  C    0.004134
    34  C    0.175281
    35  C    0.020071
    36  C   -0.087183
    37  C    0.160719
    38  C   -0.012026
    39  C   -0.133107
    40  C    0.142495
    41  C   -0.058412
    42  C    0.060727
    43  C    0.042256
    44  H    0.022429
    45  H   -0.022039
    46  H   -0.007530
    47  H    0.117594
    48  H    0.161748
    49  H    0.023679
    50  H   -0.035478
    51  H    0.040493
    52  H    0.009680
    53  H    0.038065
    54  H   -0.003658
    55  H   -0.034298
    56  H   -0.029693
    57  H   -0.000709
    58  H    0.046214
    59  H    0.065255
    60  H    0.089955
    61  H    0.011157
    62  H    0.030326
    63  H   -0.021235
    64  H    0.080730
    65  H    0.078017
    66  H    0.072635
    67  H    0.072801
    68  H    0.090847
    69  H   -0.099505
    70  H    0.031198
    71  H    0.029403
    72  H    0.167769
    73  H    0.026079
    74  H    0.011686
    75  H    0.015247
    76  H    0.069990
    77  H    0.111252
    78  H   -0.022634
    79  H    0.010888
 Sum of Mulliken charges =  -0.00000

 Dipole moment (field-independent basis, Debye):
    X=              2.5041    Y=              2.9250    Z=             -1.3342  Tot=              4.0751
 Quadrupole moment (field-independent basis, Debye-Ang):
   XX=           -231.2843   YY=           -236.1063   ZZ=           -274.4817
   XY=             11.8776   XZ=            -19.7525   YZ=             -6.4792

 Normal termination of Gaussian 16 at Sun Jul 28 10:57:20 2019.
