 Gaussian 16, Revision A.03,
 Gaussian 16:  ES64L-G16RevA.03 25-Dec-2016

 --------------------------
 # td=(NStates=1) B3LYP/SVP
 --------------------------

 --
 TD
 --
 Symbolic Z-matrix:
 Charge =  0 Multiplicity = 1

                         Standard orientation:
 ---------------------------------------------------------------------
 Center     Atomic      Atomic             Coordinates (Angstroms)
 Number     Number       Type             X           Y           Z
 ---------------------------------------------------------------------
      1          8           0        5.220018    0.233342   -3.156816
      2          8           0       -3.206122   -2.849803    2.947904
      3          8           0       -3.375859   -0.653320    2.800610
      4          8           0       -1.463280    7.097897    1.512068
      5          8           0       -0.748070    6.928169   -0.536988
      6          8           0       -1.544174   -4.067081   -0.150274
      7          7           0        2.345419    1.010470    0.781497
      8          7           0        4.327678   -0.493316   -1.117803
      9          7           0       -1.816835    0.716377   -0.396514
     10          7           0       -2.433069   -1.863183   -0.600726
     11          6           0        4.798958   -1.063364    0.108697
     12          6           0        4.478714   -0.321029    1.289663
     13          6           0        3.008369    0.026796    1.482171
     14          6           0        1.881778   -0.653848    2.099193
     15          6           0        0.677933   -0.081545    1.853471
     16          6           0        0.958708    0.994710    0.893811
     17          6           0        6.280496   -1.411600   -0.156137
     18          6           0       -0.627803   -0.220224    2.584739
     19          6           0        6.567719   -0.858560   -1.409318
     20          6           0        0.137705    1.994931    0.275406
     21          6           0       -1.101818    1.902443   -0.317341
     22          6           0        5.407227   -0.178683   -2.034600
     23          6           0       -1.948568    2.879973   -0.904932
     24          6           0        2.028757   -1.745417    3.148480
     25          6           0        7.018680   -2.228828    0.825254
     26          6           0       -3.074634    2.401716   -1.367107
     27          6           0       -1.226806   -1.651172    2.598319
     28          6           0       -2.940017    0.914406   -1.053772
     29          6           0       -1.588872    4.383628   -0.987101
     30          6           0        7.905100   -0.730401   -2.014015
     31          6           0       -1.875152    5.016576    0.385921
     32          6           0       -4.300671    2.996445   -1.991823
     33          6           0       -3.894446   -0.197559   -1.445218
     34          6           0       -2.649848   -1.597212    2.747008
     35          6           0       -3.634958   -1.534840   -1.158794
     36          6           0        9.211810   -0.964187   -1.467882
     37          6           0       -1.240398    6.469543    0.465848
     38          6           0       -4.434057   -2.683716   -1.429728
     39          6           0       -3.753571   -3.808861   -1.081431
     40          6           0       -2.436240   -3.239000   -0.535046
     41          6           0       -5.868827   -2.564461   -1.881408
     42          6           0       -4.109621   -5.158415   -1.141578
     43          6           0       -6.720207   -3.579175   -2.182091
     44          1           0        4.080688   -1.924528    0.207744
     45          1           0        4.719798    0.896649    1.254336
     46          1           0        4.881494   -0.862346    2.119594
     47          1           0        2.772131    1.448867    0.012585
     48          1           0        3.270504   -0.621713   -1.314698
     49          1           0       -0.525967    0.132779    3.723525
     50          1           0       -1.319192    0.330147    2.212967
     51          1           0        0.973047    2.978271   -0.071654
     52          1           0        3.073958   -2.067262    3.285637
     53          1           0        1.379496   -1.438380    3.997156
     54          1           0        1.742448   -2.606070    2.796801
     55          1           0        6.417196   -3.132607    1.176305
     56          1           0        7.497062   -1.482002    1.643094
     57          1           0        7.811351   -2.751783    0.082415
     58          1           0       -0.803940   -2.071066    1.539663
     59          1           0       -0.902344   -2.348167    3.328506
     60          1           0       -1.487735   -0.273083   -0.146702
     61          1           0       -2.325460    4.761784   -1.900844
     62          1           0       -0.422752    4.600540   -1.350019
     63          1           0        7.891305   -0.601628   -2.952618
     64          1           0       -1.500982    4.355225    1.144446
     65          1           0       -3.007510    5.144358    0.460026
     66          1           0       -4.319977    4.109877   -1.756688
     67          1           0       -5.108469    2.812237   -1.461955
     68          1           0       -4.444064    2.832488   -3.063112
     69          1           0       -4.872273    0.224317   -1.909427
     70          1           0        9.255558   -1.111536   -0.488613
     71          1           0       10.147282   -0.647227   -2.030838
     72          1           0       -4.141577   -2.780152    3.119987
     73          1           0       -6.069400   -1.548823   -2.085929
     74          1           0       -5.027778   -5.294404   -0.395200
     75          1           0       -4.730282   -5.384793   -2.155738
     76          1           0       -3.277620   -5.876686   -1.028599
     77          1           0       -1.081249    8.004985    1.349165
     78          1           0       -7.664060   -3.358679   -2.673516
     79          1           0       -6.515782   -4.610066   -1.856960
 ---------------------------------------------------------------------

 SCF Done:  E(RB3LYP) =  -1947.78841971     A.U. after   19 cycles

 Excitation energies and oscillator strengths:

 Excited State   1:      Singlet-A      2.1290 eV  582.37 nm  f=0.3257  <S**2>=0.000
     153 ->156        -0.10390
     154 ->156         0.28919
     155 ->156         0.63682
     155 <-156        -0.10176
 This state for optimization and/or second-order correction.
 Total Energy, E(TD-HF/TD-DFT) =  -1947.71018213
 Copying the excited state density for this state as the 1-particle RhoCI density.

 The electronic state is 1-A.
 Alpha  occ. eigenvalues --  -19.21243 -19.15014 -19.12083 -19.11448 -19.11333
 Alpha  occ. eigenvalues --  -19.08356 -14.39389 -14.37530 -14.35223 -14.28182
 Alpha  occ. eigenvalues --  -10.32241 -10.30213 -10.30007 -10.25639 -10.25124
 Alpha  occ. eigenvalues --  -10.24525 -10.24520 -10.24480 -10.24456 -10.24192
 Alpha  occ. eigenvalues --  -10.24084 -10.23696 -10.23400 -10.22333 -10.22215
 Alpha  occ. eigenvalues --  -10.22208 -10.21507 -10.20969 -10.20639 -10.20557
 Alpha  occ. eigenvalues --  -10.20506 -10.19991 -10.19930 -10.19924 -10.19517
 Alpha  occ. eigenvalues --  -10.19475 -10.19382 -10.19359 -10.19265 -10.18659
 Alpha  occ. eigenvalues --  -10.18320 -10.18200 -10.18059  -1.15262  -1.07841
 Alpha  occ. eigenvalues --   -1.03385  -1.01684  -1.00020  -0.99378  -0.98738
 Alpha  occ. eigenvalues --   -0.97038  -0.94129  -0.90751  -0.83157  -0.82731
 Alpha  occ. eigenvalues --   -0.82209  -0.81746  -0.80098  -0.79536  -0.78120
 Alpha  occ. eigenvalues --   -0.77266  -0.76555  -0.75612  -0.74417  -0.72714
 Alpha  occ. eigenvalues --   -0.72383  -0.71843  -0.70355  -0.69016  -0.68504
 Alpha  occ. eigenvalues --   -0.67940  -0.65853  -0.63313  -0.62657  -0.61497
 Alpha  occ. eigenvalues --   -0.60318  -0.59100  -0.58451  -0.57702  -0.57485
 Alpha  occ. eigenvalues --   -0.56893  -0.55038  -0.54964  -0.54580  -0.53449
 Alpha  occ. eigenvalues --   -0.51843  -0.51472  -0.51114  -0.50862  -0.50454
 Alpha  occ. eigenvalues --   -0.50240  -0.49362  -0.49074  -0.48570  -0.47537
 Alpha  occ. eigenvalues --   -0.47411  -0.47114  -0.46611  -0.46236  -0.45902
 Alpha  occ. eigenvalues --   -0.45524  -0.45068  -0.44485  -0.44351  -0.44240
 Alpha  occ. eigenvalues --   -0.43623  -0.43202  -0.43120  -0.42758  -0.42519
 Alpha  occ. eigenvalues --   -0.42305  -0.42099  -0.41650  -0.41347  -0.41130
 Alpha  occ. eigenvalues --   -0.40943  -0.40895  -0.40810  -0.40430  -0.40158
 Alpha  occ. eigenvalues --   -0.39582  -0.39405  -0.38945  -0.38830  -0.38537
 Alpha  occ. eigenvalues --   -0.38098  -0.37665  -0.37264  -0.37145  -0.36827
 Alpha  occ. eigenvalues --   -0.36055  -0.34924  -0.34260  -0.33757  -0.33597
 Alpha  occ. eigenvalues --   -0.33444  -0.33162  -0.33127  -0.32265  -0.31448
 Alpha  occ. eigenvalues --   -0.30578  -0.30445  -0.28532  -0.27853  -0.27310
 Alpha  occ. eigenvalues --   -0.27047  -0.26906  -0.26826  -0.26223  -0.25745
 Alpha  occ. eigenvalues --   -0.24353  -0.23103  -0.22102  -0.21213  -0.18973
 Alpha virt. eigenvalues --   -0.10574  -0.07897  -0.05815  -0.01627  -0.00792
 Alpha virt. eigenvalues --    0.00675   0.00853   0.01002   0.02182   0.02340
 Alpha virt. eigenvalues --    0.03114   0.03580   0.03930   0.03946   0.04412

 Mulliken charges:
               1
     1  O   -0.196827
     2  O   -0.213124
     3  O   -0.211495
     4  O   -0.073673
     5  O   -0.246363
     6  O   -0.288089
     7  N   -0.054157
     8  N   -0.305855
     9  N   -0.035904
    10  N   -0.310638
    11  C    0.089807
    12  C    0.168927
    13  C   -0.091363
    14  C   -0.201424
    15  C   -0.085012
    16  C   -0.021531
    17  C   -0.098406
    18  C    0.207105
    19  C   -0.078026
    20  C   -0.137470
    21  C    0.122089
    22  C    0.216291
    23  C   -0.069986
    24  C    0.214428
    25  C   -0.009353
    26  C   -0.131236
    27  C   -0.071009
    28  C   -0.004924
    29  C   -0.033354
    30  C    0.029627
    31  C    0.006771
    32  C    0.179593
    33  C   -0.132354
    34  C    0.143727
    35  C    0.146797
    36  C    0.013427
    37  C    0.082483
    38  C    0.018783
    39  C   -0.153386
    40  C    0.167356
    41  C    0.031109
    42  C    0.000304
    43  C   -0.026730
    44  H    0.005191
    45  H    0.024457
    46  H   -0.007738
    47  H    0.097929
    48  H    0.163070
    49  H    0.029125
    50  H   -0.074004
    51  H    0.045627
    52  H   -0.024067
    53  H    0.030074
    54  H   -0.034198
    55  H    0.054934
    56  H    0.086104
    57  H    0.062893
    58  H    0.118269
    59  H    0.020334
    60  H    0.176578
    61  H    0.043023
    62  H    0.059787
    63  H   -0.061879
    64  H    0.035107
    65  H    0.045132
    66  H   -0.000273
    67  H   -0.017713
    68  H    0.045446
    69  H    0.007246
    70  H   -0.023129
    71  H    0.054645
    72  H    0.166585
    73  H   -0.043304
    74  H    0.047593
    75  H    0.041508
    76  H    0.042434
    77  H    0.191579
    78  H    0.018777
    79  H    0.015924
 Sum of Mulliken charges =  -0.00000

 Dipole moment (field-independent basis, Debye):
    X=              1.9972    Y=              3.5686    Z=              4.2369  Tot=              5.8886
 Quadrupole moment (field-independent basis, Debye-Ang):
   XX=           -215.5072   YY=           -244.8775   ZZ=           -263.7910
   XY=            -17.8527   XZ=             26.5490   YZ=              5.9749

 Normal termination of Gaussian 16 at Fri Sep 27 09:44:28 2019.
