 Gaussian 16, Revision A.03,
 Gaussian 16:  ES64L-G16RevA.03 25-Dec-2016

 --------------------------
 # td=(NStates=1) B3LYP/SVP
 --------------------------

 --
 TD
 --
 Symbolic Z-matrix:
 Charge =  0 Multiplicity = 1

                         Standard orientation:
 ---------------------------------------------------------------------
 Center     Atomic      Atomic             Coordinates (Angstroms)
 Number     Number       Type             X           Y           Z
 ---------------------------------------------------------------------
      1          8           0       -3.316860   -1.745773   -2.706436
      2          8           0        3.084769    3.622051    3.149595
      3          8           0        3.928410    1.758794    4.229753
      4          8           0        7.718337   -1.667547   -0.673223
      5          8           0        6.762405   -3.081146   -2.074441
      6          8           0       -2.714632    1.785562    1.327255
      7          7           0       -0.185442   -2.219242    1.167783
      8          7           0       -2.759672   -1.232993   -0.563060
      9          7           0        1.140383   -0.001417   -0.729442
     10          7           0       -1.041097    1.433598   -0.387359
     11          6           0       -3.426854   -1.278239    0.763064
     12          6           0       -2.635247   -2.159290    1.861864
     13          6           0       -1.185739   -1.797215    1.999463
     14          6           0       -0.534188   -0.867631    2.940545
     15          6           0        0.864241   -0.815618    2.599600
     16          6           0        0.968027   -1.718064    1.521785
     17          6           0       -4.778842   -1.888919    0.478554
     18          6           0        1.926616   -0.043297    3.265802
     19          6           0       -4.782931   -2.097731   -0.805673
     20          6           0        2.115477   -1.812673    0.547304
     21          6           0        2.158756   -0.963722   -0.613938
     22          6           0       -3.512697   -1.680132   -1.548247
     23          6           0        3.060067   -0.820393   -1.706684
     24          6           0       -1.197015   -0.040530    4.017385
     25          6           0       -5.778638   -2.092672    1.467272
     26          6           0        2.660099    0.245867   -2.426702
     27          6           0        2.120523    1.415814    2.764558
     28          6           0        1.352046    0.776758   -1.909875
     29          6           0        4.161698   -1.800858   -1.901900
     30          6           0       -5.720916   -2.790599   -1.754595
     31          6           0        5.498762   -1.276141   -1.218560
     32          6           0        3.143900    0.876148   -3.784749
     33          6           0        0.501758    1.675937   -2.268049
     34          6           0        3.106991    2.256215    3.469188
     35          6           0       -0.772066    2.097272   -1.457308
     36          6           0       -6.991925   -3.230840   -1.203589
     37          6           0        6.697524   -2.053147   -1.319574
     38          6           0       -1.566864    3.264570   -1.663250
     39          6           0       -2.480894    3.199161   -0.582529
     40          6           0       -2.107259    2.068377    0.231368
     41          6           0       -1.389267    4.240782   -2.717587
     42          6           0       -3.699656    4.145589   -0.331978
     43          6           0       -2.051572    5.469105   -2.873610
     44          1           0       -3.547196   -0.287731    1.117031
     45          1           0       -2.822272   -3.143599    1.469870
     46          1           0       -3.037914   -1.871770    2.765500
     47          1           0       -0.506541   -3.072802    0.630287
     48          1           0       -2.148475   -0.490860   -0.709694
     49          1           0        1.972926   -0.209723    4.288040
     50          1           0        2.859354   -0.472021    2.933899
     51          1           0        2.927785   -2.589315    0.498652
     52          1           0       -2.055394   -0.387964    4.701791
     53          1           0       -0.474997    0.288587    4.814344
     54          1           0       -1.651228    0.771333    3.509943
     55          1           0       -5.566860   -1.370646    2.338658
     56          1           0       -5.657678   -3.058279    1.958590
     57          1           0       -6.896339   -2.062686    1.223970
     58          1           0        2.310844    1.395384    1.665821
     59          1           0        1.106374    2.077405    2.895712
     60          1           0        0.462334    0.376385   -0.284707
     61          1           0        4.539539   -1.832354   -2.937727
     62          1           0        3.717512   -2.752695   -1.575044
     63          1           0       -5.657497   -2.791096   -2.881129
     64          1           0        5.359706   -1.153831   -0.121875
     65          1           0        5.809458   -0.248370   -1.420912
     66          1           0        4.055848    0.316092   -4.219025
     67          1           0        3.462823    1.791596   -3.602149
     68          1           0        2.327743    0.996261   -4.474388
     69          1           0        0.797275    2.415251   -3.164144
     70          1           0       -7.294828   -3.143332    0.022571
     71          1           0       -7.715149   -3.837970   -1.951418
     72          1           0        3.761099    3.992362    3.621236
     73          1           0       -0.316505    4.058503   -3.391461
     74          1           0       -4.417268    4.175932   -1.170806
     75          1           0       -4.265737    3.356796    0.607913
     76          1           0       -3.343539    5.130349    0.136011
     77          1           0        8.379048   -2.460414   -0.955498
     78          1           0       -1.852350    6.081034   -3.765315
     79          1           0       -2.744032    5.755733   -2.046163
 ---------------------------------------------------------------------

 SCF Done:  E(RB3LYP) =  -1947.77931836     A.U. after   18 cycles

 Excitation energies and oscillator strengths:

 Excited State   1:      Singlet-A      0.7416 eV 1671.81 nm  f=0.0003  <S**2>=0.000
     155 ->156         0.70479
 This state for optimization and/or second-order correction.
 Total Energy, E(TD-HF/TD-DFT) =  -1947.75206447
 Copying the excited state density for this state as the 1-particle RhoCI density.

 The electronic state is 1-A.
 Alpha  occ. eigenvalues --  -19.21117 -19.17489 -19.14234 -19.12659 -19.11786
 Alpha  occ. eigenvalues --  -19.08352 -14.37505 -14.35243 -14.32532 -14.32046
 Alpha  occ. eigenvalues --  -10.32430 -10.32070 -10.29702 -10.26956 -10.25653
 Alpha  occ. eigenvalues --  -10.25643 -10.25178 -10.24067 -10.23081 -10.22575
 Alpha  occ. eigenvalues --  -10.22555 -10.22517 -10.22479 -10.22465 -10.22385
 Alpha  occ. eigenvalues --  -10.22377 -10.22197 -10.22059 -10.21976 -10.21263
 Alpha  occ. eigenvalues --  -10.21153 -10.20850 -10.20836 -10.20349 -10.20022
 Alpha  occ. eigenvalues --  -10.19875 -10.19568 -10.18962 -10.18409 -10.17755
 Alpha  occ. eigenvalues --  -10.17615 -10.17488 -10.17372  -1.13242  -1.08658
 Alpha  occ. eigenvalues --   -1.02987  -1.02430  -1.00382  -0.98741  -0.98019
 Alpha  occ. eigenvalues --   -0.97952  -0.96278  -0.93431  -0.84676  -0.81750
 Alpha  occ. eigenvalues --   -0.81673  -0.81464  -0.80396  -0.79795  -0.77983
 Alpha  occ. eigenvalues --   -0.76099  -0.75799  -0.74776  -0.74048  -0.72848
 Alpha  occ. eigenvalues --   -0.71306  -0.70875  -0.70355  -0.69538  -0.67908
 Alpha  occ. eigenvalues --   -0.67144  -0.66632  -0.63936  -0.61378  -0.60838
 Alpha  occ. eigenvalues --   -0.59982  -0.59589  -0.58309  -0.57853  -0.56995
 Alpha  occ. eigenvalues --   -0.56550  -0.55453  -0.54472  -0.54037  -0.53610
 Alpha  occ. eigenvalues --   -0.52222  -0.51682  -0.51393  -0.50696  -0.50296
 Alpha  occ. eigenvalues --   -0.49831  -0.49400  -0.48759  -0.48300  -0.47650
 Alpha  occ. eigenvalues --   -0.47113  -0.46869  -0.46670  -0.45938  -0.45574
 Alpha  occ. eigenvalues --   -0.45487  -0.45237  -0.44523  -0.44004  -0.43962
 Alpha  occ. eigenvalues --   -0.43548  -0.43282  -0.42967  -0.42689  -0.42545
 Alpha  occ. eigenvalues --   -0.42306  -0.41806  -0.41476  -0.41192  -0.41069
 Alpha  occ. eigenvalues --   -0.40795  -0.40538  -0.40436  -0.39965  -0.39713
 Alpha  occ. eigenvalues --   -0.39639  -0.39381  -0.38826  -0.38677  -0.38387
 Alpha  occ. eigenvalues --   -0.37984  -0.37933  -0.37105  -0.36769  -0.36480
 Alpha  occ. eigenvalues --   -0.36176  -0.35781  -0.35578  -0.34572  -0.33948
 Alpha  occ. eigenvalues --   -0.33400  -0.32290  -0.32289  -0.32109  -0.31562
 Alpha  occ. eigenvalues --   -0.31506  -0.30347  -0.29996  -0.29454  -0.27893
 Alpha  occ. eigenvalues --   -0.27691  -0.27513  -0.27081  -0.25524  -0.24157
 Alpha  occ. eigenvalues --   -0.23721  -0.23116  -0.21910  -0.21828  -0.19065
 Alpha virt. eigenvalues --   -0.14093  -0.07934  -0.03990  -0.03677  -0.00603
 Alpha virt. eigenvalues --   -0.00447   0.01560   0.01756   0.01947   0.02889
 Alpha virt. eigenvalues --    0.03683   0.04265   0.04377   0.04941   0.05343

 Mulliken charges:
               1
     1  O   -0.186579
     2  O   -0.179010
     3  O   -0.237463
     4  O   -0.146275
     5  O   -0.326166
     6  O   -0.243302
     7  N   -0.000461
     8  N   -0.137943
     9  N   -0.034377
    10  N   -0.238447
    11  C    0.055909
    12  C    0.302359
    13  C   -0.183990
    14  C   -0.095326
    15  C   -0.105723
    16  C    0.012500
    17  C   -0.128510
    18  C    0.198521
    19  C   -0.113286
    20  C   -0.102446
    21  C    0.080953
    22  C    0.101318
    23  C   -0.077457
    24  C    0.045915
    25  C    0.064859
    26  C   -0.118938
    27  C   -0.057563
    28  C    0.097878
    29  C    0.159687
    30  C   -0.015193
    31  C    0.011127
    32  C    0.160321
    33  C   -0.118309
    34  C    0.152121
    35  C    0.040397
    36  C   -0.138627
    37  C    0.110992
    38  C    0.059582
    39  C   -0.183020
    40  C    0.199819
    41  C   -0.095868
    42  C   -0.030004
    43  C   -0.021811
    44  H    0.018616
    45  H   -0.033977
    46  H   -0.034078
    47  H    0.145824
    48  H    0.106745
    49  H   -0.005859
    50  H   -0.027834
    51  H    0.001784
    52  H    0.006902
    53  H    0.006692
    54  H    0.023770
    55  H    0.017434
    56  H    0.019447
    57  H    0.053996
    58  H    0.048557
    59  H    0.056068
    60  H    0.051414
    61  H    0.019950
    62  H    0.040050
    63  H    0.041387
    64  H    0.030411
    65  H    0.032773
    66  H    0.027505
    67  H   -0.021461
    68  H    0.034042
    69  H    0.013101
    70  H    0.048695
    71  H    0.041013
    72  H    0.142550
    73  H    0.044090
    74  H    0.060226
    75  H    0.065747
    76  H    0.070822
    77  H    0.228403
    78  H    0.046905
    79  H    0.040129
 Sum of Mulliken charges =  -0.00000

 Dipole moment (field-independent basis, Debye):
    X=              2.7148    Y=              3.8646    Z=             -0.8787  Tot=              4.8039
 Quadrupole moment (field-independent basis, Debye-Ang):
   XX=           -241.6652   YY=           -238.3349   ZZ=           -265.6034
   XY=              2.6986   XZ=            -19.4183   YZ=            -21.8650

 Normal termination of Gaussian 16 at Tue Jul 30 11:21:06 2019.
