 Gaussian 16, Revision A.03,
 Gaussian 16:  ES64L-G16RevA.03 25-Dec-2016

 --------------------------
 # td=(NStates=1) B3LYP/SVP
 --------------------------

 --
 TD
 --
 Symbolic Z-matrix:
 Charge =  0 Multiplicity = 1

                         Standard orientation:
 ---------------------------------------------------------------------
 Center     Atomic      Atomic             Coordinates (Angstroms)
 Number     Number       Type             X           Y           Z
 ---------------------------------------------------------------------
      1          8           0        5.499354    0.110102   -3.085406
      2          8           0       -3.105725   -3.013669    2.995882
      3          8           0       -3.397288   -0.805144    3.033617
      4          8           0       -1.824792    7.012295    1.677095
      5          8           0       -0.542840    7.111435   -0.232488
      6          8           0       -1.950583   -3.963834   -0.152195
      7          7           0        2.537381    0.835929    0.613388
      8          7           0        4.500310   -0.664984   -1.240338
      9          7           0       -1.733398    0.697522   -0.489172
     10          7           0       -2.578689   -1.863284   -0.667597
     11          6           0        4.815549   -1.352293   -0.038879
     12          6           0        4.494928   -0.553765    1.208762
     13          6           0        2.979919   -0.266609    1.339206
     14          6           0        1.905885   -0.813922    2.031197
     15          6           0        0.666349   -0.173127    1.611499
     16          6           0        1.168914    0.879291    0.857388
     17          6           0        6.437953   -1.446400   -0.185647
     18          6           0       -0.654544   -0.339037    2.368746
     19          6           0        6.796023   -0.820740   -1.325510
     20          6           0        0.302545    1.915046    0.080692
     21          6           0       -0.995552    1.865433   -0.350892
     22          6           0        5.547676   -0.338472   -2.049519
     23          6           0       -1.826738    2.920552   -0.927699
     24          6           0        1.978560   -1.980938    2.966724
     25          6           0        7.204899   -2.043819    0.899176
     26          6           0       -3.061592    2.432876   -1.315163
     27          6           0       -1.290268   -1.772976    2.343683
     28          6           0       -2.951797    0.961334   -1.056066
     29          6           0       -1.326155    4.404690   -0.858733
     30          6           0        8.146880   -0.515560   -1.785154
     31          6           0       -1.657710    5.008411    0.481229
     32          6           0       -4.303218    3.162014   -1.782326
     33          6           0       -3.944417    0.065667   -1.396657
     34          6           0       -2.638643   -1.742581    2.900163
     35          6           0       -3.774097   -1.372325   -1.096706
     36          6           0        9.331048   -0.719325   -1.259600
     37          6           0       -1.274280    6.536847    0.558533
     38          6           0       -4.786484   -2.402024   -1.477677
     39          6           0       -4.062124   -3.581048   -1.185341
     40          6           0       -2.783586   -3.254586   -0.632758
     41          6           0       -6.161682   -2.289034   -1.893729
     42          6           0       -4.498878   -5.004977   -1.218723
     43          6           0       -6.945692   -3.257916   -2.210155
     44          1           0        4.353353   -2.280028   -0.134198
     45          1           0        5.043764    0.414551    1.081990
     46          1           0        4.721981   -1.179474    2.171166
     47          1           0        2.945108    1.144785   -0.088240
     48          1           0        3.466609   -0.382352   -1.459614
     49          1           0       -0.453113   -0.088109    3.385304
     50          1           0       -1.269994    0.378687    1.980808
     51          1           0        0.739906    2.951074   -0.261255
     52          1           0        2.935690   -1.957752    3.452782
     53          1           0        1.429800   -1.806265    3.864761
     54          1           0        1.992959   -3.052547    2.379078
     55          1           0        6.595924   -2.787795    1.471131
     56          1           0        7.694234   -1.263866    1.473169
     57          1           0        8.183426   -2.845173    0.488439
     58          1           0       -1.536207   -2.173870    1.402962
     59          1           0       -0.899859   -2.467920    2.965248
     60          1           0       -1.229383   -0.251407   -0.229125
     61          1           0       -1.889613    5.096141   -1.582170
     62          1           0       -0.283654    4.529746   -1.042940
     63          1           0        7.999131   -0.369496   -2.793472
     64          1           0       -1.224293    4.560004    1.133716
     65          1           0       -2.717162    4.959950    0.633252
     66          1           0       -4.228624    4.251157   -1.851356
     67          1           0       -5.269101    3.034433   -1.073194
     68          1           0       -4.360856    2.713186   -2.855764
     69          1           0       -4.893294    0.540630   -1.927995
     70          1           0        9.581655   -0.643701   -0.262171
     71          1           0       10.189248   -0.656360   -2.008541
     72          1           0       -4.062181   -3.069258    3.321296
     73          1           0       -6.752986   -1.332463   -1.988053
     74          1           0       -5.365959   -5.205025   -0.625201
     75          1           0       -4.760330   -5.170100   -2.257162
     76          1           0       -3.754296   -5.784385   -0.840468
     77          1           0       -1.671621    8.113709    1.703778
     78          1           0       -7.980885   -2.771664   -2.433713
     79          1           0       -6.811631   -4.458917   -2.200650
 ---------------------------------------------------------------------

 SCF Done:  E(RB3LYP) =  -1947.79811010     A.U. after   17 cycles

 Excitation energies and oscillator strengths:

 Excited State   1:      Singlet-A      2.0359 eV  608.99 nm  f=0.3426  <S**2>=0.000
     154 ->156         0.15272
     155 ->156         0.68346
 This state for optimization and/or second-order correction.
 Total Energy, E(TD-HF/TD-DFT) =  -1947.72329261
 Copying the excited state density for this state as the 1-particle RhoCI density.

 The electronic state is 1-A.
 Alpha  occ. eigenvalues --  -19.20500 -19.16017 -19.13623 -19.10389 -19.10299
 Alpha  occ. eigenvalues --  -19.10151 -14.37151 -14.36881 -14.35064 -14.28470
 Alpha  occ. eigenvalues --  -10.32805 -10.29663 -10.27850 -10.25453 -10.24869
 Alpha  occ. eigenvalues --  -10.24093 -10.23942 -10.23925 -10.23739 -10.22697
 Alpha  occ. eigenvalues --  -10.22422 -10.22394 -10.22269 -10.22174 -10.21673
 Alpha  occ. eigenvalues --  -10.21561 -10.21459 -10.20879 -10.20569 -10.20466
 Alpha  occ. eigenvalues --  -10.20307 -10.19886 -10.19870 -10.19589 -10.19457
 Alpha  occ. eigenvalues --  -10.19284 -10.19045 -10.18987 -10.18978 -10.18796
 Alpha  occ. eigenvalues --  -10.18760 -10.18571 -10.17250  -1.09329  -1.07274
 Alpha  occ. eigenvalues --   -1.07053  -1.02825  -1.00883  -0.99265  -0.97750
 Alpha  occ. eigenvalues --   -0.97454  -0.94599  -0.91169  -0.82369  -0.82191
 Alpha  occ. eigenvalues --   -0.81873  -0.81247  -0.80499  -0.79147  -0.78027
 Alpha  occ. eigenvalues --   -0.77713  -0.76609  -0.76089  -0.74241  -0.72577
 Alpha  occ. eigenvalues --   -0.71082  -0.70899  -0.69942  -0.69775  -0.68202
 Alpha  occ. eigenvalues --   -0.66941  -0.64976  -0.63428  -0.61747  -0.60333
 Alpha  occ. eigenvalues --   -0.59841  -0.59417  -0.57564  -0.57265  -0.57009
 Alpha  occ. eigenvalues --   -0.56628  -0.55114  -0.54904  -0.53991  -0.53138
 Alpha  occ. eigenvalues --   -0.52292  -0.51191  -0.50950  -0.50367  -0.49414
 Alpha  occ. eigenvalues --   -0.49320  -0.48660  -0.48340  -0.48037  -0.47673
 Alpha  occ. eigenvalues --   -0.47015  -0.46504  -0.45711  -0.45563  -0.45362
 Alpha  occ. eigenvalues --   -0.44868  -0.44597  -0.44317  -0.44094  -0.43986
 Alpha  occ. eigenvalues --   -0.43765  -0.43592  -0.43042  -0.42900  -0.42587
 Alpha  occ. eigenvalues --   -0.42413  -0.41907  -0.41698  -0.41311  -0.40834
 Alpha  occ. eigenvalues --   -0.40778  -0.40415  -0.40367  -0.39860  -0.39793
 Alpha  occ. eigenvalues --   -0.39193  -0.38881  -0.38612  -0.38374  -0.38218
 Alpha  occ. eigenvalues --   -0.37876  -0.37284  -0.37193  -0.36981  -0.36891
 Alpha  occ. eigenvalues --   -0.36293  -0.35913  -0.35600  -0.34847  -0.34692
 Alpha  occ. eigenvalues --   -0.33716  -0.33372  -0.33190  -0.32364  -0.31594
 Alpha  occ. eigenvalues --   -0.31324  -0.30296  -0.28865  -0.28586  -0.27577
 Alpha  occ. eigenvalues --   -0.26599  -0.26372  -0.25921  -0.25871  -0.25358
 Alpha  occ. eigenvalues --   -0.24141  -0.23980  -0.23659  -0.22158  -0.18978
 Alpha virt. eigenvalues --   -0.10767  -0.06348  -0.05080  -0.00389  -0.00223
 Alpha virt. eigenvalues --    0.00492   0.01003   0.01713   0.02079   0.03033
 Alpha virt. eigenvalues --    0.03324   0.03949   0.04514   0.04879   0.05443

 Mulliken charges:
               1
     1  O   -0.116648
     2  O   -0.230138
     3  O   -0.238961
     4  O   -0.231687
     5  O   -0.230271
     6  O   -0.164862
     7  N    0.022968
     8  N   -0.252081
     9  N   -0.120404
    10  N   -0.298733
    11  C    0.122229
    12  C    0.180389
    13  C   -0.093990
    14  C   -0.182081
    15  C   -0.127835
    16  C    0.039585
    17  C   -0.182708
    18  C    0.159629
    19  C   -0.085347
    20  C   -0.071920
    21  C    0.047147
    22  C    0.116049
    23  C   -0.066982
    24  C    0.126551
    25  C    0.006011
    26  C   -0.120693
    27  C    0.132180
    28  C    0.135239
    29  C    0.064576
    30  C    0.055554
    31  C    0.138067
    32  C    0.031698
    33  C   -0.157505
    34  C    0.078177
    35  C    0.087868
    36  C   -0.019354
    37  C    0.146428
    38  C    0.080504
    39  C   -0.198102
    40  C    0.136761
    41  C   -0.030765
    42  C    0.083980
    43  C   -0.098991
    44  H   -0.006112
    45  H    0.004445
    46  H    0.021163
    47  H    0.018878
    48  H    0.149791
    49  H    0.003363
    50  H   -0.022216
    51  H    0.008180
    52  H   -0.030525
    53  H   -0.001159
    54  H    0.065322
    55  H    0.033970
    56  H    0.050465
    57  H    0.052532
    58  H    0.042392
    59  H   -0.015682
    60  H    0.203618
    61  H    0.013534
    62  H    0.010968
    63  H   -0.022391
    64  H   -0.068634
    65  H    0.016950
    66  H    0.016459
    67  H    0.064584
    68  H    0.059643
    69  H    0.015371
    70  H    0.000778
    71  H    0.036013
    72  H    0.196591
    73  H    0.005419
    74  H    0.019647
    75  H    0.027973
    76  H    0.036847
    77  H    0.238411
    78  H    0.028471
    79  H    0.053409
 Sum of Mulliken charges =  -0.00000

 Dipole moment (field-independent basis, Debye):
    X=             -1.4028    Y=              1.9228    Z=              3.2544  Tot=              4.0319
 Quadrupole moment (field-independent basis, Debye-Ang):
   XX=           -220.3990   YY=           -238.1343   ZZ=           -260.0367
   XY=            -14.0025   XZ=             29.4721   YZ=              3.7359

 Normal termination of Gaussian 16 at Thu Sep 19 04:08:51 2019.
