 Gaussian 16, Revision A.03,
 Gaussian 16:  ES64L-G16RevA.03 25-Dec-2016

 --------------------------
 # td=(NStates=1) B3LYP/SVP
 --------------------------

 --
 TD
 --
 Symbolic Z-matrix:
 Charge =  0 Multiplicity = 1

                         Standard orientation:
 ---------------------------------------------------------------------
 Center     Atomic      Atomic             Coordinates (Angstroms)
 Number     Number       Type             X           Y           Z
 ---------------------------------------------------------------------
      1          8           0        5.167862   -0.397348   -3.328929
      2          8           0       -3.049978   -2.901186    3.038093
      3          8           0       -3.345747   -0.721566    2.887501
      4          8           0       -1.583029    7.173984    1.464867
      5          8           0       -0.671070    7.037759   -0.643920
      6          8           0       -1.661557   -3.857525    0.285236
      7          7           0        2.317366    0.915908    0.525814
      8          7           0        4.267356   -0.670428   -1.181992
      9          7           0       -1.753986    0.594575   -0.503397
     10          7           0       -2.537444   -1.863112   -0.396862
     11          6           0        4.703129   -1.165644    0.090598
     12          6           0        4.432309   -0.194219    1.229198
     13          6           0        2.896622   -0.027852    1.475880
     14          6           0        1.912136   -0.464478    2.312239
     15          6           0        0.653835    0.087097    1.835728
     16          6           0        1.002635    0.992493    0.815506
     17          6           0        6.279101   -1.302238   -0.133571
     18          6           0       -0.627441   -0.089186    2.558200
     19          6           0        6.653605   -0.868558   -1.391465
     20          6           0        0.163646    1.967829    0.040678
     21          6           0       -1.043770    1.773781   -0.404913
     22          6           0        5.366458   -0.610889   -2.163276
     23          6           0       -1.967211    2.827296   -0.880356
     24          6           0        2.229085   -1.480454    3.365031
     25          6           0        7.079975   -1.761993    1.026111
     26          6           0       -3.126890    2.289750   -1.263951
     27          6           0       -1.130226   -1.616175    2.694978
     28          6           0       -3.051925    0.884369   -0.998891
     29          6           0       -1.475772    4.305283   -1.009712
     30          6           0        7.960125   -0.904103   -2.138315
     31          6           0       -1.718652    5.132443    0.332541
     32          6           0       -4.224480    2.951018   -1.917655
     33          6           0       -3.921651   -0.134230   -1.305833
     34          6           0       -2.550580   -1.635663    2.852018
     35          6           0       -3.638629   -1.567490   -1.086530
     36          6           0        9.201785   -0.868702   -1.636546
     37          6           0       -1.368855    6.617059    0.247798
     38          6           0       -4.544655   -2.713477   -1.441864
     39          6           0       -3.910033   -3.832951   -0.951020
     40          6           0       -2.615477   -3.355279   -0.274507
     41          6           0       -5.790728   -2.577326   -2.240809
     42          6           0       -4.238274   -5.151235   -0.907080
     43          6           0       -6.616564   -3.529975   -2.790045
     44          1           0        4.006528   -1.992405    0.498324
     45          1           0        4.799781    0.800373    1.088636
     46          1           0        4.814613   -0.619998    2.128684
     47          1           0        2.770756    1.418354   -0.181553
     48          1           0        3.236132   -1.056234   -1.434120
     49          1           0       -0.696705    0.248239    3.602760
     50          1           0       -1.519660    0.395209    2.117802
     51          1           0        0.581183    3.085417   -0.043217
     52          1           0        3.345163   -1.685976    3.445986
     53          1           0        1.688383   -1.006966    4.231985
     54          1           0        1.564841   -2.270223    3.100451
     55          1           0        6.587115   -2.358280    1.705025
     56          1           0        7.545161   -0.791035    1.493549
     57          1           0        8.031857   -2.333117    0.755750
     58          1           0       -0.847231   -2.495259    1.949161
     59          1           0       -0.729338   -2.205982    3.551660
     60          1           0       -1.412337   -0.354446   -0.323061
     61          1           0       -2.088508    4.964999   -1.856261
     62          1           0       -0.593903    4.329208   -1.294323
     63          1           0        7.820487   -0.949330   -3.390630
     64          1           0       -1.253914    4.815549    1.306792
     65          1           0       -2.767800    5.363409    0.607699
     66          1           0       -3.938287    4.096991   -2.178893
     67          1           0       -5.281690    2.974615   -1.445496
     68          1           0       -4.284467    2.353961   -2.935697
     69          1           0       -4.917240    0.187230   -1.591098
     70          1           0        9.321015   -0.879706   -0.584331
     71          1           0        9.993037   -0.761007   -2.395717
     72          1           0       -3.996358   -2.747266    3.176797
     73          1           0       -6.091876   -1.515466   -2.281736
     74          1           0       -5.385406   -5.420929   -0.567218
     75          1           0       -3.950180   -5.666080   -1.918156
     76          1           0       -3.463551   -5.639955   -0.231421
     77          1           0       -1.513525    8.102347    1.228306
     78          1           0       -7.516139   -3.198513   -3.438230
     79          1           0       -6.598630   -4.557066   -2.266918
 ---------------------------------------------------------------------

 SCF Done:  E(RB3LYP) =  -1947.85261185     A.U. after   16 cycles

 Excitation energies and oscillator strengths:

 Excited State   1:      Singlet-A      1.9103 eV  649.02 nm  f=0.2535  <S**2>=0.000
     155 ->156         0.70189
 This state for optimization and/or second-order correction.
 Total Energy, E(TD-HF/TD-DFT) =  -1947.78240802
 Copying the excited state density for this state as the 1-particle RhoCI density.

 The electronic state is 1-A.
 Alpha  occ. eigenvalues --  -19.19534 -19.15211 -19.13656 -19.12593 -19.11002
 Alpha  occ. eigenvalues --  -19.10539 -14.35902 -14.34986 -14.34530 -14.29600
 Alpha  occ. eigenvalues --  -10.32463 -10.29597 -10.29243 -10.28196 -10.24453
 Alpha  occ. eigenvalues --  -10.24043 -10.23941 -10.23306 -10.22602 -10.22093
 Alpha  occ. eigenvalues --  -10.21861 -10.21798 -10.21781 -10.21713 -10.21625
 Alpha  occ. eigenvalues --  -10.21601 -10.21406 -10.21270 -10.21267 -10.21103
 Alpha  occ. eigenvalues --  -10.20949 -10.20887 -10.20725 -10.20561 -10.20154
 Alpha  occ. eigenvalues --  -10.20092 -10.19487 -10.19432 -10.19092 -10.18887
 Alpha  occ. eigenvalues --  -10.18841 -10.18177 -10.18150  -1.10994  -1.07522
 Alpha  occ. eigenvalues --   -1.03044  -1.03040  -1.02211  -0.97700  -0.96824
 Alpha  occ. eigenvalues --   -0.96033  -0.91925  -0.91087  -0.82398  -0.81868
 Alpha  occ. eigenvalues --   -0.81076  -0.80680  -0.80517  -0.78630  -0.77383
 Alpha  occ. eigenvalues --   -0.77065  -0.76728  -0.75776  -0.74083  -0.72220
 Alpha  occ. eigenvalues --   -0.71346  -0.71062  -0.70295  -0.68734  -0.67984
 Alpha  occ. eigenvalues --   -0.66447  -0.64548  -0.62552  -0.59914  -0.59777
 Alpha  occ. eigenvalues --   -0.58991  -0.57906  -0.57062  -0.56539  -0.56204
 Alpha  occ. eigenvalues --   -0.55165  -0.54732  -0.54498  -0.53398  -0.52272
 Alpha  occ. eigenvalues --   -0.51089  -0.50835  -0.50428  -0.50380  -0.49143
 Alpha  occ. eigenvalues --   -0.48726  -0.48515  -0.47856  -0.47531  -0.46979
 Alpha  occ. eigenvalues --   -0.46775  -0.46209  -0.45952  -0.45902  -0.45544
 Alpha  occ. eigenvalues --   -0.45268  -0.45014  -0.44370  -0.43991  -0.43708
 Alpha  occ. eigenvalues --   -0.43362  -0.43039  -0.42722  -0.42591  -0.42310
 Alpha  occ. eigenvalues --   -0.42001  -0.41829  -0.41463  -0.41034  -0.40446
 Alpha  occ. eigenvalues --   -0.40226  -0.40147  -0.39792  -0.39520  -0.39443
 Alpha  occ. eigenvalues --   -0.39190  -0.38981  -0.38808  -0.38708  -0.38478
 Alpha  occ. eigenvalues --   -0.38267  -0.37695  -0.37281  -0.36356  -0.36163
 Alpha  occ. eigenvalues --   -0.35964  -0.35802  -0.35698  -0.35096  -0.34828
 Alpha  occ. eigenvalues --   -0.34205  -0.33549  -0.33496  -0.31915  -0.31297
 Alpha  occ. eigenvalues --   -0.30568  -0.30021  -0.28763  -0.28255  -0.28214
 Alpha  occ. eigenvalues --   -0.26444  -0.26306  -0.25779  -0.25220  -0.24861
 Alpha  occ. eigenvalues --   -0.24533  -0.23477  -0.23208  -0.21971  -0.18805
 Alpha virt. eigenvalues --   -0.10801  -0.06146  -0.05942  -0.01619  -0.01341
 Alpha virt. eigenvalues --    0.00439   0.01789   0.02293   0.03045   0.03294
 Alpha virt. eigenvalues --    0.04172   0.04279   0.04703   0.05171   0.05555

 Mulliken charges:
               1
     1  O   -0.184440
     2  O   -0.210460
     3  O   -0.246214
     4  O   -0.171384
     5  O   -0.215382
     6  O   -0.167518
     7  N   -0.079742
     8  N   -0.287354
     9  N   -0.112538
    10  N   -0.305158
    11  C    0.034787
    12  C    0.252371
    13  C   -0.111228
    14  C   -0.189966
    15  C   -0.063614
    16  C    0.037158
    17  C   -0.134146
    18  C    0.073428
    19  C   -0.044382
    20  C   -0.158509
    21  C    0.150008
    22  C    0.172191
    23  C   -0.083575
    24  C    0.131344
    25  C    0.073861
    26  C   -0.055133
    27  C   -0.058191
    28  C    0.134167
    29  C    0.181017
    30  C   -0.074189
    31  C   -0.025769
    32  C   -0.014603
    33  C   -0.116858
    34  C    0.122267
    35  C    0.085655
    36  C    0.003181
    37  C    0.114840
    38  C    0.055874
    39  C   -0.187929
    40  C    0.186495
    41  C   -0.021716
    42  C   -0.012883
    43  C   -0.057821
    44  H    0.023216
    45  H   -0.019439
    46  H   -0.029395
    47  H    0.095253
    48  H    0.170698
    49  H    0.009242
    50  H    0.032553
    51  H    0.029667
    52  H    0.029874
    53  H    0.018171
    54  H    0.019699
    55  H    0.010135
    56  H    0.057322
    57  H    0.037342
    58  H    0.083814
    59  H    0.022980
    60  H    0.149507
    61  H    0.036705
    62  H   -0.061994
    63  H    0.061648
    64  H    0.060392
    65  H    0.020426
    66  H    0.032078
    67  H    0.053576
    68  H    0.046087
    69  H   -0.033260
    70  H    0.000357
    71  H    0.038302
    72  H    0.164730
    73  H    0.004055
    74  H    0.065733
    75  H    0.052361
    76  H    0.035460
    77  H    0.166934
    78  H    0.052765
    79  H    0.045061
 Sum of Mulliken charges =  -0.00000

 Dipole moment (field-independent basis, Debye):
    X=             -0.9441    Y=              1.0232    Z=              2.2000  Tot=              2.6035
 Quadrupole moment (field-independent basis, Debye-Ang):
   XX=           -211.1080   YY=           -235.8028   ZZ=           -265.6809
   XY=             -8.9275   XZ=             30.7700   YZ=              4.4964

 Normal termination of Gaussian 16 at Sun Sep 22 10:29:42 2019.
