 Gaussian 16, Revision A.03,
 Gaussian 16:  ES64L-G16RevA.03 25-Dec-2016

 --------------------------
 # td=(NStates=1) B3LYP/SVP
 --------------------------

 --
 TD
 --
 Symbolic Z-matrix:
 Charge =  0 Multiplicity = 1

                         Standard orientation:
 ---------------------------------------------------------------------
 Center     Atomic      Atomic             Coordinates (Angstroms)
 Number     Number       Type             X           Y           Z
 ---------------------------------------------------------------------
      1          8           0       -3.245850   -1.385898   -2.772168
      2          8           0        2.700435    3.365424    3.104360
      3          8           0        3.810995    1.693159    4.268620
      4          8           0        7.647391   -1.595384   -0.511502
      5          8           0        6.685599   -2.955882   -2.125960
      6          8           0       -2.610461    1.701529    1.425738
      7          7           0       -0.247976   -2.378129    1.007203
      8          7           0       -2.787840   -1.055093   -0.488130
      9          7           0        1.058358   -0.057446   -0.822199
     10          7           0       -1.058963    1.422669   -0.250190
     11          6           0       -3.447099   -1.259470    0.785045
     12          6           0       -2.575309   -2.379930    1.751195
     13          6           0       -1.194258   -2.004454    1.878017
     14          6           0       -0.398622   -1.195484    2.900597
     15          6           0        0.941069   -1.110442    2.502892
     16          6           0        1.038609   -1.840263    1.201966
     17          6           0       -4.786501   -1.862617    0.419616
     18          6           0        1.972088   -0.311056    3.155162
     19          6           0       -4.829700   -2.026963   -1.054323
     20          6           0        2.170965   -1.989733    0.248780
     21          6           0        2.083535   -1.004108   -0.726731
     22          6           0       -3.466123   -1.510293   -1.624467
     23          6           0        3.033133   -0.722586   -1.815459
     24          6           0       -1.123621   -0.419464    3.922274
     25          6           0       -5.865527   -2.239364    1.293098
     26          6           0        2.528595    0.340912   -2.507986
     27          6           0        1.934720    1.129734    2.772998
     28          6           0        1.342826    0.755931   -1.834317
     29          6           0        4.268260   -1.526615   -2.093591
     30          6           0       -5.763909   -2.511580   -1.892792
     31          6           0        5.386339   -1.081783   -1.149580
     32          6           0        3.014319    1.071020   -3.715905
     33          6           0        0.482839    1.903754   -2.046945
     34          6           0        3.002611    2.025879    3.467807
     35          6           0       -0.631492    2.232772   -1.243358
     36          6           0       -6.856641   -3.206503   -1.553689
     37          6           0        6.575860   -2.024502   -1.312799
     38          6           0       -1.465970    3.476907   -1.374344
     39          6           0       -2.293748    3.338185   -0.362905
     40          6           0       -1.988127    2.100514    0.393534
     41          6           0       -1.397647    4.379015   -2.478150
     42          6           0       -3.309835    4.212078    0.248155
     43          6           0       -1.886437    5.675406   -2.377819
     44          1           0       -3.454237   -0.429767    1.528382
     45          1           0       -2.742296   -3.403286    1.152311
     46          1           0       -3.157271   -2.156237    2.717616
     47          1           0       -0.687134   -2.601942   -0.039353
     48          1           0       -2.068293   -0.341932   -0.726933
     49          1           0        1.997376   -0.669527    4.314589
     50          1           0        2.904339   -0.836188    2.632569
     51          1           0        3.039434   -2.430553    0.577240
     52          1           0       -2.159352   -0.899416    4.128122
     53          1           0       -0.725128   -0.336346    4.892282
     54          1           0       -1.074974    0.892928    3.429938
     55          1           0       -5.774207   -1.649297    2.234048
     56          1           0       -5.896643   -3.220387    1.670759
     57          1           0       -6.883598   -2.025451    0.769525
     58          1           0        2.231032    1.120434    1.627526
     59          1           0        1.107900    1.851250    3.022724
     60          1           0        0.379688    0.179954   -0.167384
     61          1           0        4.569013   -1.523144   -3.065553
     62          1           0        3.964681   -2.570032   -1.962159
     63          1           0       -5.593960   -2.413086   -2.914026
     64          1           0        5.370930   -1.339600   -0.047354
     65          1           0        5.727289    0.004545   -1.186813
     66          1           0        4.206952    0.658829   -3.699064
     67          1           0        2.996403    2.326158   -3.776498
     68          1           0        2.569078    0.506874   -4.782656
     69          1           0        0.697095    2.451996   -3.030256
     70          1           0       -7.229916   -3.618326   -0.505166
     71          1           0       -7.531945   -3.438638   -2.442623
     72          1           0        3.338476    3.961697    3.499541
     73          1           0       -0.769934    4.199793   -3.382001
     74          1           0       -4.286347    4.131454   -0.536176
     75          1           0       -3.698387    3.543495    1.047070
     76          1           0       -3.014713    5.274631    0.405545
     77          1           0        8.343938   -2.264190   -0.537803
     78          1           0       -1.672040    6.434080   -3.170869
     79          1           0       -2.644383    6.032249   -1.572472
 ---------------------------------------------------------------------

 SCF Done:  E(RB3LYP) =  -1947.78968779     A.U. after   21 cycles

 Excitation energies and oscillator strengths:

 Excited State   1:      Singlet-A      0.9079 eV 1365.60 nm  f=0.0246  <S**2>=0.000
     155 ->156         0.70726
 This state for optimization and/or second-order correction.
 Total Energy, E(TD-HF/TD-DFT) =  -1947.75632271
 Copying the excited state density for this state as the 1-particle RhoCI density.

 The electronic state is 1-A.
 Alpha  occ. eigenvalues --  -19.19251 -19.17250 -19.14838 -19.13806 -19.10641
 Alpha  occ. eigenvalues --  -19.09403 -14.38383 -14.38060 -14.33166 -14.30084
 Alpha  occ. eigenvalues --  -10.34306 -10.32206 -10.26734 -10.26565 -10.26535
 Alpha  occ. eigenvalues --  -10.26473 -10.25752 -10.25024 -10.24174 -10.23424
 Alpha  occ. eigenvalues --  -10.23356 -10.22995 -10.22856 -10.22403 -10.22233
 Alpha  occ. eigenvalues --  -10.21740 -10.21678 -10.21594 -10.21491 -10.21335
 Alpha  occ. eigenvalues --  -10.21263 -10.21220 -10.20723 -10.20113 -10.19669
 Alpha  occ. eigenvalues --  -10.19518 -10.19255 -10.19142 -10.18789 -10.18664
 Alpha  occ. eigenvalues --  -10.18056 -10.17716 -10.17031  -1.08975  -1.08467
 Alpha  occ. eigenvalues --   -1.03154  -1.01711  -1.01155  -1.00955  -1.00656
 Alpha  occ. eigenvalues --   -0.96194  -0.93818  -0.91238  -0.85425  -0.82802
 Alpha  occ. eigenvalues --   -0.81911  -0.81148  -0.80416  -0.80265  -0.77872
 Alpha  occ. eigenvalues --   -0.76725  -0.75742  -0.75514  -0.74470  -0.72983
 Alpha  occ. eigenvalues --   -0.70945  -0.70051  -0.69842  -0.68503  -0.67430
 Alpha  occ. eigenvalues --   -0.66262  -0.65261  -0.62887  -0.61067  -0.60685
 Alpha  occ. eigenvalues --   -0.59808  -0.58978  -0.58665  -0.58515  -0.57129
 Alpha  occ. eigenvalues --   -0.55838  -0.54710  -0.53959  -0.53171  -0.52204
 Alpha  occ. eigenvalues --   -0.52022  -0.51608  -0.51373  -0.49664  -0.49410
 Alpha  occ. eigenvalues --   -0.49236  -0.49104  -0.48685  -0.48464  -0.48171
 Alpha  occ. eigenvalues --   -0.47462  -0.46891  -0.46833  -0.46122  -0.45730
 Alpha  occ. eigenvalues --   -0.44943  -0.44764  -0.44633  -0.44191  -0.43421
 Alpha  occ. eigenvalues --   -0.43279  -0.42850  -0.42569  -0.42193  -0.42036
 Alpha  occ. eigenvalues --   -0.42000  -0.41814  -0.41528  -0.41287  -0.40956
 Alpha  occ. eigenvalues --   -0.40872  -0.40631  -0.40316  -0.39784  -0.39690
 Alpha  occ. eigenvalues --   -0.39534  -0.39291  -0.38788  -0.38274  -0.37991
 Alpha  occ. eigenvalues --   -0.37413  -0.37272  -0.37179  -0.37058  -0.36693
 Alpha  occ. eigenvalues --   -0.36111  -0.35097  -0.34917  -0.34845  -0.34326
 Alpha  occ. eigenvalues --   -0.33975  -0.33650  -0.33027  -0.32606  -0.31794
 Alpha  occ. eigenvalues --   -0.31470  -0.30687  -0.29845  -0.29083  -0.28405
 Alpha  occ. eigenvalues --   -0.28231  -0.27969  -0.25370  -0.24856  -0.23795
 Alpha  occ. eigenvalues --   -0.23438  -0.23177  -0.22549  -0.20692  -0.18073
 Alpha virt. eigenvalues --   -0.12715  -0.07404  -0.05331  -0.02521  -0.02336
 Alpha virt. eigenvalues --    0.00046   0.00294   0.01092   0.01821   0.02193
 Alpha virt. eigenvalues --    0.03281   0.03291   0.03802   0.04418   0.04837

 Mulliken charges:
               1
     1  O   -0.185120
     2  O   -0.242520
     3  O   -0.174074
     4  O   -0.227009
     5  O   -0.240069
     6  O   -0.267294
     7  N   -0.102707
     8  N   -0.241167
     9  N    0.001470
    10  N   -0.255896
    11  C    0.076689
    12  C    0.071195
    13  C   -0.046764
    14  C   -0.095086
    15  C   -0.088942
    16  C   -0.075315
    17  C   -0.116646
    18  C    0.059757
    19  C   -0.054802
    20  C   -0.029981
    21  C    0.092186
    22  C    0.134685
    23  C   -0.084400
    24  C    0.018080
    25  C    0.071214
    26  C   -0.064667
    27  C   -0.034215
    28  C    0.049348
    29  C    0.196650
    30  C   -0.010775
    31  C   -0.050011
    32  C   -0.096521
    33  C   -0.115694
    34  C    0.137486
    35  C    0.092519
    36  C   -0.090941
    37  C    0.161473
    38  C    0.093636
    39  C   -0.210371
    40  C    0.156784
    41  C   -0.033256
    42  C    0.050831
    43  C   -0.076677
    44  H    0.062172
    45  H    0.023740
    46  H    0.015210
    47  H    0.170144
    48  H    0.150237
    49  H    0.052323
    50  H    0.005687
    51  H   -0.007895
    52  H    0.011121
    53  H   -0.007542
    54  H    0.068130
    55  H    0.003512
    56  H    0.020376
    57  H    0.053132
    58  H    0.055704
    59  H    0.069147
    60  H    0.137773
    61  H   -0.009887
    62  H    0.024670
    63  H   -0.025878
    64  H    0.054578
    65  H    0.072043
    66  H    0.041431
    67  H    0.089962
    68  H    0.080384
    69  H    0.003045
    70  H    0.041476
    71  H    0.020180
    72  H    0.170625
    73  H    0.008637
    74  H    0.032905
    75  H    0.036279
    76  H    0.055027
    77  H    0.185171
    78  H    0.034153
    79  H    0.049147
 Sum of Mulliken charges =  -0.00000

 Dipole moment (field-independent basis, Debye):
    X=              4.5555    Y=              1.9767    Z=             -0.8870  Tot=              5.0445
 Quadrupole moment (field-independent basis, Debye-Ang):
   XX=           -242.9292   YY=           -240.8659   ZZ=           -264.6200
   XY=              5.1890   XZ=            -16.5774   YZ=            -15.5940

 Normal termination of Gaussian 16 at Fri Jul 26 07:33:38 2019.
