 Gaussian 16, Revision A.03,
 Gaussian 16:  ES64L-G16RevA.03 25-Dec-2016

 --------------------------
 # td=(NStates=1) B3LYP/SVP
 --------------------------

 --
 TD
 --
 Symbolic Z-matrix:
 Charge =  0 Multiplicity = 1

                         Standard orientation:
 ---------------------------------------------------------------------
 Center     Atomic      Atomic             Coordinates (Angstroms)
 Number     Number       Type             X           Y           Z
 ---------------------------------------------------------------------
      1          8           0       -3.091573   -1.354081   -2.943041
      2          8           0        2.907877    3.115647    3.404217
      3          8           0        3.651866    1.167923    4.288505
      4          8           0        7.782326   -1.566610   -0.875053
      5          8           0        6.592437   -3.093937   -2.007765
      6          8           0       -2.758838    1.638110    1.191034
      7          7           0       -0.348142   -2.416879    0.964322
      8          7           0       -2.678770   -1.199587   -0.633668
      9          7           0        1.242983    0.172757   -0.685253
     10          7           0       -0.847813    1.482598   -0.129517
     11          6           0       -3.371054   -1.348475    0.580075
     12          6           0       -2.710436   -2.382015    1.608847
     13          6           0       -1.296906   -2.008690    1.775003
     14          6           0       -0.675003   -1.335894    2.898144
     15          6           0        0.702100   -1.181835    2.514713
     16          6           0        0.848653   -1.855282    1.254157
     17          6           0       -4.726476   -1.853117    0.140123
     18          6           0        1.680859   -0.315233    3.229369
     19          6           0       -4.722247   -2.061385   -1.244793
     20          6           0        1.969935   -1.951637    0.271119
     21          6           0        2.113359   -0.829832   -0.555594
     22          6           0       -3.360903   -1.515591   -1.765695
     23          6           0        3.075746   -0.602668   -1.634274
     24          6           0       -1.516407   -0.759999    4.013865
     25          6           0       -5.847886   -2.119558    1.080782
     26          6           0        2.734323    0.559246   -2.383850
     27          6           0        1.729116    1.156177    2.928622
     28          6           0        1.426314    1.036207   -1.696328
     29          6           0        4.243545   -1.540016   -2.014072
     30          6           0       -5.781263   -2.508891   -2.080076
     31          6           0        5.566369   -1.072442   -1.151172
     32          6           0        3.360970    1.149222   -3.505787
     33          6           0        0.636263    2.133042   -2.030423
     34          6           0        2.971525    1.801680    3.595705
     35          6           0       -0.515773    2.332358   -1.130480
     36          6           0       -6.727238   -3.398686   -1.847324
     37          6           0        6.706591   -2.060437   -1.422852
     38          6           0       -1.407263    3.524256   -1.294798
     39          6           0       -2.302756    3.515719   -0.335601
     40          6           0       -2.132328    2.144229    0.344182
     41          6           0       -1.241946    4.695017   -2.160060
     42          6           0       -3.444242    4.346993    0.205057
     43          6           0       -1.849276    5.857545   -2.119863
     44          1           0       -3.404062   -0.439848    1.104150
     45          1           0       -2.726430   -3.396050    1.159043
     46          1           0       -3.187676   -2.407776    2.665915
     47          1           0       -0.550606   -3.049898   -0.005136
     48          1           0       -2.021471   -0.398787   -0.945071
     49          1           0        1.635423   -0.499632    4.369833
     50          1           0        2.606672   -0.962079    2.781271
     51          1           0        2.879040   -2.622802    0.387950
     52          1           0       -2.094408   -1.472342    4.324358
     53          1           0       -1.063439   -0.058425    4.719643
     54          1           0       -2.075830    0.045074    3.573221
     55          1           0       -6.167942   -1.206434    1.701971
     56          1           0       -5.624927   -2.876879    1.822141
     57          1           0       -6.915640   -2.487255    0.589222
     58          1           0        1.971136    1.236658    1.875152
     59          1           0        1.007751    1.742594    3.081949
     60          1           0        0.361869    0.436741   -0.083510
     61          1           0        4.412835   -1.500187   -3.069491
     62          1           0        3.937645   -2.490333   -1.715364
     63          1           0       -5.982980   -2.011506   -3.118562
     64          1           0        5.244477   -1.102522   -0.076560
     65          1           0        5.948123   -0.134224   -1.582728
     66          1           0        4.022606    0.466666   -4.014094
     67          1           0        3.994393    1.931744   -3.166614
     68          1           0        2.599101    1.590077   -4.264428
     69          1           0        0.769997    2.903087   -2.751807
     70          1           0       -6.773399   -4.069266   -0.888809
     71          1           0       -7.694252   -3.562514   -2.582148
     72          1           0        3.698536    3.345939    3.857839
     73          1           0       -0.393332    4.712556   -2.907762
     74          1           0       -4.226188    4.386637   -0.595271
     75          1           0       -4.066494    3.734468    0.842844
     76          1           0       -3.169635    5.262894    0.498471
     77          1           0        8.346529   -2.424614   -0.933890
     78          1           0       -1.629053    6.699265   -2.738086
     79          1           0       -2.736525    5.850257   -1.390315
 ---------------------------------------------------------------------

 SCF Done:  E(RB3LYP) =  -1947.84124738     A.U. after   18 cycles

 Excitation energies and oscillator strengths:

 Excited State   1:      Singlet-A      1.1463 eV 1081.65 nm  f=0.0004  <S**2>=0.000
     155 ->156         0.70257
 This state for optimization and/or second-order correction.
 Total Energy, E(TD-HF/TD-DFT) =  -1947.79912331
 Copying the excited state density for this state as the 1-particle RhoCI density.

 The electronic state is 1-A.
 Alpha  occ. eigenvalues --  -19.20384 -19.18776 -19.14131 -19.13614 -19.12649
 Alpha  occ. eigenvalues --  -19.08790 -14.37189 -14.35907 -14.33929 -14.32066
 Alpha  occ. eigenvalues --  -10.32372 -10.30808 -10.29453 -10.26964 -10.25933
 Alpha  occ. eigenvalues --  -10.25758 -10.24486 -10.22261 -10.22018 -10.21810
 Alpha  occ. eigenvalues --  -10.21760 -10.21682 -10.21506 -10.21367 -10.21239
 Alpha  occ. eigenvalues --  -10.20680 -10.20494 -10.20457 -10.20383 -10.20344
 Alpha  occ. eigenvalues --  -10.20228 -10.20119 -10.20070 -10.19974 -10.19367
 Alpha  occ. eigenvalues --  -10.18903 -10.18818 -10.18809 -10.18644 -10.17005
 Alpha  occ. eigenvalues --  -10.16650 -10.16085 -10.15979  -1.12685  -1.12136
 Alpha  occ. eigenvalues --   -1.07171  -1.03734  -1.02783  -1.01069  -0.99375
 Alpha  occ. eigenvalues --   -0.96927  -0.93356  -0.92826  -0.83411  -0.81746
 Alpha  occ. eigenvalues --   -0.81071  -0.80118  -0.79240  -0.78103  -0.77732
 Alpha  occ. eigenvalues --   -0.76882  -0.75588  -0.75288  -0.73908  -0.72845
 Alpha  occ. eigenvalues --   -0.72208  -0.70532  -0.68699  -0.67920  -0.67767
 Alpha  occ. eigenvalues --   -0.66016  -0.65509  -0.63095  -0.61040  -0.59272
 Alpha  occ. eigenvalues --   -0.59125  -0.58461  -0.58218  -0.56381  -0.56015
 Alpha  occ. eigenvalues --   -0.55709  -0.54694  -0.53411  -0.52799  -0.52593
 Alpha  occ. eigenvalues --   -0.51952  -0.51199  -0.50463  -0.50123  -0.49975
 Alpha  occ. eigenvalues --   -0.49762  -0.49283  -0.48999  -0.48412  -0.48289
 Alpha  occ. eigenvalues --   -0.47971  -0.47519  -0.47163  -0.46215  -0.46038
 Alpha  occ. eigenvalues --   -0.45642  -0.45223  -0.45060  -0.44620  -0.44282
 Alpha  occ. eigenvalues --   -0.43831  -0.43664  -0.43043  -0.42786  -0.42494
 Alpha  occ. eigenvalues --   -0.42269  -0.41989  -0.41838  -0.41606  -0.41330
 Alpha  occ. eigenvalues --   -0.41114  -0.40948  -0.40020  -0.39759  -0.39653
 Alpha  occ. eigenvalues --   -0.39390  -0.38978  -0.38792  -0.38681  -0.38498
 Alpha  occ. eigenvalues --   -0.37863  -0.37639  -0.37311  -0.37042  -0.36548
 Alpha  occ. eigenvalues --   -0.35636  -0.35450  -0.34972  -0.34768  -0.34508
 Alpha  occ. eigenvalues --   -0.33966  -0.33828  -0.33605  -0.32589  -0.31758
 Alpha  occ. eigenvalues --   -0.31054  -0.29664  -0.29599  -0.29235  -0.28747
 Alpha  occ. eigenvalues --   -0.27591  -0.26566  -0.25325  -0.25240  -0.24848
 Alpha  occ. eigenvalues --   -0.23812  -0.22437  -0.21716  -0.21472  -0.18076
 Alpha virt. eigenvalues --   -0.11356  -0.06836  -0.03671  -0.01105   0.00419
 Alpha virt. eigenvalues --    0.02479   0.02591   0.02742   0.02870   0.03592
 Alpha virt. eigenvalues --    0.03757   0.04083   0.04931   0.05271   0.06041

 Mulliken charges:
               1
     1  O   -0.229993
     2  O   -0.131710
     3  O   -0.165486
     4  O   -0.158688
     5  O   -0.212216
     6  O   -0.126395
     7  N   -0.052491
     8  N   -0.196523
     9  N   -0.084225
    10  N   -0.366111
    11  C    0.125832
    12  C    0.176614
    13  C   -0.151531
    14  C   -0.134177
    15  C   -0.097311
    16  C   -0.028453
    17  C   -0.116613
    18  C    0.008390
    19  C   -0.033497
    20  C   -0.126912
    21  C    0.104084
    22  C    0.109817
    23  C   -0.146639
    24  C    0.196568
    25  C    0.012825
    26  C   -0.123832
    27  C    0.147285
    28  C    0.131509
    29  C    0.152109
    30  C   -0.034386
    31  C   -0.032440
    32  C    0.120608
    33  C   -0.074377
    34  C    0.064314
    35  C    0.066180
    36  C   -0.132897
    37  C    0.113392
    38  C    0.090518
    39  C   -0.254186
    40  C    0.154459
    41  C   -0.060496
    42  C    0.198609
    43  C   -0.008752
    44  H    0.017284
    45  H   -0.024064
    46  H    0.014862
    47  H    0.177725
    48  H    0.163474
    49  H    0.021619
    50  H    0.016991
    51  H    0.027550
    52  H   -0.029373
    53  H   -0.014078
    54  H    0.001508
    55  H    0.028301
    56  H    0.026404
    57  H    0.042679
    58  H    0.004161
    59  H   -0.049493
    60  H    0.226215
    61  H    0.006048
    62  H   -0.002922
    63  H    0.033070
    64  H    0.062627
    65  H    0.037596
    66  H    0.002799
    67  H    0.019190
    68  H    0.042556
    69  H   -0.035318
    70  H    0.029440
    71  H    0.041113
    72  H    0.140061
    73  H   -0.004784
    74  H    0.029628
    75  H    0.012559
    76  H    0.022981
    77  H    0.191778
    78  H    0.023245
    79  H    0.003794
 Sum of Mulliken charges =  -0.00000

 Dipole moment (field-independent basis, Debye):
    X=              2.3824    Y=              4.7615    Z=             -0.0364  Tot=              5.3244
 Quadrupole moment (field-independent basis, Debye-Ang):
   XX=           -228.5118   YY=           -233.0663   ZZ=           -267.8782
   XY=              0.4402   XZ=            -19.4399   YZ=            -12.4189

 Normal termination of Gaussian 16 at Thu Jul 25 23:51:13 2019.
