 Gaussian 16, Revision A.03,
 Gaussian 16:  ES64L-G16RevA.03 25-Dec-2016

 --------------------------
 # td=(NStates=1) B3LYP/SVP
 --------------------------

 --
 TD
 --
 Symbolic Z-matrix:
 Charge =  0 Multiplicity = 1

                         Standard orientation:
 ---------------------------------------------------------------------
 Center     Atomic      Atomic             Coordinates (Angstroms)
 Number     Number       Type             X           Y           Z
 ---------------------------------------------------------------------
      1          8           0       -3.251894   -1.895203   -2.702008
      2          8           0        3.023457    3.544001    2.498269
      3          8           0        3.377871    2.291938    4.406403
      4          8           0        7.760301   -1.544506   -0.608469
      5          8           0        6.645869   -3.268473   -1.528147
      6          8           0       -2.682087    1.805162    1.176610
      7          7           0       -0.242743   -2.244032    1.379197
      8          7           0       -2.652436   -1.338163   -0.539095
      9          7           0        1.191688   -0.031508   -0.693934
     10          7           0       -1.000584    1.524657   -0.338439
     11          6           0       -3.231581   -1.263886    0.725411
     12          6           0       -2.650321   -2.087009    1.914579
     13          6           0       -1.256023   -1.672432    2.099470
     14          6           0       -0.574602   -0.715846    3.022735
     15          6           0        0.747370   -0.724354    2.680968
     16          6           0        0.973998   -1.611035    1.606023
     17          6           0       -4.702919   -1.765087    0.454686
     18          6           0        1.809085    0.108693    3.244566
     19          6           0       -4.726285   -2.286248   -0.874915
     20          6           0        2.108684   -1.905797    0.670567
     21          6           0        2.110577   -1.049574   -0.468359
     22          6           0       -3.478711   -1.814363   -1.500907
     23          6           0        3.054494   -0.985217   -1.679058
     24          6           0       -1.333957    0.230451    3.894093
     25          6           0       -5.799570   -1.846859    1.461061
     26          6           0        2.511105   -0.033492   -2.483026
     27          6           0        1.900958    1.510796    2.545303
     28          6           0        1.401265    0.691911   -1.812124
     29          6           0        4.343372   -1.802244   -1.833872
     30          6           0       -5.683508   -2.939601   -1.608688
     31          6           0        5.488136   -1.251866   -1.098203
     32          6           0        3.263520    0.465105   -3.700208
     33          6           0        0.676951    1.814583   -2.219121
     34          6           0        2.882476    2.411814    3.243663
     35          6           0       -0.546834    2.077869   -1.457751
     36          6           0       -6.932699   -3.537488   -1.088145
     37          6           0        6.626505   -2.114436   -1.056684
     38          6           0       -1.382234    3.305332   -1.751365
     39          6           0       -2.252872    3.383087   -0.703839
     40          6           0       -2.018181    2.214873    0.129236
     41          6           0       -1.331124    4.098894   -3.006946
     42          6           0       -3.524570    4.104833   -0.403246
     43          6           0       -2.216540    5.129513   -3.228443
     44          1           0       -3.197571   -0.137109    1.104408
     45          1           0       -2.575632   -3.064544    1.682742
     46          1           0       -3.391581   -1.981272    2.747904
     47          1           0       -0.377292   -2.869778    0.573049
     48          1           0       -1.831954   -0.591813   -0.604355
     49          1           0        1.549122    0.226836    4.451135
     50          1           0        2.885732   -0.488844    3.286102
     51          1           0        2.865592   -2.582809    0.876331
     52          1           0       -2.117588   -0.065601    4.399909
     53          1           0       -0.671454    0.914127    4.630230
     54          1           0       -1.786618    0.906379    3.014882
     55          1           0       -5.457558   -1.100604    2.198887
     56          1           0       -5.558689   -2.823837    1.986515
     57          1           0       -6.956376   -1.621449    1.203546
     58          1           0        2.245274    1.542912    1.538879
     59          1           0        1.049008    2.146313    2.381950
     60          1           0        0.434199    0.491817   -0.073202
     61          1           0        4.584752   -2.004213   -2.923081
     62          1           0        4.108883   -2.699935   -1.345071
     63          1           0       -5.391100   -3.242336   -2.798437
     64          1           0        5.231609   -1.079044   -0.120182
     65          1           0        5.740757   -0.345142   -1.722708
     66          1           0        4.117386   -0.119457   -4.176597
     67          1           0        3.832262    1.372189   -3.235608
     68          1           0        2.406506    0.790013   -4.546859
     69          1           0        0.872346    2.313808   -2.958275
     70          1           0       -7.140985   -3.459020   -0.004932
     71          1           0       -7.416353   -4.057972   -1.890813
     72          1           0        3.569832    4.061616    3.047275
     73          1           0       -0.629823    3.882695   -3.864071
     74          1           0       -4.469782    3.959146   -1.168989
     75          1           0       -3.981811    3.855013    0.461337
     76          1           0       -3.501335    5.302345   -0.192681
     77          1           0        8.310838   -2.379358   -0.567746
     78          1           0       -2.007857    5.844553   -3.914966
     79          1           0       -2.938157    5.418817   -2.376641
 ---------------------------------------------------------------------

 SCF Done:  E(RB3LYP) =  -1947.78148125     A.U. after   22 cycles

 Excitation energies and oscillator strengths:

 Excited State   1:      Singlet-A      0.5420 eV 2287.51 nm  f=0.0007  <S**2>=0.000
     155 ->156         0.70226
 This state for optimization and/or second-order correction.
 Total Energy, E(TD-HF/TD-DFT) =  -1947.76156293
 Copying the excited state density for this state as the 1-particle RhoCI density.

 The electronic state is 1-A.
 Alpha  occ. eigenvalues --  -19.20459 -19.18577 -19.14106 -19.12668 -19.12487
 Alpha  occ. eigenvalues --  -19.07171 -14.39084 -14.37318 -14.33493 -14.32452
 Alpha  occ. eigenvalues --  -10.33567 -10.32270 -10.28678 -10.28074 -10.27564
 Alpha  occ. eigenvalues --  -10.27147 -10.25885 -10.24034 -10.23759 -10.23538
 Alpha  occ. eigenvalues --  -10.23166 -10.22924 -10.22887 -10.22259 -10.22141
 Alpha  occ. eigenvalues --  -10.22113 -10.21701 -10.21478 -10.21350 -10.20922
 Alpha  occ. eigenvalues --  -10.20909 -10.20908 -10.20770 -10.20750 -10.20549
 Alpha  occ. eigenvalues --  -10.20344 -10.19790 -10.19103 -10.18702 -10.17578
 Alpha  occ. eigenvalues --  -10.17430 -10.17270 -10.16905  -1.11661  -1.09754
 Alpha  occ. eigenvalues --   -1.01938  -1.00784  -1.00468  -0.99977  -0.98381
 Alpha  occ. eigenvalues --   -0.96504  -0.94904  -0.92483  -0.85540  -0.82893
 Alpha  occ. eigenvalues --   -0.82250  -0.81223  -0.80775  -0.79665  -0.79035
 Alpha  occ. eigenvalues --   -0.77276  -0.76831  -0.76335  -0.73773  -0.72733
 Alpha  occ. eigenvalues --   -0.71308  -0.70551  -0.69768  -0.68616  -0.68118
 Alpha  occ. eigenvalues --   -0.66700  -0.66167  -0.64338  -0.61817  -0.61650
 Alpha  occ. eigenvalues --   -0.60656  -0.60181  -0.59354  -0.57953  -0.56710
 Alpha  occ. eigenvalues --   -0.56383  -0.55704  -0.55200  -0.53961  -0.53544
 Alpha  occ. eigenvalues --   -0.52830  -0.52631  -0.51636  -0.51199  -0.50460
 Alpha  occ. eigenvalues --   -0.50084  -0.50052  -0.48900  -0.48527  -0.47912
 Alpha  occ. eigenvalues --   -0.47780  -0.47302  -0.47038  -0.46776  -0.46510
 Alpha  occ. eigenvalues --   -0.46298  -0.45528  -0.45065  -0.44894  -0.44250
 Alpha  occ. eigenvalues --   -0.43835  -0.43587  -0.43019  -0.42657  -0.42478
 Alpha  occ. eigenvalues --   -0.42179  -0.41979  -0.41662  -0.41345  -0.41039
 Alpha  occ. eigenvalues --   -0.40766  -0.40643  -0.40433  -0.39824  -0.39530
 Alpha  occ. eigenvalues --   -0.39156  -0.38857  -0.38532  -0.38377  -0.38306
 Alpha  occ. eigenvalues --   -0.37966  -0.37890  -0.37675  -0.37487  -0.36426
 Alpha  occ. eigenvalues --   -0.36098  -0.35699  -0.35569  -0.35363  -0.34476
 Alpha  occ. eigenvalues --   -0.33559  -0.33023  -0.32552  -0.32173  -0.31755
 Alpha  occ. eigenvalues --   -0.31341  -0.29784  -0.29579  -0.29431  -0.29312
 Alpha  occ. eigenvalues --   -0.28013  -0.27724  -0.26967  -0.24796  -0.24163
 Alpha  occ. eigenvalues --   -0.23416  -0.23239  -0.23000  -0.20132  -0.18264
 Alpha virt. eigenvalues --   -0.13820  -0.08683  -0.05327  -0.03341  -0.02639
 Alpha virt. eigenvalues --   -0.00922   0.01173   0.01576   0.02506   0.02539
 Alpha virt. eigenvalues --    0.03255   0.04262   0.04379   0.04834   0.05287

 Mulliken charges:
               1
     1  O   -0.248391
     2  O   -0.160498
     3  O   -0.280001
     4  O   -0.179183
     5  O   -0.266234
     6  O   -0.280281
     7  N   -0.057538
     8  N   -0.182256
     9  N   -0.124770
    10  N   -0.235917
    11  C   -0.060119
    12  C    0.307824
    13  C   -0.139087
    14  C   -0.091670
    15  C   -0.068361
    16  C   -0.023483
    17  C   -0.172268
    18  C   -0.002752
    19  C    0.003880
    20  C   -0.058675
    21  C    0.109070
    22  C    0.129594
    23  C   -0.085139
    24  C    0.067796
    25  C    0.035031
    26  C   -0.115041
    27  C    0.062530
    28  C    0.122238
    29  C    0.129586
    30  C   -0.154780
    31  C    0.092412
    32  C   -0.031339
    33  C    0.088747
    34  C    0.136291
    35  C    0.077337
    36  C   -0.028891
    37  C    0.116096
    38  C    0.034800
    39  C   -0.118522
    40  C    0.157513
    41  C   -0.056643
    42  C    0.032771
    43  C    0.012034
    44  H    0.084899
    45  H   -0.068156
    46  H   -0.004807
    47  H    0.118989
    48  H    0.171373
    49  H    0.051286
    50  H    0.027128
    51  H   -0.009628
    52  H   -0.041276
    53  H    0.018958
    54  H    0.068115
    55  H    0.019854
    56  H    0.046256
    57  H    0.078829
    58  H   -0.002270
    59  H    0.036250
    60  H    0.230910
    61  H    0.036848
    62  H   -0.008801
    63  H    0.053832
    64  H    0.012821
    65  H    0.048221
    66  H    0.047188
    67  H    0.053458
    68  H    0.062457
    69  H   -0.168074
    70  H    0.025306
    71  H    0.023812
    72  H    0.150863
    73  H    0.020941
    74  H    0.055809
    75  H   -0.012083
    76  H    0.037230
    77  H    0.193874
    78  H    0.006119
    79  H    0.039753
 Sum of Mulliken charges =  -0.00000

 Dipole moment (field-independent basis, Debye):
    X=              4.5604    Y=              3.4662    Z=             -1.8880  Tot=              6.0313
 Quadrupole moment (field-independent basis, Debye-Ang):
   XX=           -242.2083   YY=           -243.5488   ZZ=           -271.3645
   XY=             -5.0331   XZ=            -25.2358   YZ=            -23.2112

 Normal termination of Gaussian 16 at Mon Jul 29 14:42:57 2019.
