 Gaussian 16, Revision A.03,
 Gaussian 16:  ES64L-G16RevA.03 25-Dec-2016

 --------------------------
 # td=(NStates=1) B3LYP/SVP
 --------------------------

 --
 TD
 --
 Symbolic Z-matrix:
 Charge =  0 Multiplicity = 1

                         Standard orientation:
 ---------------------------------------------------------------------
 Center     Atomic      Atomic             Coordinates (Angstroms)
 Number     Number       Type             X           Y           Z
 ---------------------------------------------------------------------
      1          8           0       -3.096845   -1.257812   -2.925455
      2          8           0        3.166855    3.112055    3.063605
      3          8           0        3.377765    1.498836    4.707889
      4          8           0        7.812543   -1.514135   -1.023489
      5          8           0        6.579277   -3.016040   -2.234289
      6          8           0       -2.706232    1.721433    1.458238
      7          7           0       -0.194571   -2.349289    0.942268
      8          7           0       -2.567772   -1.211991   -0.669387
      9          7           0        1.195776    0.199291   -0.622898
     10          7           0       -0.980700    1.494277   -0.089010
     11          6           0       -3.321559   -1.479209    0.692984
     12          6           0       -2.580597   -2.431772    1.658087
     13          6           0       -1.123394   -2.020425    1.829549
     14          6           0       -0.537197   -1.344848    2.926326
     15          6           0        0.818997   -1.189827    2.546558
     16          6           0        0.994498   -1.892418    1.332861
     17          6           0       -4.676243   -2.022563    0.165749
     18          6           0        1.818236   -0.381587    3.228256
     19          6           0       -4.728748   -2.014780   -1.205380
     20          6           0        2.156722   -1.809252    0.378629
     21          6           0        2.128296   -0.905715   -0.546806
     22          6           0       -3.398612   -1.529537   -1.775119
     23          6           0        2.931684   -0.621825   -1.678936
     24          6           0       -1.402429   -0.536806    4.023512
     25          6           0       -5.670966   -2.448931    1.185232
     26          6           0        2.519082    0.561599   -2.390125
     27          6           0        1.925399    1.095733    2.787537
     28          6           0        1.420877    0.998743   -1.697087
     29          6           0        4.176284   -1.462366   -1.964824
     30          6           0       -5.760750   -2.529529   -2.120870
     31          6           0        5.412617   -1.136583   -1.198215
     32          6           0        3.180202    1.189326   -3.575238
     33          6           0        0.493128    2.018435   -1.962935
     34          6           0        2.936223    1.880845    3.636804
     35          6           0       -0.583638    2.306052   -1.172389
     36          6           0       -7.079143   -2.982199   -1.792915
     37          6           0        6.673945   -2.040205   -1.543925
     38          6           0       -1.526372    3.482059   -1.279652
     39          6           0       -2.397040    3.392540   -0.237358
     40          6           0       -2.083792    2.096448    0.486705
     41          6           0       -1.273204    4.499343   -2.250996
     42          6           0       -3.431383    4.376516    0.243346
     43          6           0       -2.056458    5.603376   -2.399207
     44          1           0       -3.373373   -0.585453    1.191629
     45          1           0       -2.624865   -3.386749    1.319014
     46          1           0       -3.236091   -2.364061    2.514300
     47          1           0       -0.522069   -2.799357    0.090817
     48          1           0       -1.819190   -0.367551   -0.504485
     49          1           0        1.536509   -0.749100    4.231186
     50          1           0        2.731407   -1.046072    2.850179
     51          1           0        2.712488   -2.698600    0.328387
     52          1           0       -2.361602   -1.222349    4.454648
     53          1           0       -0.842148    0.065472    4.769712
     54          1           0       -1.981378    0.169951    3.176377
     55          1           0       -5.298666   -1.997945    2.231858
     56          1           0       -5.903167   -3.807603    1.222492
     57          1           0       -6.754255   -2.092533    0.867474
     58          1           0        2.365770    1.100751    1.765732
     59          1           0        1.034783    1.593874    2.929584
     60          1           0        0.414769    0.559274    0.050375
     61          1           0        4.446878   -1.273947   -3.117968
     62          1           0        3.929304   -2.566953   -2.233518
     63          1           0       -5.533622   -2.246342   -3.179567
     64          1           0        5.172848   -1.092550   -0.188469
     65          1           0        5.621730   -0.149864   -1.333796
     66          1           0        4.042387    0.629459   -4.057619
     67          1           0        3.361336    2.126818   -3.293273
     68          1           0        2.466211    1.183707   -4.441583
     69          1           0        0.724329    2.682516   -2.833536
     70          1           0       -7.146134   -3.336611   -0.706628
     71          1           0       -7.728509   -3.533754   -2.545921
     72          1           0        3.744969    3.596954    3.750393
     73          1           0       -0.412350    4.421690   -2.906235
     74          1           0       -4.099024    4.608207   -0.671432
     75          1           0       -3.923818    3.782928    0.997237
     76          1           0       -3.040109    5.424872    0.445368
     77          1           0        8.366203   -2.314864   -1.070950
     78          1           0       -1.973262    6.206468   -3.386017
     79          1           0       -3.062322    5.874782   -1.995513
 ---------------------------------------------------------------------

 SCF Done:  E(RB3LYP) =  -1947.83358299     A.U. after   17 cycles

 Excitation energies and oscillator strengths:

 Excited State   1:      Singlet-A      0.9135 eV 1357.19 nm  f=0.0002  <S**2>=0.000
     155 ->156         0.70406
 This state for optimization and/or second-order correction.
 Total Energy, E(TD-HF/TD-DFT) =  -1947.80001109
 Copying the excited state density for this state as the 1-particle RhoCI density.

 The electronic state is 1-A.
 Alpha  occ. eigenvalues --  -19.20692 -19.18717 -19.15355 -19.12782 -19.11906
 Alpha  occ. eigenvalues --  -19.08500 -14.37196 -14.36448 -14.32589 -14.31198
 Alpha  occ. eigenvalues --  -10.34476 -10.31870 -10.27962 -10.27228 -10.26325
 Alpha  occ. eigenvalues --  -10.25324 -10.25311 -10.23697 -10.23408 -10.23087
 Alpha  occ. eigenvalues --  -10.22733 -10.22650 -10.21736 -10.21538 -10.21397
 Alpha  occ. eigenvalues --  -10.21257 -10.21185 -10.21030 -10.21026 -10.20864
 Alpha  occ. eigenvalues --  -10.20704 -10.20601 -10.20461 -10.20434 -10.20204
 Alpha  occ. eigenvalues --  -10.20157 -10.19941 -10.19786 -10.19631 -10.19037
 Alpha  occ. eigenvalues --  -10.18790 -10.17014 -10.16639  -1.12079  -1.08145
 Alpha  occ. eigenvalues --   -1.03688  -1.03293  -1.00013  -0.99961  -0.99481
 Alpha  occ. eigenvalues --   -0.98696  -0.92469  -0.88300  -0.84394  -0.83288
 Alpha  occ. eigenvalues --   -0.81509  -0.80750  -0.79642  -0.79055  -0.78698
 Alpha  occ. eigenvalues --   -0.77310  -0.75688  -0.75551  -0.74100  -0.73091
 Alpha  occ. eigenvalues --   -0.70755  -0.69995  -0.69268  -0.68180  -0.67472
 Alpha  occ. eigenvalues --   -0.66335  -0.65292  -0.62777  -0.61690  -0.61159
 Alpha  occ. eigenvalues --   -0.59761  -0.59010  -0.58534  -0.57687  -0.56395
 Alpha  occ. eigenvalues --   -0.55851  -0.54957  -0.54484  -0.53689  -0.52884
 Alpha  occ. eigenvalues --   -0.52132  -0.51762  -0.51256  -0.50470  -0.50194
 Alpha  occ. eigenvalues --   -0.49592  -0.48849  -0.48765  -0.48304  -0.48117
 Alpha  occ. eigenvalues --   -0.47649  -0.47483  -0.47258  -0.46063  -0.45698
 Alpha  occ. eigenvalues --   -0.45188  -0.44734  -0.44387  -0.44335  -0.43653
 Alpha  occ. eigenvalues --   -0.43567  -0.43492  -0.43182  -0.42702  -0.42430
 Alpha  occ. eigenvalues --   -0.42128  -0.41976  -0.41432  -0.41269  -0.40809
 Alpha  occ. eigenvalues --   -0.40546  -0.40284  -0.40128  -0.40013  -0.39374
 Alpha  occ. eigenvalues --   -0.39217  -0.38680  -0.38649  -0.38461  -0.37778
 Alpha  occ. eigenvalues --   -0.37462  -0.37184  -0.36806  -0.36605  -0.36403
 Alpha  occ. eigenvalues --   -0.36122  -0.35547  -0.35434  -0.34996  -0.34532
 Alpha  occ. eigenvalues --   -0.34037  -0.33287  -0.32954  -0.32492  -0.32417
 Alpha  occ. eigenvalues --   -0.31262  -0.30622  -0.29842  -0.29763  -0.29298
 Alpha  occ. eigenvalues --   -0.27754  -0.26725  -0.25725  -0.24410  -0.23765
 Alpha  occ. eigenvalues --   -0.23491  -0.22889  -0.22468  -0.22183  -0.19196
 Alpha virt. eigenvalues --   -0.13164  -0.07754  -0.05923  -0.02063  -0.01529
 Alpha virt. eigenvalues --    0.00464   0.00655   0.02505   0.02845   0.02989
 Alpha virt. eigenvalues --    0.03654   0.04015   0.04317   0.04806   0.05410

 Mulliken charges:
               1
     1  O   -0.233184
     2  O   -0.228178
     3  O   -0.223796
     4  O   -0.171022
     5  O   -0.197448
     6  O   -0.205150
     7  N    0.040714
     8  N   -0.346894
     9  N   -0.183709
    10  N   -0.371434
    11  C    0.050134
    12  C    0.303470
    13  C   -0.172757
    14  C   -0.090950
    15  C   -0.154407
    16  C   -0.060755
    17  C   -0.092212
    18  C    0.048702
    19  C   -0.064095
    20  C   -0.126971
    21  C    0.282150
    22  C    0.191934
    23  C   -0.102579
    24  C   -0.064659
    25  C   -0.077105
    26  C   -0.111028
    27  C    0.097437
    28  C    0.098987
    29  C   -0.017236
    30  C   -0.031485
    31  C    0.121353
    32  C    0.152923
    33  C   -0.099337
    34  C    0.128396
    35  C    0.120517
    36  C   -0.067119
    37  C    0.149718
    38  C    0.119104
    39  C   -0.228089
    40  C    0.186489
    41  C   -0.012235
    42  C    0.076142
    43  C   -0.080823
    44  H    0.010273
    45  H   -0.058424
    46  H   -0.029015
    47  H    0.115301
    48  H    0.196301
    49  H    0.032485
    50  H    0.003968
    51  H    0.001522
    52  H    0.032239
    53  H    0.035575
    54  H    0.087332
    55  H    0.060164
    56  H    0.063396
    57  H    0.071272
    58  H    0.035247
    59  H    0.030282
    60  H    0.215428
    61  H    0.004293
    62  H    0.047333
    63  H    0.025345
    64  H    0.002600
    65  H   -0.011343
    66  H    0.033171
    67  H    0.003822
    68  H    0.035486
    69  H   -0.015722
    70  H    0.019849
    71  H    0.046795
    72  H    0.198660
    73  H   -0.006518
    74  H    0.037539
    75  H    0.035596
    76  H    0.047455
    77  H    0.179185
    78  H    0.030740
    79  H    0.028856
 Sum of Mulliken charges =  -0.00000

 Dipole moment (field-independent basis, Debye):
    X=              4.6392    Y=              2.0830    Z=             -1.6812  Tot=              5.3561
 Quadrupole moment (field-independent basis, Debye-Ang):
   XX=           -233.6768   YY=           -235.0428   ZZ=           -272.8814
   XY=              2.4251   XZ=            -18.6934   YZ=            -12.3397

 Normal termination of Gaussian 16 at Mon Jul 29 19:52:41 2019.
