 Gaussian 16, Revision A.03,
 Gaussian 16:  ES64L-G16RevA.03 25-Dec-2016

 --------------------------
 # td=(NStates=1) B3LYP/SVP
 --------------------------

 --
 TD
 --
 Symbolic Z-matrix:
 Charge =  0 Multiplicity = 1

                         Standard orientation:
 ---------------------------------------------------------------------
 Center     Atomic      Atomic             Coordinates (Angstroms)
 Number     Number       Type             X           Y           Z
 ---------------------------------------------------------------------
      1          8           0        5.372937   -0.181273   -3.349536
      2          8           0       -2.841528   -2.855554    3.510740
      3          8           0       -3.375180   -0.658520    2.811485
      4          8           0       -2.079025    7.271404    1.316359
      5          8           0       -1.101694    6.985824   -0.752164
      6          8           0       -1.508446   -4.098807    0.030459
      7          7           0        2.306006    1.078094    0.580443
      8          7           0        4.405763   -0.424334   -1.180740
      9          7           0       -1.754748    0.577084   -0.483943
     10          7           0       -2.457926   -2.041588   -0.499536
     11          6           0        4.823928   -0.992541    0.034978
     12          6           0        4.440685   -0.104974    1.292470
     13          6           0        3.007366    0.206157    1.353903
     14          6           0        1.980355   -0.397344    2.305504
     15          6           0        0.702062    0.193077    1.816129
     16          6           0        0.928602    1.163122    0.861196
     17          6           0        6.265951   -1.160883   -0.093819
     18          6           0       -0.606311   -0.062731    2.576702
     19          6           0        6.687047   -0.720423   -1.339131
     20          6           0        0.114646    1.998273    0.093796
     21          6           0       -1.138690    1.865561   -0.329593
     22          6           0        5.444464   -0.455578   -2.161707
     23          6           0       -2.053995    2.818937   -0.872948
     24          6           0        2.221462   -1.364369    3.309073
     25          6           0        7.136375   -1.666015    1.087263
     26          6           0       -3.237340    2.166163   -1.293584
     27          6           0       -1.100076   -1.540236    2.583628
     28          6           0       -3.007457    0.673075   -0.974672
     29          6           0       -1.707551    4.223940   -0.960457
     30          6           0        8.026469   -0.781121   -2.044217
     31          6           0       -2.078591    5.148352    0.266716
     32          6           0       -4.555227    2.673795   -1.987617
     33          6           0       -3.849553   -0.314227   -1.274188
     34          6           0       -2.554077   -1.572241    2.928460
     35          6           0       -3.566525   -1.745077   -1.098367
     36          6           0        9.272586   -0.720924   -1.574519
     37          6           0       -1.636957    6.576583    0.194841
     38          6           0       -4.419846   -2.868698   -1.467116
     39          6           0       -3.670015   -3.927381   -1.004887
     40          6           0       -2.507486   -3.458477   -0.469595
     41          6           0       -5.652011   -2.802929   -2.099404
     42          6           0       -3.955977   -5.392176   -0.933697
     43          6           0       -6.508317   -3.771790   -2.470566
     44          1           0        4.171657   -1.981729    0.287010
     45          1           0        5.072187    0.656024    1.174755
     46          1           0        4.806311   -0.700325    2.295459
     47          1           0        2.847561    1.650730   -0.046106
     48          1           0        3.370288   -0.517687   -1.621219
     49          1           0       -0.658324    0.495814    3.557331
     50          1           0       -1.553570    0.434819    2.011312
     51          1           0        0.726085    2.806387   -0.175392
     52          1           0        3.239804   -1.382284    3.926358
     53          1           0        1.362064   -1.161936    3.944356
     54          1           0        1.961693   -2.501776    3.026245
     55          1           0        6.546348   -2.169275    1.686646
     56          1           0        7.633665   -0.794268    1.710206
     57          1           0        7.831563   -2.338493    0.619662
     58          1           0       -0.893502   -1.915981    1.557982
     59          1           0       -0.619415   -2.313715    3.323653
     60          1           0       -1.377899   -0.075460   -0.133927
     61          1           0       -2.288078    4.727529   -1.818322
     62          1           0       -0.765067    4.547099   -1.532342
     63          1           0        7.916755   -0.486781   -3.150367
     64          1           0       -1.479767    4.572446    1.043832
     65          1           0       -3.256491    4.844759    0.550071
     66          1           0       -4.449945    3.653745   -2.207338
     67          1           0       -5.259298    2.516127   -1.190159
     68          1           0       -4.866252    2.207495   -2.894991
     69          1           0       -4.670613   -0.104536   -1.830610
     70          1           0        9.450187   -0.967402   -0.474674
     71          1           0       10.087967   -0.676903   -2.097085
     72          1           0       -3.813271   -3.034900    3.560612
     73          1           0       -5.904524   -1.783277   -2.484794
     74          1           0       -4.821818   -5.587132   -0.207226
     75          1           0       -4.616727   -5.875829   -1.951057
     76          1           0       -2.989589   -6.096050   -0.722178
     77          1           0       -1.841269    8.259873    0.942465
     78          1           0       -7.470711   -3.264517   -2.995595
     79          1           0       -6.134162   -4.993380   -2.664316
 ---------------------------------------------------------------------

 SCF Done:  E(RB3LYP) =  -1947.74128631     A.U. after   19 cycles

 Excitation energies and oscillator strengths:

 Excited State   1:      Singlet-A      1.7419 eV  711.78 nm  f=0.3574  <S**2>=0.000
     155 ->156         0.70172
     155 <-156        -0.11496
 This state for optimization and/or second-order correction.
 Total Energy, E(TD-HF/TD-DFT) =  -1947.67727305
 Copying the excited state density for this state as the 1-particle RhoCI density.

 The electronic state is 1-A.
 Alpha  occ. eigenvalues --  -19.19604 -19.16197 -19.14966 -19.12614 -19.11145
 Alpha  occ. eigenvalues --  -19.10257 -14.38812 -14.36370 -14.35253 -14.28383
 Alpha  occ. eigenvalues --  -10.33113 -10.31512 -10.29243 -10.25548 -10.25514
 Alpha  occ. eigenvalues --  -10.24290 -10.23908 -10.23613 -10.22928 -10.22643
 Alpha  occ. eigenvalues --  -10.22617 -10.22501 -10.22432 -10.22429 -10.22152
 Alpha  occ. eigenvalues --  -10.21883 -10.21327 -10.21270 -10.20981 -10.20859
 Alpha  occ. eigenvalues --  -10.20836 -10.20654 -10.20484 -10.20371 -10.20371
 Alpha  occ. eigenvalues --  -10.20276 -10.19974 -10.19798 -10.19781 -10.19678
 Alpha  occ. eigenvalues --  -10.19646 -10.19018 -10.17681  -1.11011  -1.05068
 Alpha  occ. eigenvalues --   -1.02572  -1.02400  -0.99277  -0.98638  -0.98173
 Alpha  occ. eigenvalues --   -0.98075  -0.94852  -0.92669  -0.83412  -0.82240
 Alpha  occ. eigenvalues --   -0.81618  -0.81313  -0.80465  -0.79771  -0.77807
 Alpha  occ. eigenvalues --   -0.77165  -0.76509  -0.75939  -0.75116  -0.73365
 Alpha  occ. eigenvalues --   -0.72082  -0.71816  -0.69995  -0.68912  -0.68498
 Alpha  occ. eigenvalues --   -0.66419  -0.66030  -0.64451  -0.61315  -0.60882
 Alpha  occ. eigenvalues --   -0.59754  -0.58411  -0.57613  -0.57548  -0.56578
 Alpha  occ. eigenvalues --   -0.55742  -0.55636  -0.55050  -0.54053  -0.53762
 Alpha  occ. eigenvalues --   -0.52490  -0.51983  -0.51330  -0.50789  -0.49897
 Alpha  occ. eigenvalues --   -0.49792  -0.48920  -0.48450  -0.47792  -0.47464
 Alpha  occ. eigenvalues --   -0.47178  -0.46505  -0.46242  -0.45876  -0.45592
 Alpha  occ. eigenvalues --   -0.45308  -0.44704  -0.44312  -0.43882  -0.43585
 Alpha  occ. eigenvalues --   -0.43531  -0.43128  -0.43045  -0.42910  -0.42576
 Alpha  occ. eigenvalues --   -0.42534  -0.41839  -0.41604  -0.41255  -0.40977
 Alpha  occ. eigenvalues --   -0.40670  -0.40520  -0.39910  -0.39539  -0.39262
 Alpha  occ. eigenvalues --   -0.39149  -0.39009  -0.38877  -0.38437  -0.38370
 Alpha  occ. eigenvalues --   -0.38034  -0.37817  -0.37706  -0.37161  -0.37063
 Alpha  occ. eigenvalues --   -0.35930  -0.35398  -0.34537  -0.34296  -0.34196
 Alpha  occ. eigenvalues --   -0.33849  -0.32914  -0.31901  -0.31800  -0.31586
 Alpha  occ. eigenvalues --   -0.31171  -0.30944  -0.30045  -0.28926  -0.27468
 Alpha  occ. eigenvalues --   -0.27347  -0.26817  -0.26157  -0.26051  -0.24978
 Alpha  occ. eigenvalues --   -0.24448  -0.24096  -0.23097  -0.22173  -0.18469
 Alpha virt. eigenvalues --   -0.11582  -0.07309  -0.06471  -0.01458  -0.01021
 Alpha virt. eigenvalues --   -0.00152   0.00105   0.00427   0.01873   0.02149
 Alpha virt. eigenvalues --    0.02632   0.02876   0.03837   0.03925   0.04899

 Mulliken charges:
               1
     1  O   -0.215001
     2  O   -0.262391
     3  O   -0.234550
     4  O   -0.256091
     5  O   -0.164860
     6  O   -0.252457
     7  N   -0.062853
     8  N   -0.255520
     9  N    0.085598
    10  N   -0.212718
    11  C    0.014237
    12  C    0.212138
    13  C   -0.077924
    14  C   -0.095566
    15  C   -0.101998
    16  C    0.080179
    17  C   -0.183231
    18  C   -0.067859
    19  C   -0.074232
    20  C   -0.048238
    21  C    0.118864
    22  C    0.169833
    23  C   -0.029386
    24  C    0.000872
    25  C    0.159648
    26  C   -0.166817
    27  C   -0.025472
    28  C    0.160523
    29  C   -0.011109
    30  C   -0.020919
    31  C   -0.066681
    32  C    0.194412
    33  C   -0.061325
    34  C    0.196274
    35  C    0.010739
    36  C    0.020912
    37  C    0.176353
    38  C    0.111336
    39  C   -0.112929
    40  C    0.121893
    41  C   -0.059965
    42  C   -0.039811
    43  C   -0.109324
    44  H    0.045001
    45  H   -0.061997
    46  H    0.029009
    47  H    0.109521
    48  H    0.174344
    49  H    0.033754
    50  H    0.051170
    51  H   -0.038049
    52  H    0.039691
    53  H    0.016515
    54  H    0.047723
    55  H   -0.031873
    56  H    0.059319
    57  H    0.036141
    58  H    0.090319
    59  H    0.048878
    60  H   -0.018904
    61  H   -0.003404
    62  H    0.033428
    63  H    0.034662
    64  H    0.048733
    65  H    0.073135
    66  H   -0.022735
    67  H    0.030450
    68  H    0.027658
    69  H   -0.096668
    70  H    0.016071
    71  H   -0.020413
    72  H    0.188407
    73  H    0.008641
    74  H    0.042590
    75  H    0.022008
    76  H    0.080650
    77  H    0.214771
    78  H    0.050408
    79  H    0.076460
 Sum of Mulliken charges =  -0.00000

 Dipole moment (field-independent basis, Debye):
    X=             -0.0186    Y=              2.7616    Z=              1.9738  Tot=              3.3945
 Quadrupole moment (field-independent basis, Debye-Ang):
   XX=           -217.5086   YY=           -243.1182   ZZ=           -264.2611
   XY=             -5.4540   XZ=             34.6233   YZ=             -0.3331

 Normal termination of Gaussian 16 at Fri Oct 11 03:35:03 2019.
