 Gaussian 16, Revision A.03,
 Gaussian 16:  ES64L-G16RevA.03 25-Dec-2016

 --------------------------
 # td=(NStates=1) B3LYP/SVP
 --------------------------

 --
 TD
 --
 Symbolic Z-matrix:
 Charge =  0 Multiplicity = 1

                         Standard orientation:
 ---------------------------------------------------------------------
 Center     Atomic      Atomic             Coordinates (Angstroms)
 Number     Number       Type             X           Y           Z
 ---------------------------------------------------------------------
      1          8           0       -3.171875   -1.626698   -2.747555
      2          8           0        3.418871    3.342746    2.981942
      3          8           0        3.699610    1.494548    4.409062
      4          8           0        7.766379   -1.523834   -0.764805
      5          8           0        6.749352   -3.180939   -1.807334
      6          8           0       -2.561646    1.861179    1.344366
      7          7           0       -0.312065   -2.277920    1.176792
      8          7           0       -2.678346   -1.245560   -0.513309
      9          7           0        1.141244   -0.060944   -0.689052
     10          7           0       -0.964736    1.501603   -0.307222
     11          6           0       -3.380403   -1.211335    0.689913
     12          6           0       -2.755300   -2.124329    1.891189
     13          6           0       -1.323467   -1.820863    2.029247
     14          6           0       -0.636987   -0.919457    2.921473
     15          6           0        0.742979   -0.899764    2.539448
     16          6           0        0.810119   -1.651270    1.333236
     17          6           0       -4.760347   -1.868751    0.393689
     18          6           0        1.769410   -0.004741    3.129628
     19          6           0       -4.702492   -2.140048   -0.904169
     20          6           0        2.022542   -1.906841    0.512286
     21          6           0        2.196116   -0.940261   -0.495042
     22          6           0       -3.433258   -1.720235   -1.532362
     23          6           0        3.023554   -0.835622   -1.618232
     24          6           0       -1.397479   -0.148585    3.936570
     25          6           0       -5.936711   -1.905897    1.343587
     26          6           0        2.497261    0.117300   -2.506065
     27          6           0        1.812166    1.416924    2.707051
     28          6           0        1.356885    0.718532   -1.862976
     29          6           0        4.168593   -1.698805   -1.928555
     30          6           0       -5.747622   -2.726350   -1.769371
     31          6           0        5.472360   -1.192026   -1.282235
     32          6           0        3.096530    0.774611   -3.702197
     33          6           0        0.459720    1.789279   -2.244401
     34          6           0        3.106381    1.958186    3.549557
     35          6           0       -0.665931    2.229655   -1.429413
     36          6           0       -6.790203   -3.554045   -1.532093
     37          6           0        6.646826   -2.048836   -1.350059
     38          6           0       -1.524248    3.356386   -1.547222
     39          6           0       -2.383157    3.362381   -0.474818
     40          6           0       -2.051631    2.169015    0.301089
     41          6           0       -1.385515    4.353879   -2.644577
     42          6           0       -3.343954    4.293245    0.006687
     43          6           0       -2.022044    5.548015   -2.834929
     44          1           0       -3.393357   -0.155889    1.159534
     45          1           0       -2.945206   -3.096877    1.503263
     46          1           0       -3.095324   -1.870476    2.786532
     47          1           0       -0.508348   -2.818146    0.284847
     48          1           0       -1.971769   -0.600828   -0.618588
     49          1           0        1.681404    0.005606    4.258071
     50          1           0        2.822493   -0.711067    2.804671
     51          1           0        2.743588   -2.792666    0.791381
     52          1           0       -2.148254   -0.510718    4.545593
     53          1           0       -0.665238    0.356604    4.612701
     54          1           0       -1.794762    0.451717    3.254471
     55          1           0       -5.734354   -1.078909    2.277260
     56          1           0       -6.070291   -2.930967    1.851018
     57          1           0       -6.857817   -1.875505    0.788153
     58          1           0        1.943844    1.496281    1.656806
     59          1           0        1.017791    1.906821    2.944895
     60          1           0        0.570468    0.225695    0.166221
     61          1           0        4.390722   -1.537019   -3.059151
     62          1           0        3.864766   -2.692536   -1.359238
     63          1           0       -5.539176   -2.519631   -2.782393
     64          1           0        5.411797   -0.863796   -0.024084
     65          1           0        5.848016   -0.299661   -1.727277
     66          1           0        3.835118   -0.008798   -4.249601
     67          1           0        3.678362    1.658395   -3.634084
     68          1           0        2.403608    1.189325   -4.340838
     69          1           0        0.638758    2.502808   -2.995869
     70          1           0       -6.935941   -4.146333   -0.475021
     71          1           0       -7.329895   -3.841536   -2.525957
     72          1           0        4.248964    3.439867    3.728604
     73          1           0       -0.709399    4.206715   -3.524461
     74          1           0       -4.221201    4.456229   -0.739173
     75          1           0       -3.638843    4.014601    1.026810
     76          1           0       -2.813745    5.340249   -0.048812
     77          1           0        8.564923   -2.080551   -1.040116
     78          1           0       -1.712083    6.214657   -3.846824
     79          1           0       -2.731993    5.993973   -2.200808
 ---------------------------------------------------------------------

 SCF Done:  E(RB3LYP) =  -1947.78193264     A.U. after   23 cycles

 Excitation energies and oscillator strengths:

 Excited State   1:      Singlet-A      0.8764 eV 1414.64 nm  f=0.0050  <S**2>=0.000
     155 ->156         0.70363
 This state for optimization and/or second-order correction.
 Total Energy, E(TD-HF/TD-DFT) =  -1947.74972420
 Copying the excited state density for this state as the 1-particle RhoCI density.

 The electronic state is 1-A.
 Alpha  occ. eigenvalues --  -19.18100 -19.16443 -19.16320 -19.12839 -19.12814
 Alpha  occ. eigenvalues --  -19.08426 -14.37342 -14.37175 -14.33468 -14.29830
 Alpha  occ. eigenvalues --  -10.32714 -10.32648 -10.27546 -10.27308 -10.27019
 Alpha  occ. eigenvalues --  -10.25470 -10.24858 -10.24242 -10.23814 -10.23807
 Alpha  occ. eigenvalues --  -10.23100 -10.22788 -10.22725 -10.22001 -10.21658
 Alpha  occ. eigenvalues --  -10.21640 -10.21620 -10.21614 -10.21515 -10.21035
 Alpha  occ. eigenvalues --  -10.20722 -10.20671 -10.20595 -10.20530 -10.20087
 Alpha  occ. eigenvalues --  -10.19887 -10.19673 -10.18582 -10.18434 -10.18322
 Alpha  occ. eigenvalues --  -10.17456 -10.17312 -10.16111  -1.11130  -1.09173
 Alpha  occ. eigenvalues --   -1.04645  -1.00542  -0.99303  -0.99033  -0.97747
 Alpha  occ. eigenvalues --   -0.96456  -0.93651  -0.93262  -0.84459  -0.82430
 Alpha  occ. eigenvalues --   -0.81337  -0.81188  -0.80963  -0.79417  -0.78777
 Alpha  occ. eigenvalues --   -0.77388  -0.76395  -0.75369  -0.74387  -0.73963
 Alpha  occ. eigenvalues --   -0.71386  -0.70938  -0.70408  -0.69996  -0.68147
 Alpha  occ. eigenvalues --   -0.66111  -0.64527  -0.63753  -0.61339  -0.60233
 Alpha  occ. eigenvalues --   -0.59523  -0.59161  -0.58395  -0.57056  -0.55763
 Alpha  occ. eigenvalues --   -0.55232  -0.54966  -0.54801  -0.54196  -0.53448
 Alpha  occ. eigenvalues --   -0.52110  -0.51605  -0.51137  -0.50793  -0.49607
 Alpha  occ. eigenvalues --   -0.49171  -0.48933  -0.48767  -0.48195  -0.48007
 Alpha  occ. eigenvalues --   -0.47739  -0.47142  -0.46685  -0.46392  -0.46172
 Alpha  occ. eigenvalues --   -0.45583  -0.45361  -0.45104  -0.44719  -0.44018
 Alpha  occ. eigenvalues --   -0.43493  -0.43351  -0.43135  -0.42580  -0.42529
 Alpha  occ. eigenvalues --   -0.42349  -0.42201  -0.41775  -0.41186  -0.41130
 Alpha  occ. eigenvalues --   -0.40827  -0.40552  -0.40280  -0.40180  -0.40114
 Alpha  occ. eigenvalues --   -0.39898  -0.39796  -0.39328  -0.39134  -0.39057
 Alpha  occ. eigenvalues --   -0.38332  -0.37669  -0.37514  -0.37344  -0.36927
 Alpha  occ. eigenvalues --   -0.36766  -0.36334  -0.35952  -0.35631  -0.34877
 Alpha  occ. eigenvalues --   -0.34347  -0.32650  -0.32270  -0.31687  -0.31461
 Alpha  occ. eigenvalues --   -0.30964  -0.30146  -0.29427  -0.29170  -0.28922
 Alpha  occ. eigenvalues --   -0.28237  -0.26937  -0.25775  -0.24970  -0.24171
 Alpha  occ. eigenvalues --   -0.23646  -0.23242  -0.22667  -0.21777  -0.18936
 Alpha virt. eigenvalues --   -0.13220  -0.08666  -0.04115  -0.01959  -0.01685
 Alpha virt. eigenvalues --    0.00007   0.01299   0.01699   0.02224   0.02583
 Alpha virt. eigenvalues --    0.03150   0.03574   0.04026   0.04128   0.04319

 Mulliken charges:
               1
     1  O   -0.260598
     2  O   -0.354490
     3  O   -0.122987
     4  O   -0.231045
     5  O   -0.235526
     6  O   -0.183529
     7  N   -0.006282
     8  N   -0.089911
     9  N   -0.156337
    10  N   -0.334042
    11  C   -0.072073
    12  C    0.377775
    13  C   -0.186736
    14  C   -0.120936
    15  C   -0.080417
    16  C   -0.119873
    17  C   -0.131512
    18  C   -0.053626
    19  C   -0.068377
    20  C   -0.120510
    21  C    0.111346
    22  C    0.144111
    23  C   -0.086627
    24  C    0.179249
    25  C    0.048495
    26  C   -0.075948
    27  C    0.159803
    28  C    0.154958
    29  C    0.124813
    30  C    0.007372
    31  C   -0.065077
    32  C    0.083783
    33  C   -0.015445
    34  C    0.154998
    35  C    0.030461
    36  C   -0.092232
    37  C    0.131054
    38  C    0.127566
    39  C   -0.183066
    40  C    0.156482
    41  C   -0.040266
    42  C    0.041680
    43  C   -0.083910
    44  H    0.066102
    45  H   -0.045532
    46  H   -0.060662
    47  H    0.132957
    48  H    0.102212
    49  H    0.026732
    50  H    0.020226
    51  H    0.062152
    52  H   -0.004166
    53  H   -0.008722
    54  H   -0.010105
    55  H    0.055373
    56  H    0.035014
    57  H    0.027590
    58  H    0.014440
    59  H   -0.018173
    60  H    0.228384
    61  H    0.037642
    62  H    0.054142
    63  H   -0.004372
    64  H    0.082901
    65  H    0.028158
    66  H    0.030999
    67  H    0.024786
    68  H    0.002732
    69  H   -0.047935
    70  H    0.043893
    71  H    0.044842
    72  H    0.203364
    73  H    0.011809
    74  H    0.051978
    75  H    0.041274
    76  H    0.044836
    77  H    0.207651
    78  H    0.052396
    79  H    0.002511
 Sum of Mulliken charges =  -0.00000

 Dipole moment (field-independent basis, Debye):
    X=              2.5966    Y=              2.7214    Z=             -0.5925  Tot=              3.8079
 Quadrupole moment (field-independent basis, Debye-Ang):
   XX=           -237.1504   YY=           -248.2586   ZZ=           -259.2976
   XY=              3.5011   XZ=            -22.5551   YZ=            -18.2442

 Normal termination of Gaussian 16 at Mon Jul 29 17:35:24 2019.
