 Gaussian 16, Revision A.03,
 Gaussian 16:  ES64L-G16RevA.03 25-Dec-2016

 --------------------------
 # td=(NStates=1) B3LYP/SVP
 --------------------------

 --
 TD
 --
 Symbolic Z-matrix:
 Charge =  0 Multiplicity = 1

                         Standard orientation:
 ---------------------------------------------------------------------
 Center     Atomic      Atomic             Coordinates (Angstroms)
 Number     Number       Type             X           Y           Z
 ---------------------------------------------------------------------
      1          8           0        5.170531   -0.094541   -3.246795
      2          8           0       -2.852041   -3.097523    3.144636
      3          8           0       -3.224510   -0.852535    3.193450
      4          8           0       -1.510187    7.195115    1.530685
      5          8           0       -0.887193    7.170488   -0.593428
      6          8           0       -1.718130   -3.949317   -0.188505
      7          7           0        2.453205    0.898905    0.613926
      8          7           0        4.337540   -0.706738   -1.246478
      9          7           0       -1.817234    0.643267   -0.370084
     10          7           0       -2.618097   -1.873153   -0.548349
     11          6           0        4.836876   -1.326248    0.012835
     12          6           0        4.493236   -0.446214    1.232604
     13          6           0        3.016397   -0.104325    1.419964
     14          6           0        1.982824   -0.641456    2.188975
     15          6           0        0.742724   -0.126423    1.832839
     16          6           0        1.037099    0.853310    0.849139
     17          6           0        6.315201   -1.346931   -0.145183
     18          6           0       -0.560647   -0.315289    2.430011
     19          6           0        6.637808   -0.841277   -1.434798
     20          6           0        0.227109    1.948752    0.178435
     21          6           0       -1.060136    1.702876   -0.299075
     22          6           0        5.335478   -0.506982   -2.124321
     23          6           0       -1.880180    2.867754   -0.913658
     24          6           0        2.336432   -1.771829    3.275057
     25          6           0        7.286746   -1.864503    0.889210
     26          6           0       -3.144862    2.376762   -1.125835
     27          6           0       -1.107722   -1.694532    2.393148
     28          6           0       -3.084264    0.922626   -0.968532
     29          6           0       -1.458153    4.410911   -0.907317
     30          6           0        7.814218   -0.681588   -2.235087
     31          6           0       -1.720921    5.148037    0.519213
     32          6           0       -4.262467    3.107484   -1.808717
     33          6           0       -4.042343   -0.007330   -1.193593
     34          6           0       -2.537211   -1.765883    2.955290
     35          6           0       -3.789868   -1.405822   -0.962529
     36          6           0        9.007271   -0.499245   -1.744206
     37          6           0       -1.372344    6.557705    0.364061
     38          6           0       -4.743282   -2.555927   -1.317324
     39          6           0       -3.910315   -3.728357   -1.090419
     40          6           0       -2.653620   -3.255624   -0.592214
     41          6           0       -6.022005   -2.394427   -1.997234
     42          6           0       -4.373919   -5.193701   -1.154303
     43          6           0       -6.798449   -3.290352   -2.714365
     44          1           0        4.424663   -2.277309    0.120772
     45          1           0        4.940593    0.581181    1.401552
     46          1           0        4.956292   -0.893892    2.155316
     47          1           0        2.863526    1.329708   -0.143619
     48          1           0        3.387083   -0.767830   -1.423425
     49          1           0       -0.503924   -0.058298    3.509491
     50          1           0       -1.291900    0.459350    1.966997
     51          1           0        0.948568    2.857325   -0.062086
     52          1           0        3.499933   -1.530418    3.518001
     53          1           0        1.590007   -1.706869    4.401976
     54          1           0        2.197238   -2.849378    2.651372
     55          1           0        6.757172   -2.677429    1.471296
     56          1           0        7.523791   -1.223460    1.737444
     57          1           0        8.267862   -2.391106    0.472943
     58          1           0       -1.122520   -2.236249    1.505119
     59          1           0       -0.668065   -2.428544    3.019795
     60          1           0       -1.735663   -0.410639   -0.278600
     61          1           0       -2.041467    4.736520   -1.674960
     62          1           0       -0.505564    4.725550   -1.050440
     63          1           0        7.617761   -0.619770   -3.286745
     64          1           0       -0.959002    4.823313    1.312279
     65          1           0       -2.683869    5.053327    1.065772
     66          1           0       -4.276918    4.160412   -1.848035
     67          1           0       -5.198234    3.158768   -1.200296
     68          1           0       -4.663954    2.719483   -2.832158
     69          1           0       -5.044470    0.277913   -1.634918
     70          1           0        9.282541   -0.521246   -0.693787
     71          1           0        9.982087   -0.201378   -2.372466
     72          1           0       -3.814540   -3.109809    3.501742
     73          1           0       -6.301097   -1.309817   -1.983921
     74          1           0       -5.498807   -5.552475   -0.977042
     75          1           0       -4.261525   -5.772177   -2.207327
     76          1           0       -3.713992   -5.706201   -0.450030
     77          1           0       -1.250915    8.282687    1.473559
     78          1           0       -7.805982   -2.991060   -3.172791
     79          1           0       -6.492649   -4.431347   -2.728645
 ---------------------------------------------------------------------

 SCF Done:  E(RB3LYP) =  -1947.86300822     A.U. after   17 cycles

 Excitation energies and oscillator strengths:

 Excited State   1:      Singlet-A      1.8229 eV  680.14 nm  f=0.3857  <S**2>=0.000
     155 ->156         0.70301
     155 <-156        -0.11955
 This state for optimization and/or second-order correction.
 Total Energy, E(TD-HF/TD-DFT) =  -1947.79601732
 Copying the excited state density for this state as the 1-particle RhoCI density.

 The electronic state is 1-A.
 Alpha  occ. eigenvalues --  -19.18656 -19.16678 -19.12306 -19.11984 -19.10472
 Alpha  occ. eigenvalues --  -19.09172 -14.37549 -14.36581 -14.35041 -14.29920
 Alpha  occ. eigenvalues --  -10.32124 -10.30084 -10.27785 -10.26670 -10.25151
 Alpha  occ. eigenvalues --  -10.25045 -10.24859 -10.24547 -10.23975 -10.23012
 Alpha  occ. eigenvalues --  -10.22967 -10.22955 -10.22818 -10.22499 -10.22463
 Alpha  occ. eigenvalues --  -10.22249 -10.22174 -10.21944 -10.21819 -10.21693
 Alpha  occ. eigenvalues --  -10.21354 -10.20997 -10.20915 -10.20887 -10.20639
 Alpha  occ. eigenvalues --  -10.20601 -10.20254 -10.19873 -10.19290 -10.19203
 Alpha  occ. eigenvalues --  -10.18889 -10.18832 -10.16970  -1.08561  -1.08171
 Alpha  occ. eigenvalues --   -1.02871  -1.01404  -1.00031  -0.98561  -0.98467
 Alpha  occ. eigenvalues --   -0.96794  -0.94160  -0.92638  -0.82370  -0.82155
 Alpha  occ. eigenvalues --   -0.81732  -0.81003  -0.79828  -0.79534  -0.78200
 Alpha  occ. eigenvalues --   -0.77324  -0.76388  -0.75195  -0.74138  -0.72006
 Alpha  occ. eigenvalues --   -0.71482  -0.70510  -0.69179  -0.68839  -0.67490
 Alpha  occ. eigenvalues --   -0.66679  -0.66091  -0.63873  -0.61971  -0.60978
 Alpha  occ. eigenvalues --   -0.59765  -0.58528  -0.58477  -0.57906  -0.56635
 Alpha  occ. eigenvalues --   -0.56376  -0.55404  -0.54256  -0.53952  -0.52932
 Alpha  occ. eigenvalues --   -0.52233  -0.51374  -0.50996  -0.50118  -0.49415
 Alpha  occ. eigenvalues --   -0.49066  -0.48651  -0.47946  -0.47833  -0.47207
 Alpha  occ. eigenvalues --   -0.47169  -0.46870  -0.46415  -0.46178  -0.45229
 Alpha  occ. eigenvalues --   -0.44884  -0.44565  -0.44199  -0.44081  -0.43726
 Alpha  occ. eigenvalues --   -0.43134  -0.42859  -0.42636  -0.42318  -0.42058
 Alpha  occ. eigenvalues --   -0.41675  -0.41586  -0.41445  -0.41122  -0.40765
 Alpha  occ. eigenvalues --   -0.40672  -0.40251  -0.39934  -0.39272  -0.39229
 Alpha  occ. eigenvalues --   -0.39072  -0.38979  -0.38615  -0.38140  -0.37886
 Alpha  occ. eigenvalues --   -0.37631  -0.37399  -0.37264  -0.36841  -0.36307
 Alpha  occ. eigenvalues --   -0.35865  -0.35573  -0.35162  -0.34703  -0.34485
 Alpha  occ. eigenvalues --   -0.34081  -0.33906  -0.32617  -0.32048  -0.31715
 Alpha  occ. eigenvalues --   -0.31612  -0.31126  -0.28819  -0.28130  -0.27964
 Alpha  occ. eigenvalues --   -0.27152  -0.26731  -0.26268  -0.25240  -0.24970
 Alpha  occ. eigenvalues --   -0.24744  -0.24136  -0.23694  -0.22367  -0.18801
 Alpha virt. eigenvalues --   -0.11743  -0.07066  -0.05987  -0.01436  -0.00443
 Alpha virt. eigenvalues --    0.00263   0.00972   0.01692   0.02454   0.03309
 Alpha virt. eigenvalues --    0.03699   0.04334   0.04381   0.04810   0.05000

 Mulliken charges:
               1
     1  O   -0.216862
     2  O   -0.241458
     3  O   -0.179024
     4  O   -0.260227
     5  O   -0.259424
     6  O   -0.211430
     7  N   -0.109371
     8  N   -0.157323
     9  N   -0.064740
    10  N   -0.273778
    11  C    0.186974
    12  C    0.120397
    13  C   -0.073266
    14  C   -0.114408
    15  C   -0.032506
    16  C   -0.006557
    17  C   -0.156465
    18  C    0.098379
    19  C   -0.065001
    20  C   -0.132788
    21  C    0.132278
    22  C    0.118922
    23  C   -0.114118
    24  C   -0.076922
    25  C    0.043670
    26  C   -0.076030
    27  C    0.039445
    28  C    0.113345
    29  C    0.206727
    30  C    0.041825
    31  C   -0.037954
    32  C    0.067745
    33  C   -0.104582
    34  C    0.103551
    35  C    0.066636
    36  C   -0.069273
    37  C    0.138876
    38  C    0.014384
    39  C   -0.134798
    40  C    0.153337
    41  C   -0.023741
    42  C   -0.012978
    43  C   -0.063390
    44  H    0.008852
    45  H    0.016051
    46  H   -0.011691
    47  H    0.093954
    48  H    0.106228
    49  H    0.000744
    50  H    0.033397
    51  H    0.042446
    52  H    0.042736
    53  H    0.059562
    54  H    0.073143
    55  H    0.010974
    56  H    0.036126
    57  H    0.061728
    58  H    0.017389
    59  H   -0.001871
    60  H    0.169498
    61  H    0.000041
    62  H   -0.016907
    63  H    0.007369
    64  H    0.061287
    65  H    0.049628
    66  H   -0.008120
    67  H    0.001358
    68  H    0.049216
    69  H    0.000557
    70  H    0.014362
    71  H    0.041141
    72  H    0.193050
    73  H   -0.000095
    74  H    0.043326
    75  H    0.041465
    76  H    0.037168
    77  H    0.249658
    78  H    0.050165
    79  H    0.047989
 Sum of Mulliken charges =  -0.00000

 Dipole moment (field-independent basis, Debye):
    X=             -0.5736    Y=              1.7306    Z=              3.4819  Tot=              3.9304
 Quadrupole moment (field-independent basis, Debye-Ang):
   XX=           -210.5063   YY=           -244.6335   ZZ=           -265.5493
   XY=             -7.8804   XZ=             32.3533   YZ=              8.3490

 Normal termination of Gaussian 16 at Thu Sep 19 06:47:12 2019.
