 Gaussian 16, Revision A.03,
 Gaussian 16:  ES64L-G16RevA.03 25-Dec-2016

 --------------------------
 # td=(NStates=1) B3LYP/SVP
 --------------------------

 --
 TD
 --
 Symbolic Z-matrix:
 Charge =  0 Multiplicity = 1

                         Standard orientation:
 ---------------------------------------------------------------------
 Center     Atomic      Atomic             Coordinates (Angstroms)
 Number     Number       Type             X           Y           Z
 ---------------------------------------------------------------------
      1          8           0        5.490305    0.155775   -3.168061
      2          8           0       -3.180835   -2.863747    3.176270
      3          8           0       -3.439335   -0.662172    3.059507
      4          8           0       -1.774737    7.206882    1.522062
      5          8           0        0.001818    6.877693   -0.138060
      6          8           0       -1.722989   -4.040665   -0.111701
      7          7           0        2.383137    0.838544    0.619713
      8          7           0        4.406172   -0.612496   -1.246346
      9          7           0       -1.854490    0.694030   -0.425419
     10          7           0       -2.621207   -1.826682   -0.379774
     11          6           0        4.752421   -1.372312    0.027391
     12          6           0        4.410145   -0.616867    1.434722
     13          6           0        2.903487   -0.149090    1.295184
     14          6           0        1.863209   -0.837513    2.013078
     15          6           0        0.713833   -0.099778    1.781023
     16          6           0        1.049728    0.892711    0.833890
     17          6           0        6.246135   -1.482992   -0.212256
     18          6           0       -0.680954   -0.287758    2.412808
     19          6           0        6.660132   -0.944364   -1.328885
     20          6           0        0.312376    1.894166    0.155190
     21          6           0       -0.978039    1.850771   -0.337348
     22          6           0        5.494435   -0.326791   -2.054836
     23          6           0       -1.753448    2.926159   -0.985526
     24          6           0        1.930798   -2.054805    2.884516
     25          6           0        6.951638   -2.119766    0.919248
     26          6           0       -2.996840    2.463072   -1.387170
     27          6           0       -1.256113   -1.707123    2.494296
     28          6           0       -3.056633    1.010577   -1.175886
     29          6           0       -1.334747    4.438935   -0.901274
     30          6           0        7.964276   -0.701665   -1.945002
     31          6           0       -1.797143    5.172757    0.429312
     32          6           0       -4.153680    3.188863   -1.919866
     33          6           0       -3.970176   -0.028840   -1.490166
     34          6           0       -2.741594   -1.626046    2.944633
     35          6           0       -3.667397   -1.403987   -1.075064
     36          6           0        9.069214   -0.771162   -1.346752
     37          6           0       -1.043104    6.403223    0.552752
     38          6           0       -4.580631   -2.531830   -1.454285
     39          6           0       -3.980208   -3.661680   -1.137372
     40          6           0       -2.650602   -3.282610   -0.526866
     41          6           0       -5.948825   -2.223974   -2.118607
     42          6           0       -4.491371   -5.011666   -1.137346
     43          6           0       -6.823886   -3.115029   -2.600231
     44          1           0        4.396646   -2.464023   -0.021458
     45          1           0        5.169679    0.225471    1.417768
     46          1           0        4.455953   -1.293758    2.245388
     47          1           0        2.806586    1.410374    0.077566
     48          1           0        3.398271   -0.821954   -1.602346
     49          1           0       -0.542723    0.116146    3.514197
     50          1           0       -1.318671    0.307570    1.775440
     51          1           0        0.950568    2.862568   -0.100486
     52          1           0        2.983121   -2.164900    3.307138
     53          1           0        1.312891   -1.891219    3.900008
     54          1           0        1.372087   -2.802881    2.373461
     55          1           0        6.331962   -2.752801    1.627794
     56          1           0        7.404116   -1.352600    1.587434
     57          1           0        7.909764   -2.680524    0.488631
     58          1           0       -1.107828   -2.474483    1.555631
     59          1           0       -0.736929   -2.284754    3.293967
     60          1           0       -1.445392   -0.294659   -0.537032
     61          1           0       -1.584090    5.056218   -1.820269
     62          1           0       -0.249598    4.510934   -0.689036
     63          1           0        7.758990   -0.608389   -2.972727
     64          1           0       -1.568856    4.552259    1.397197
     65          1           0       -2.848880    5.261116    0.398233
     66          1           0       -3.917348    4.233589   -1.977094
     67          1           0       -4.987338    3.039485   -1.324052
     68          1           0       -4.369809    2.722273   -2.868811
     69          1           0       -4.934502    0.567209   -1.731104
     70          1           0        9.507080   -0.993052   -0.363939
     71          1           0        9.892652   -0.537029   -2.009035
     72          1           0       -4.199461   -2.733483    3.327527
     73          1           0       -6.151123   -1.242169   -2.136644
     74          1           0       -5.517516   -5.121238   -0.631639
     75          1           0       -4.528628   -5.454596   -2.239603
     76          1           0       -3.677872   -5.823563   -0.608044
     77          1           0       -1.104288    7.866386    1.823626
     78          1           0       -7.884634   -2.985917   -2.900540
     79          1           0       -6.662610   -4.299000   -2.534352
 ---------------------------------------------------------------------

 SCF Done:  E(RB3LYP) =  -1947.84673907     A.U. after   16 cycles

 Excitation energies and oscillator strengths:

 Excited State   1:      Singlet-A      2.0504 eV  604.68 nm  f=0.4338  <S**2>=0.000
     155 ->156         0.70615
     155 <-156        -0.10864
 This state for optimization and/or second-order correction.
 Total Energy, E(TD-HF/TD-DFT) =  -1947.77138823
 Copying the excited state density for this state as the 1-particle RhoCI density.

 The electronic state is 1-A.
 Alpha  occ. eigenvalues --  -19.18964 -19.16802 -19.15185 -19.11791 -19.10965
 Alpha  occ. eigenvalues --  -19.10733 -14.38540 -14.35928 -14.35702 -14.30006
 Alpha  occ. eigenvalues --  -10.34779 -10.29960 -10.28690 -10.28015 -10.25745
 Alpha  occ. eigenvalues --  -10.24924 -10.24317 -10.24313 -10.23897 -10.23616
 Alpha  occ. eigenvalues --  -10.22840 -10.22723 -10.22295 -10.22045 -10.21990
 Alpha  occ. eigenvalues --  -10.21739 -10.21078 -10.21050 -10.20895 -10.20737
 Alpha  occ. eigenvalues --  -10.20553 -10.20507 -10.20404 -10.20261 -10.19455
 Alpha  occ. eigenvalues --  -10.19432 -10.19229 -10.19054 -10.18947 -10.18862
 Alpha  occ. eigenvalues --  -10.18768 -10.18705 -10.18524  -1.08322  -1.05740
 Alpha  occ. eigenvalues --   -1.02828  -1.02274  -0.99738  -0.98916  -0.97234
 Alpha  occ. eigenvalues --   -0.94446  -0.93011  -0.91764  -0.82513  -0.82288
 Alpha  occ. eigenvalues --   -0.82059  -0.81413  -0.80381  -0.79607  -0.78654
 Alpha  occ. eigenvalues --   -0.77439  -0.75992  -0.75334  -0.74621  -0.72764
 Alpha  occ. eigenvalues --   -0.71934  -0.71398  -0.69475  -0.68651  -0.67859
 Alpha  occ. eigenvalues --   -0.66335  -0.65739  -0.64026  -0.61242  -0.60161
 Alpha  occ. eigenvalues --   -0.59523  -0.58499  -0.57961  -0.57591  -0.57169
 Alpha  occ. eigenvalues --   -0.56056  -0.54682  -0.54244  -0.53581  -0.53015
 Alpha  occ. eigenvalues --   -0.51939  -0.51441  -0.51169  -0.50516  -0.49339
 Alpha  occ. eigenvalues --   -0.48388  -0.48155  -0.47873  -0.47773  -0.47105
 Alpha  occ. eigenvalues --   -0.46986  -0.46566  -0.46320  -0.46040  -0.45705
 Alpha  occ. eigenvalues --   -0.45200  -0.44997  -0.44736  -0.44239  -0.43965
 Alpha  occ. eigenvalues --   -0.43651  -0.43337  -0.43138  -0.42826  -0.42352
 Alpha  occ. eigenvalues --   -0.42035  -0.41777  -0.41504  -0.41238  -0.41151
 Alpha  occ. eigenvalues --   -0.40935  -0.40407  -0.40116  -0.39872  -0.39601
 Alpha  occ. eigenvalues --   -0.39362  -0.38856  -0.38798  -0.38459  -0.38103
 Alpha  occ. eigenvalues --   -0.37773  -0.37418  -0.36890  -0.36572  -0.36258
 Alpha  occ. eigenvalues --   -0.36039  -0.35830  -0.35427  -0.34003  -0.33462
 Alpha  occ. eigenvalues --   -0.33053  -0.32810  -0.32291  -0.32177  -0.31875
 Alpha  occ. eigenvalues --   -0.30901  -0.30801  -0.29280  -0.29085  -0.27654
 Alpha  occ. eigenvalues --   -0.27189  -0.26706  -0.25898  -0.25756  -0.25290
 Alpha  occ. eigenvalues --   -0.25042  -0.24576  -0.24071  -0.23022  -0.18870
 Alpha virt. eigenvalues --   -0.10792  -0.06598  -0.05442  -0.04612  -0.00866
 Alpha virt. eigenvalues --    0.01014   0.01561   0.02554   0.02858   0.03164
 Alpha virt. eigenvalues --    0.04000   0.04286   0.04743   0.04915   0.05273

 Mulliken charges:
               1
     1  O   -0.212845
     2  O   -0.202641
     3  O   -0.222813
     4  O   -0.250991
     5  O   -0.305790
     6  O   -0.240796
     7  N    0.146977
     8  N   -0.260302
     9  N   -0.202503
    10  N   -0.287955
    11  C    0.028230
    12  C    0.259442
    13  C   -0.170072
    14  C   -0.171029
    15  C   -0.084752
    16  C   -0.000689
    17  C   -0.209006
    18  C    0.124217
    19  C   -0.069180
    20  C   -0.125553
    21  C    0.108311
    22  C    0.166392
    23  C   -0.080169
    24  C    0.078632
    25  C    0.042978
    26  C   -0.131092
    27  C   -0.096148
    28  C    0.043143
    29  C    0.032581
    30  C    0.084250
    31  C    0.011724
    32  C    0.178893
    33  C   -0.116001
    34  C    0.140606
    35  C    0.105502
    36  C   -0.025549
    37  C    0.221521
    38  C    0.028658
    39  C   -0.164894
    40  C    0.199399
    41  C    0.105040
    42  C   -0.043193
    43  C   -0.071912
    44  H    0.047799
    45  H    0.013678
    46  H   -0.019938
    47  H    0.035805
    48  H    0.158027
    49  H    0.025488
    50  H    0.022609
    51  H    0.028266
    52  H    0.018384
    53  H    0.029490
    54  H    0.048162
    55  H    0.028653
    56  H    0.031474
    57  H    0.050937
    58  H    0.109509
    59  H    0.011628
    60  H    0.178999
    61  H    0.047748
    62  H    0.019672
    63  H   -0.002288
    64  H    0.080382
    65  H    0.037825
    66  H    0.002378
    67  H    0.011542
    68  H    0.024490
    69  H    0.021644
    70  H    0.017817
    71  H    0.008495
    72  H    0.195587
    73  H   -0.061896
    74  H    0.054189
    75  H    0.048497
    76  H    0.052542
    77  H    0.192525
    78  H    0.032933
    79  H    0.036324
 Sum of Mulliken charges =  -0.00000

 Dipole moment (field-independent basis, Debye):
    X=              0.0665    Y=              0.9460    Z=              3.1697  Tot=              3.3085
 Quadrupole moment (field-independent basis, Debye-Ang):
   XX=           -218.9261   YY=           -255.0376   ZZ=           -261.9228
   XY=            -12.3867   XZ=             34.5900   YZ=              6.1649

 Normal termination of Gaussian 16 at Mon Oct  7 16:19:50 2019.
