 Gaussian 16, Revision A.03,
 Gaussian 16:  ES64L-G16RevA.03 25-Dec-2016

 --------------------------
 # td=(NStates=1) B3LYP/SVP
 --------------------------

 --
 TD
 --
 Symbolic Z-matrix:
 Charge =  0 Multiplicity = 1

                         Standard orientation:
 ---------------------------------------------------------------------
 Center     Atomic      Atomic             Coordinates (Angstroms)
 Number     Number       Type             X           Y           Z
 ---------------------------------------------------------------------
      1          8           0       -3.035510   -1.592528   -2.518209
      2          8           0        3.230383    3.560356    2.598891
      3          8           0        3.591517    2.133462    4.346530
      4          8           0        7.642747   -1.767755   -0.386485
      5          8           0        6.685483   -3.120761   -1.954998
      6          8           0       -2.626279    1.730638    1.294866
      7          7           0       -0.210373   -2.146315    1.263301
      8          7           0       -2.545754   -1.299783   -0.241877
      9          7           0        1.213001    0.103387   -0.669814
     10          7           0       -1.104868    1.491908   -0.370949
     11          6           0       -3.363739   -1.283846    0.913171
     12          6           0       -2.535529   -2.129017    2.024624
     13          6           0       -1.240119   -1.679491    2.159854
     14          6           0       -0.495690   -0.630936    2.911190
     15          6           0        0.782102   -0.719861    2.623501
     16          6           0        1.025859   -1.562907    1.503590
     17          6           0       -4.718480   -1.870493    0.492718
     18          6           0        1.920370    0.190325    3.233477
     19          6           0       -4.609553   -2.253993   -0.777332
     20          6           0        2.137816   -1.736683    0.629466
     21          6           0        2.181599   -0.850297   -0.379081
     22          6           0       -3.329273   -1.752805   -1.333261
     23          6           0        2.972196   -0.872210   -1.761017
     24          6           0       -1.229810    0.177085    3.986464
     25          6           0       -5.801047   -2.214284    1.555945
     26          6           0        2.455260    0.129750   -2.516335
     27          6           0        1.986297    1.574557    2.556849
     28          6           0        1.262758    0.664501   -1.904691
     29          6           0        4.087356   -1.760389   -1.951523
     30          6           0       -5.623908   -2.779411   -1.739613
     31          6           0        5.286589   -1.356862   -1.129406
     32          6           0        3.077212    0.508985   -3.839211
     33          6           0        0.372681    1.694665   -2.359459
     34          6           0        3.002343    2.426416    3.341765
     35          6           0       -0.677395    2.079275   -1.512634
     36          6           0       -6.631476   -3.691602   -1.399101
     37          6           0        6.580775   -2.200152   -1.220930
     38          6           0       -1.561444    3.255414   -1.740342
     39          6           0       -2.444336    3.227978   -0.630606
     40          6           0       -2.081895    2.083606    0.218287
     41          6           0       -1.405305    4.100470   -2.856996
     42          6           0       -3.676663    4.198528   -0.344303
     43          6           0       -2.220576    5.148473   -3.218440
     44          1           0       -3.385845   -0.455668    1.524010
     45          1           0       -2.382168   -3.149994    1.600739
     46          1           0       -3.182074   -2.367773    2.908719
     47          1           0       -0.633580   -2.553780    0.406709
     48          1           0       -1.906341   -0.728978   -0.404796
     49          1           0        1.451336    0.183962    4.322242
     50          1           0        2.893465   -0.295497    3.227786
     51          1           0        2.935405   -2.408719    0.674989
     52          1           0       -2.205881   -0.241126    4.354668
     53          1           0       -0.573635    0.662409    4.534115
     54          1           0       -1.803338    1.061774    3.448279
     55          1           0       -5.700422   -1.578176    2.354666
     56          1           0       -5.733472   -3.282573    2.024676
     57          1           0       -6.725693   -2.178809    0.963146
     58          1           0        2.006117    1.587625    1.518383
     59          1           0        1.036233    2.206178    2.636669
     60          1           0        0.527748    0.607236    0.007758
     61          1           0        4.505488   -1.753996   -2.945847
     62          1           0        3.920794   -2.797945   -1.740960
     63          1           0       -5.215575   -2.602540   -2.904837
     64          1           0        5.138463   -1.489673   -0.036422
     65          1           0        5.790048   -0.344908   -1.381280
     66          1           0        3.932356   -0.066274   -4.176647
     67          1           0        3.445473    1.583297   -3.743578
     68          1           0        2.476261    0.725449   -4.703505
     69          1           0        0.730670    2.156824   -3.226154
     70          1           0       -6.762805   -4.199955   -0.332514
     71          1           0       -7.423229   -3.783047   -2.169482
     72          1           0        3.685138    4.206309    3.035094
     73          1           0       -0.686235    3.813842   -3.521684
     74          1           0       -4.296138    4.331132   -1.366658
     75          1           0       -4.323693    3.776825    0.554056
     76          1           0       -3.192159    5.158029   -0.138457
     77          1           0        8.416673   -2.267036   -0.630972
     78          1           0       -2.141066    5.532050   -4.210805
     79          1           0       -2.898932    5.673098   -2.591213
 ---------------------------------------------------------------------

 SCF Done:  E(RB3LYP) =  -1947.81888420     A.U. after   21 cycles

 Excitation energies and oscillator strengths:

 Excited State   1:      Singlet-A      0.7209 eV 1719.93 nm  f=0.0001  <S**2>=0.000
     155 ->156         0.70470
 This state for optimization and/or second-order correction.
 Total Energy, E(TD-HF/TD-DFT) =  -1947.79239277
 Copying the excited state density for this state as the 1-particle RhoCI density.

 The electronic state is 1-A.
 Alpha  occ. eigenvalues --  -19.18545 -19.16918 -19.14592 -19.13037 -19.10626
 Alpha  occ. eigenvalues --  -19.09134 -14.38353 -14.36299 -14.32092 -14.29489
 Alpha  occ. eigenvalues --  -10.33525 -10.32104 -10.27752 -10.27171 -10.26597
 Alpha  occ. eigenvalues --  -10.26149 -10.25539 -10.23711 -10.23377 -10.23176
 Alpha  occ. eigenvalues --  -10.22335 -10.21954 -10.21794 -10.21618 -10.21491
 Alpha  occ. eigenvalues --  -10.21140 -10.20924 -10.20890 -10.20886 -10.20775
 Alpha  occ. eigenvalues --  -10.20441 -10.20228 -10.20192 -10.20116 -10.19886
 Alpha  occ. eigenvalues --  -10.19829 -10.19728 -10.19699 -10.19075 -10.18564
 Alpha  occ. eigenvalues --  -10.16901 -10.16846 -10.16815  -1.10204  -1.09159
 Alpha  occ. eigenvalues --   -1.02251  -1.01361  -1.01179  -1.00815  -0.99887
 Alpha  occ. eigenvalues --   -0.95022  -0.93825  -0.93000  -0.85126  -0.83530
 Alpha  occ. eigenvalues --   -0.81100  -0.80922  -0.80016  -0.79761  -0.78963
 Alpha  occ. eigenvalues --   -0.77084  -0.76087  -0.74322  -0.73766  -0.73201
 Alpha  occ. eigenvalues --   -0.70896  -0.70726  -0.70132  -0.69611  -0.67220
 Alpha  occ. eigenvalues --   -0.66667  -0.66211  -0.63973  -0.61786  -0.61307
 Alpha  occ. eigenvalues --   -0.60580  -0.60335  -0.59758  -0.57993  -0.57647
 Alpha  occ. eigenvalues --   -0.57106  -0.55544  -0.55099  -0.54028  -0.52885
 Alpha  occ. eigenvalues --   -0.52020  -0.51361  -0.50917  -0.50810  -0.49841
 Alpha  occ. eigenvalues --   -0.49639  -0.49445  -0.49148  -0.48820  -0.47501
 Alpha  occ. eigenvalues --   -0.47388  -0.47067  -0.46820  -0.46066  -0.45939
 Alpha  occ. eigenvalues --   -0.45478  -0.45160  -0.44888  -0.44393  -0.44044
 Alpha  occ. eigenvalues --   -0.43760  -0.43495  -0.43315  -0.42842  -0.42249
 Alpha  occ. eigenvalues --   -0.42124  -0.41852  -0.41482  -0.41189  -0.41042
 Alpha  occ. eigenvalues --   -0.40572  -0.40503  -0.40255  -0.39942  -0.39638
 Alpha  occ. eigenvalues --   -0.39439  -0.39329  -0.39049  -0.38912  -0.38813
 Alpha  occ. eigenvalues --   -0.38077  -0.37835  -0.36960  -0.36476  -0.36177
 Alpha  occ. eigenvalues --   -0.35697  -0.35547  -0.35324  -0.35183  -0.33987
 Alpha  occ. eigenvalues --   -0.33931  -0.33350  -0.32876  -0.32507  -0.31945
 Alpha  occ. eigenvalues --   -0.30755  -0.29664  -0.29286  -0.29000  -0.28454
 Alpha  occ. eigenvalues --   -0.27650  -0.26765  -0.25134  -0.24844  -0.24324
 Alpha  occ. eigenvalues --   -0.23463  -0.23169  -0.22857  -0.22138  -0.18034
 Alpha virt. eigenvalues --   -0.12884  -0.07668  -0.04905  -0.02026  -0.00288
 Alpha virt. eigenvalues --   -0.00002   0.00509   0.01085   0.02434   0.02928
 Alpha virt. eigenvalues --    0.04007   0.04668   0.04934   0.05586   0.05731

 Mulliken charges:
               1
     1  O   -0.245278
     2  O   -0.175021
     3  O   -0.194905
     4  O   -0.230945
     5  O   -0.183252
     6  O   -0.248496
     7  N   -0.123094
     8  N   -0.121966
     9  N   -0.125653
    10  N   -0.235734
    11  C    0.126128
    12  C    0.106082
    13  C   -0.068588
    14  C   -0.106443
    15  C   -0.143709
    16  C    0.058739
    17  C   -0.119955
    18  C    0.090859
    19  C   -0.087061
    20  C   -0.042836
    21  C    0.093931
    22  C    0.142458
    23  C   -0.074800
    24  C    0.169522
    25  C    0.086151
    26  C   -0.093555
    27  C    0.006419
    28  C    0.071269
    29  C    0.172931
    30  C   -0.058813
    31  C   -0.064811
    32  C    0.102125
    33  C   -0.044348
    34  C    0.149104
    35  C    0.140471
    36  C   -0.079893
    37  C    0.114503
    38  C    0.064685
    39  C   -0.206280
    40  C    0.130431
    41  C   -0.003118
    42  C    0.015135
    43  C   -0.001583
    44  H    0.005330
    45  H   -0.025449
    46  H    0.005092
    47  H    0.122714
    48  H    0.045543
    49  H    0.042324
    50  H    0.005782
    51  H   -0.022792
    52  H    0.003259
    53  H   -0.057489
    54  H    0.025946
    55  H   -0.000996
    56  H    0.046391
    57  H    0.038922
    58  H   -0.006590
    59  H    0.042085
    60  H    0.217694
    61  H   -0.000771
    62  H    0.016264
    63  H    0.075719
    64  H    0.046636
    65  H    0.059530
    66  H    0.019524
    67  H    0.017021
    68  H    0.016213
    69  H   -0.038002
    70  H    0.056523
    71  H    0.036801
    72  H    0.139210
    73  H   -0.054669
    74  H    0.053429
    75  H    0.062105
    76  H    0.038975
    77  H    0.176761
    78  H    0.015739
    79  H    0.014422
 Sum of Mulliken charges =  -0.00000

 Dipole moment (field-independent basis, Debye):
    X=              3.5289    Y=              2.2836    Z=             -2.4966  Tot=              4.8889
 Quadrupole moment (field-independent basis, Debye-Ang):
   XX=           -232.9090   YY=           -239.9843   ZZ=           -263.7003
   XY=              4.2533   XZ=            -23.5841   YZ=            -16.0886

 Normal termination of Gaussian 16 at Tue Jul 30 12:07:56 2019.
