 Gaussian 16, Revision A.03,
 Gaussian 16:  ES64L-G16RevA.03 25-Dec-2016

 --------------------------
 # td=(NStates=1) B3LYP/SVP
 --------------------------

 --
 TD
 --
 Symbolic Z-matrix:
 Charge =  0 Multiplicity = 1

                         Standard orientation:
 ---------------------------------------------------------------------
 Center     Atomic      Atomic             Coordinates (Angstroms)
 Number     Number       Type             X           Y           Z
 ---------------------------------------------------------------------
      1          8           0       -3.267216   -0.900432   -3.092350
      2          8           0        3.015313    2.577932    3.293090
      3          8           0        3.788674    0.686363    4.280994
      4          8           0        7.887607   -1.597460   -0.841544
      5          8           0        6.652080   -2.635337   -2.559467
      6          8           0       -2.699068    1.434702    1.555734
      7          7           0       -0.374382   -2.512279    0.568702
      8          7           0       -2.710761   -1.172279   -0.777622
      9          7           0        1.151661    0.151325   -0.591670
     10          7           0       -0.926220    1.536902   -0.034237
     11          6           0       -3.471957   -1.427789    0.472065
     12          6           0       -2.768627   -2.599064    1.292594
     13          6           0       -1.313990   -2.361724    1.550324
     14          6           0       -0.649085   -1.720903    2.643140
     15          6           0        0.661262   -1.579907    2.303919
     16          6           0        0.811891   -2.025231    1.009562
     17          6           0       -4.725168   -1.859305   -0.085804
     18          6           0        1.744257   -0.896096    3.160175
     19          6           0       -4.849385   -1.766215   -1.405081
     20          6           0        1.973522   -1.993750    0.106457
     21          6           0        2.115568   -0.883915   -0.674367
     22          6           0       -3.526677   -1.269301   -1.868840
     23          6           0        3.003189   -0.373870   -1.684566
     24          6           0       -1.404914   -1.188120    3.866456
     25          6           0       -5.877913   -2.130125    0.853497
     26          6           0        2.665584    0.856813   -2.185252
     27          6           0        1.824665    0.642188    2.884812
     28          6           0        1.441646    1.182535   -1.546748
     29          6           0        4.293444   -1.238405   -2.087100
     30          6           0       -5.933800   -2.052100   -2.311522
     31          6           0        5.565475   -0.880928   -1.231994
     32          6           0        3.261236    1.529487   -3.286721
     33          6           0        0.696004    2.371198   -1.683413
     34          6           0        3.007476    1.250927    3.579430
     35          6           0       -0.508386    2.503293   -0.868675
     36          6           0       -7.111171   -2.863641   -2.196944
     37          6           0        6.756490   -1.851879   -1.583257
     38          6           0       -1.357806    3.713083   -0.804294
     39          6           0       -2.259753    3.473781    0.252883
     40          6           0       -2.080181    2.083160    0.626261
     41          6           0       -1.000758    4.935954   -1.553576
     42          6           0       -3.369838    4.306005    0.804640
     43          6           0       -1.764524    6.086471   -1.535750
     44          1           0       -3.654380   -0.603471    1.232610
     45          1           0       -2.808051   -3.464442    0.623514
     46          1           0       -3.366558   -2.838982    2.279732
     47          1           0       -0.175159   -2.938725   -0.516151
     48          1           0       -1.927680   -0.469108   -0.839076
     49          1           0        1.321704   -1.078494    4.180975
     50          1           0        2.690479   -1.273404    3.045660
     51          1           0        2.720024   -2.781289    0.098690
     52          1           0       -2.313707   -1.822433    4.282410
     53          1           0       -0.777463   -0.866769    4.594773
     54          1           0       -1.906351   -0.228620    3.720644
     55          1           0       -5.930023   -1.520704    1.796153
     56          1           0       -5.786531   -3.161890    1.267944
     57          1           0       -6.904927   -1.932276    0.305559
     58          1           0        2.051915    0.773893    1.723151
     59          1           0        0.798893    1.149860    2.913618
     60          1           0        0.273245    0.189383   -0.149981
     61          1           0        4.462689   -1.099538   -3.215634
     62          1           0        4.102142   -2.251178   -1.982444
     63          1           0       -5.885263   -1.658344   -3.302446
     64          1           0        5.163004   -1.130795   -0.241089
     65          1           0        5.753715    0.075520   -1.152478
     66          1           0        4.014667    1.144465   -3.974020
     67          1           0        3.714975    2.342382   -2.914983
     68          1           0        2.503963    1.961750   -3.931816
     69          1           0        1.074958    3.281067   -2.244694
     70          1           0       -7.192415   -3.188279   -1.249057
     71          1           0       -7.859789   -3.340141   -3.033351
     72          1           0        3.750940    2.929476    3.920409
     73          1           0       -0.142542    4.829182   -2.204607
     74          1           0       -4.069162    4.484868    0.262546
     75          1           0       -3.700791    3.706595    1.705666
     76          1           0       -2.709280    5.272391    1.286057
     77          1           0        8.797859   -2.155173   -1.342802
     78          1           0       -1.485670    7.054811   -2.282350
     79          1           0       -2.687276    6.220825   -0.784884
 ---------------------------------------------------------------------

 SCF Done:  E(RB3LYP) =  -1947.79461420     A.U. after   20 cycles

 Excitation energies and oscillator strengths:

 Excited State   1:      Singlet-A      0.9242 eV 1341.47 nm  f=0.0002  <S**2>=0.000
     155 ->156         0.70287
 This state for optimization and/or second-order correction.
 Total Energy, E(TD-HF/TD-DFT) =  -1947.76064899
 Copying the excited state density for this state as the 1-particle RhoCI density.

 The electronic state is 1-A.
 Alpha  occ. eigenvalues --  -19.21187 -19.18036 -19.14269 -19.12780 -19.12775
 Alpha  occ. eigenvalues --  -19.07410 -14.37824 -14.36409 -14.33907 -14.31296
 Alpha  occ. eigenvalues --  -10.34339 -10.31377 -10.28793 -10.26787 -10.26624
 Alpha  occ. eigenvalues --  -10.25519 -10.25486 -10.23778 -10.22779 -10.22572
 Alpha  occ. eigenvalues --  -10.22501 -10.22449 -10.22437 -10.22299 -10.22144
 Alpha  occ. eigenvalues --  -10.21702 -10.21634 -10.21618 -10.20435 -10.20421
 Alpha  occ. eigenvalues --  -10.20130 -10.20054 -10.19920 -10.19842 -10.19839
 Alpha  occ. eigenvalues --  -10.19552 -10.19278 -10.19073 -10.18456 -10.18138
 Alpha  occ. eigenvalues --  -10.17480 -10.16862 -10.16375  -1.09189  -1.07399
 Alpha  occ. eigenvalues --   -1.00804  -1.00242  -0.99601  -0.98276  -0.97384
 Alpha  occ. eigenvalues --   -0.96789  -0.92967  -0.90747  -0.84188  -0.82275
 Alpha  occ. eigenvalues --   -0.81120  -0.80657  -0.79632  -0.78833  -0.78240
 Alpha  occ. eigenvalues --   -0.76888  -0.75656  -0.75166  -0.74373  -0.73273
 Alpha  occ. eigenvalues --   -0.70914  -0.70179  -0.69283  -0.68962  -0.67380
 Alpha  occ. eigenvalues --   -0.66264  -0.65768  -0.63715  -0.60982  -0.59708
 Alpha  occ. eigenvalues --   -0.59402  -0.59049  -0.58231  -0.56939  -0.56620
 Alpha  occ. eigenvalues --   -0.55865  -0.55452  -0.55220  -0.53486  -0.52973
 Alpha  occ. eigenvalues --   -0.51901  -0.51223  -0.50771  -0.49821  -0.49405
 Alpha  occ. eigenvalues --   -0.48989  -0.48487  -0.48382  -0.48124  -0.48071
 Alpha  occ. eigenvalues --   -0.47645  -0.47161  -0.46725  -0.46641  -0.45851
 Alpha  occ. eigenvalues --   -0.45712  -0.45064  -0.44694  -0.44092  -0.43605
 Alpha  occ. eigenvalues --   -0.43220  -0.42809  -0.42691  -0.42488  -0.42183
 Alpha  occ. eigenvalues --   -0.41663  -0.41034  -0.40702  -0.40576  -0.40384
 Alpha  occ. eigenvalues --   -0.40054  -0.39891  -0.39798  -0.39515  -0.39271
 Alpha  occ. eigenvalues --   -0.39236  -0.38864  -0.38337  -0.38104  -0.37667
 Alpha  occ. eigenvalues --   -0.36907  -0.36829  -0.36643  -0.36406  -0.36266
 Alpha  occ. eigenvalues --   -0.36002  -0.35525  -0.35288  -0.35150  -0.34599
 Alpha  occ. eigenvalues --   -0.33874  -0.33092  -0.32952  -0.32644  -0.32404
 Alpha  occ. eigenvalues --   -0.31918  -0.29478  -0.29314  -0.29265  -0.29149
 Alpha  occ. eigenvalues --   -0.28430  -0.26932  -0.26284  -0.24320  -0.23961
 Alpha  occ. eigenvalues --   -0.23478  -0.22501  -0.22431  -0.22039  -0.19077
 Alpha virt. eigenvalues --   -0.13279  -0.08501  -0.04640  -0.03243  -0.02369
 Alpha virt. eigenvalues --   -0.01461   0.00726   0.01074   0.01687   0.02605
 Alpha virt. eigenvalues --    0.02969   0.03949   0.04206   0.04405   0.04784

 Mulliken charges:
               1
     1  O   -0.325075
     2  O   -0.216894
     3  O   -0.206324
     4  O   -0.283895
     5  O   -0.260049
     6  O   -0.261367
     7  N   -0.101797
     8  N   -0.212232
     9  N   -0.135555
    10  N   -0.319398
    11  C    0.075454
    12  C    0.183311
    13  C   -0.091898
    14  C   -0.106467
    15  C   -0.093230
    16  C   -0.065005
    17  C   -0.166821
    18  C    0.194857
    19  C    0.062700
    20  C   -0.161895
    21  C    0.203459
    22  C    0.145453
    23  C   -0.138704
    24  C    0.124215
    25  C    0.031651
    26  C   -0.085723
    27  C   -0.105995
    28  C    0.137280
    29  C    0.103197
    30  C   -0.076233
    31  C    0.066072
    32  C    0.181757
    33  C   -0.114818
    34  C    0.159508
    35  C    0.076926
    36  C   -0.035657
    37  C    0.216439
    38  C    0.039529
    39  C   -0.207189
    40  C    0.217957
    41  C    0.009357
    42  C    0.144918
    43  C   -0.099693
    44  H    0.072512
    45  H   -0.029017
    46  H    0.017564
    47  H    0.190615
    48  H    0.156121
    49  H    0.012121
    50  H   -0.031288
    51  H    0.006009
    52  H    0.016344
    53  H   -0.047446
    54  H    0.012034
    55  H    0.020263
    56  H    0.030395
    57  H    0.049708
    58  H    0.054456
    59  H    0.060397
    60  H    0.156637
    61  H    0.029094
    62  H   -0.008602
    63  H   -0.000357
    64  H    0.029121
    65  H   -0.015457
    66  H    0.022326
    67  H   -0.022165
    68  H    0.017588
    69  H    0.014323
    70  H   -0.026153
    71  H    0.067413
    72  H    0.191688
    73  H   -0.006370
    74  H   -0.029754
    75  H    0.036706
    76  H    0.051872
    77  H    0.268050
    78  H    0.065930
    79  H    0.065192
 Sum of Mulliken charges =  -0.00000

 Dipole moment (field-independent basis, Debye):
    X=              4.6979    Y=              3.9855    Z=             -0.1936  Tot=              6.1637
 Quadrupole moment (field-independent basis, Debye-Ang):
   XX=           -226.4292   YY=           -229.2108   ZZ=           -272.7744
   XY=              5.0149   XZ=            -25.4762   YZ=             -8.9480

 Normal termination of Gaussian 16 at Sat Jul 27 15:33:31 2019.
