 Gaussian 16, Revision A.03,
 Gaussian 16:  ES64L-G16RevA.03 25-Dec-2016

 --------------------------
 # td=(NStates=1) B3LYP/SVP
 --------------------------

 --
 TD
 --
 Symbolic Z-matrix:
 Charge =  0 Multiplicity = 1

                         Standard orientation:
 ---------------------------------------------------------------------
 Center     Atomic      Atomic             Coordinates (Angstroms)
 Number     Number       Type             X           Y           Z
 ---------------------------------------------------------------------
      1          8           0        5.394385   -0.226518   -3.196350
      2          8           0       -3.325410   -2.612800    3.289422
      3          8           0       -3.486218   -0.428136    2.904644
      4          8           0       -1.135236    7.114278    1.470427
      5          8           0       -0.229550    6.878452   -0.605640
      6          8           0       -1.804912   -3.863783    0.139125
      7          7           0        2.350876    0.910768    0.616670
      8          7           0        4.348661   -0.763706   -1.269455
      9          7           0       -1.789412    0.717506   -0.356239
     10          7           0       -2.629051   -1.740189   -0.534820
     11          6           0        4.602587   -1.397461    0.023189
     12          6           0        4.272308   -0.545230    1.216203
     13          6           0        2.880242   -0.122205    1.323373
     14          6           0        1.855809   -0.709752    2.124065
     15          6           0        0.595013    0.032772    1.794125
     16          6           0        1.000398    1.035653    0.813362
     17          6           0        6.186367   -1.513252   -0.167453
     18          6           0       -0.666826   -0.148933    2.535561
     19          6           0        6.575466   -1.044460   -1.291845
     20          6           0        0.241212    1.972684    0.066097
     21          6           0       -1.084525    1.898493   -0.357622
     22          6           0        5.388563   -0.644953   -2.069968
     23          6           0       -1.878096    2.985738   -0.932681
     24          6           0        1.941052   -1.747201    3.111146
     25          6           0        6.857389   -2.139072    0.955004
     26          6           0       -3.066483    2.352371   -1.409977
     27          6           0       -1.339293   -1.531610    2.482028
     28          6           0       -2.949086    0.889368   -1.034228
     29          6           0       -1.421384    4.402782   -0.877286
     30          6           0        7.895733   -0.874606   -1.866160
     31          6           0       -1.332612    4.962071    0.477584
     32          6           0       -4.169715    3.089821   -2.019326
     33          6           0       -3.926300   -0.031205   -1.374332
     34          6           0       -2.817076   -1.461853    2.859614
     35          6           0       -3.689423   -1.407148   -1.151964
     36          6           0        9.145828   -1.073308   -1.358538
     37          6           0       -0.852596    6.459354    0.384170
     38          6           0       -4.576123   -2.518736   -1.474182
     39          6           0       -3.944173   -3.686791   -1.045002
     40          6           0       -2.653584   -3.189816   -0.426980
     41          6           0       -5.863096   -2.359775   -2.157387
     42          6           0       -4.356413   -5.075732   -1.053439
     43          6           0       -6.726083   -3.357067   -2.518893
     44          1           0        4.124498   -2.260411    0.190847
     45          1           0        4.957017    0.503223    1.032734
     46          1           0        4.605336   -0.967610    2.086636
     47          1           0        2.968314    1.618266    0.082582
     48          1           0        3.390288   -0.821686   -1.637222
     49          1           0       -0.573526    0.298466    3.676133
     50          1           0       -1.334020    0.617628    2.283555
     51          1           0        0.719649    2.926549   -0.237970
     52          1           0        3.082297   -1.822504    3.436471
     53          1           0        1.360992   -1.539544    4.061221
     54          1           0        1.741827   -2.722181    2.711519
     55          1           0        6.257570   -3.039568    1.232045
     56          1           0        7.276758   -1.572700    2.016443
     57          1           0        7.890012   -2.493360    0.811679
     58          1           0       -1.372390   -1.843051    1.388462
     59          1           0       -0.930318   -2.256767    3.116230
     60          1           0       -1.523628   -0.250286   -0.391984
     61          1           0       -1.971545    5.036074   -1.739274
     62          1           0       -0.445571    4.513202   -1.525281
     63          1           0        7.976631   -0.712759   -2.863242
     64          1           0       -0.658589    4.454017    1.014680
     65          1           0       -2.374499    4.864443    0.920471
     66          1           0       -4.041379    4.146355   -2.349844
     67          1           0       -4.999596    3.009654   -1.319438
     68          1           0       -4.355879    2.558921   -3.028775
     69          1           0       -4.753120    0.244291   -2.010563
     70          1           0        9.452622   -1.180892   -0.397725
     71          1           0       10.116483   -0.815649   -1.958865
     72          1           0       -4.275065   -2.425574    3.469589
     73          1           0       -6.246893   -1.277146   -2.147412
     74          1           0       -5.185750   -5.444130   -0.428563
     75          1           0       -4.533134   -5.557272   -1.975197
     76          1           0       -3.567991   -5.692777   -0.641716
     77          1           0       -0.556413    7.764595    1.394123
     78          1           0       -7.647498   -3.177179   -2.836741
     79          1           0       -6.595985   -4.450883   -2.111269
 ---------------------------------------------------------------------

 SCF Done:  E(RB3LYP) =  -1947.88649254     A.U. after   16 cycles

 Excitation energies and oscillator strengths:

 Excited State   1:      Singlet-A      1.9670 eV  630.32 nm  f=0.4192  <S**2>=0.000
     155 ->156         0.70322
     155 <-156        -0.11168
 This state for optimization and/or second-order correction.
 Total Energy, E(TD-HF/TD-DFT) =  -1947.81420625
 Copying the excited state density for this state as the 1-particle RhoCI density.

 The electronic state is 1-A.
 Alpha  occ. eigenvalues --  -19.20740 -19.17324 -19.13983 -19.11229 -19.10351
 Alpha  occ. eigenvalues --  -19.09321 -14.39009 -14.36012 -14.35485 -14.28796
 Alpha  occ. eigenvalues --  -10.33714 -10.30193 -10.27636 -10.27168 -10.24421
 Alpha  occ. eigenvalues --  -10.24183 -10.23679 -10.23246 -10.22888 -10.22134
 Alpha  occ. eigenvalues --  -10.21861 -10.21828 -10.21476 -10.21419 -10.21272
 Alpha  occ. eigenvalues --  -10.21148 -10.21134 -10.20868 -10.20860 -10.20289
 Alpha  occ. eigenvalues --  -10.20217 -10.20109 -10.19792 -10.19703 -10.19660
 Alpha  occ. eigenvalues --  -10.19593 -10.19518 -10.19393 -10.19038 -10.19001
 Alpha  occ. eigenvalues --  -10.18375 -10.18264 -10.18103  -1.15370  -1.08700
 Alpha  occ. eigenvalues --   -1.03588  -1.01759  -1.01668  -0.98597  -0.98190
 Alpha  occ. eigenvalues --   -0.97692  -0.95160  -0.93303  -0.83206  -0.83026
 Alpha  occ. eigenvalues --   -0.81878  -0.80750  -0.80471  -0.79734  -0.78360
 Alpha  occ. eigenvalues --   -0.77134  -0.76180  -0.75736  -0.74777  -0.72715
 Alpha  occ. eigenvalues --   -0.71973  -0.70897  -0.70444  -0.69214  -0.68678
 Alpha  occ. eigenvalues --   -0.66828  -0.66273  -0.64052  -0.62700  -0.62154
 Alpha  occ. eigenvalues --   -0.60583  -0.59238  -0.58860  -0.58033  -0.56562
 Alpha  occ. eigenvalues --   -0.56016  -0.55202  -0.55048  -0.54776  -0.53727
 Alpha  occ. eigenvalues --   -0.53285  -0.52538  -0.51935  -0.51652  -0.50751
 Alpha  occ. eigenvalues --   -0.49507  -0.49075  -0.48883  -0.48443  -0.47609
 Alpha  occ. eigenvalues --   -0.47216  -0.46707  -0.46266  -0.46133  -0.45887
 Alpha  occ. eigenvalues --   -0.45468  -0.45303  -0.44781  -0.44352  -0.44002
 Alpha  occ. eigenvalues --   -0.43726  -0.43437  -0.43127  -0.42926  -0.42526
 Alpha  occ. eigenvalues --   -0.42307  -0.42165  -0.41924  -0.41560  -0.41198
 Alpha  occ. eigenvalues --   -0.40925  -0.40793  -0.40722  -0.40360  -0.40063
 Alpha  occ. eigenvalues --   -0.39813  -0.39541  -0.39379  -0.38842  -0.38679
 Alpha  occ. eigenvalues --   -0.38322  -0.37580  -0.37301  -0.36888  -0.36534
 Alpha  occ. eigenvalues --   -0.36349  -0.35177  -0.35073  -0.34456  -0.34060
 Alpha  occ. eigenvalues --   -0.33864  -0.33443  -0.32645  -0.32066  -0.31204
 Alpha  occ. eigenvalues --   -0.30685  -0.30255  -0.29425  -0.28570  -0.28308
 Alpha  occ. eigenvalues --   -0.27027  -0.25977  -0.25450  -0.25246  -0.24766
 Alpha  occ. eigenvalues --   -0.24262  -0.23826  -0.23468  -0.22392  -0.18310
 Alpha virt. eigenvalues --   -0.10590  -0.06625  -0.05723  -0.01206  -0.00901
 Alpha virt. eigenvalues --    0.00793   0.01570   0.02111   0.02730   0.03362
 Alpha virt. eigenvalues --    0.03835   0.04296   0.05140   0.05472   0.05951

 Mulliken charges:
               1
     1  O   -0.204707
     2  O   -0.164103
     3  O   -0.266633
     4  O   -0.041970
     5  O   -0.256796
     6  O   -0.200064
     7  N   -0.067317
     8  N   -0.142859
     9  N   -0.004268
    10  N   -0.299164
    11  C    0.138872
    12  C    0.161404
    13  C   -0.078544
    14  C   -0.135521
    15  C   -0.094061
    16  C    0.083043
    17  C   -0.152071
    18  C    0.063475
    19  C    0.054920
    20  C   -0.082806
    21  C    0.027264
    22  C    0.088847
    23  C   -0.033420
    24  C    0.074698
    25  C    0.001069
    26  C   -0.156029
    27  C    0.060820
    28  C    0.108381
    29  C   -0.023072
    30  C    0.035859
    31  C    0.094688
    32  C    0.071453
    33  C   -0.127972
    34  C    0.094793
    35  C    0.075881
    36  C   -0.052658
    37  C    0.109284
    38  C    0.030311
    39  C   -0.163312
    40  C    0.166883
    41  C   -0.050194
    42  C    0.105826
    43  C    0.002179
    44  H   -0.026284
    45  H    0.002709
    46  H   -0.028085
    47  H    0.151956
    48  H    0.129925
    49  H    0.014056
    50  H   -0.021313
    51  H   -0.013092
    52  H   -0.002155
    53  H    0.039920
    54  H    0.032218
    55  H    0.031012
    56  H    0.054536
    57  H    0.010622
    58  H    0.090507
    59  H    0.003667
    60  H    0.141114
    61  H    0.018475
    62  H    0.038523
    63  H   -0.023927
    64  H    0.002433
    65  H    0.049530
    66  H    0.023080
    67  H    0.038533
    68  H    0.034185
    69  H   -0.033448
    70  H   -0.020719
    71  H    0.035712
    72  H    0.181140
    73  H    0.022157
    74  H    0.023597
    75  H    0.010504
    76  H   -0.003081
    77  H    0.118400
    78  H   -0.016137
    79  H    0.037319
 Sum of Mulliken charges =  -0.00000

 Dipole moment (field-independent basis, Debye):
    X=              0.1350    Y=              1.6050    Z=              3.4368  Tot=              3.7955
 Quadrupole moment (field-independent basis, Debye-Ang):
   XX=           -223.7570   YY=           -239.3548   ZZ=           -264.6473
   XY=             -3.4279   XZ=             32.6188   YZ=              5.2694

 Normal termination of Gaussian 16 at Thu Oct 10 09:15:01 2019.
