 Gaussian 16, Revision A.03,
 Gaussian 16:  ES64L-G16RevA.03 25-Dec-2016

 --------------------------
 # td=(NStates=1) B3LYP/SVP
 --------------------------

 --
 TD
 --
 Symbolic Z-matrix:
 Charge =  0 Multiplicity = 1

                         Standard orientation:
 ---------------------------------------------------------------------
 Center     Atomic      Atomic             Coordinates (Angstroms)
 Number     Number       Type             X           Y           Z
 ---------------------------------------------------------------------
      1          8           0       -3.051728   -1.606284   -2.698079
      2          8           0        2.833144    3.488599    2.833562
      3          8           0        3.563845    1.953795    4.295352
      4          8           0        7.699598   -1.703680   -0.511936
      5          8           0        6.663475   -3.039798   -2.005858
      6          8           0       -2.646955    1.818253    1.257931
      7          7           0       -0.237103   -2.254084    1.277313
      8          7           0       -2.581645   -1.262771   -0.446217
      9          7           0        1.162639   -0.012640   -0.797416
     10          7           0       -1.156840    1.330790   -0.427027
     11          6           0       -3.330753   -1.289554    0.782765
     12          6           0       -2.668286   -2.232289    1.972437
     13          6           0       -1.210488   -1.840938    2.185503
     14          6           0       -0.503326   -0.934208    3.110072
     15          6           0        0.794961   -0.865255    2.593820
     16          6           0        0.973137   -1.707881    1.483106
     17          6           0       -4.672731   -1.905335    0.383998
     18          6           0        1.866981    0.068651    3.243804
     19          6           0       -4.727116   -2.091853   -0.948308
     20          6           0        2.054544   -1.904470    0.444483
     21          6           0        2.026146   -0.973361   -0.512889
     22          6           0       -3.466372   -1.556872   -1.534352
     23          6           0        2.986470   -0.817931   -1.620426
     24          6           0       -1.232529   -0.183531    4.050457
     25          6           0       -5.789761   -2.076276    1.367451
     26          6           0        2.533622    0.154671   -2.499741
     27          6           0        1.822374    1.481361    2.622000
     28          6           0        1.352076    0.721939   -1.934082
     29          6           0        4.173233   -1.738423   -1.792790
     30          6           0       -5.701344   -2.703963   -1.867321
     31          6           0        5.445320   -1.153516   -1.019649
     32          6           0        3.166604    0.625601   -3.820495
     33          6           0        0.456032    1.745158   -2.229581
     34          6           0        2.851552    2.304351    3.376991
     35          6           0       -0.602479    2.086193   -1.467194
     36          6           0       -6.766878   -3.409020   -1.599318
     37          6           0        6.589842   -2.112809   -1.205918
     38          6           0       -1.473935    3.254338   -1.650057
     39          6           0       -2.300331    3.339460   -0.545057
     40          6           0       -2.039374    2.050413    0.191168
     41          6           0       -1.194865    4.323356   -2.659570
     42          6           0       -3.402361    4.302002   -0.105595
     43          6           0       -1.946697    5.419444   -2.868711
     44          1           0       -3.476278   -0.316964    1.183293
     45          1           0       -2.710739   -3.211457    1.703005
     46          1           0       -3.106030   -2.126386    2.816477
     47          1           0       -0.396144   -2.700847    0.432029
     48          1           0       -1.886325   -0.540045   -0.607270
     49          1           0        1.538235    0.184490    4.340270
     50          1           0        2.792881   -0.426698    3.102011
     51          1           0        2.735935   -2.786607    0.578892
     52          1           0       -2.015792   -0.660620    4.655305
     53          1           0       -0.564945    0.224409    4.800589
     54          1           0       -1.774733    0.689706    3.616832
     55          1           0       -5.612840   -1.499196    2.386105
     56          1           0       -5.756083   -3.110131    1.813551
     57          1           0       -6.773755   -1.811931    0.777851
     58          1           0        1.948710    1.508825    1.601872
     59          1           0        0.969969    2.033744    2.541387
     60          1           0        0.348475    0.329551   -0.176392
     61          1           0        4.343420   -1.920024   -2.952239
     62          1           0        3.881350   -2.707211   -1.186533
     63          1           0       -5.347339   -2.314591   -2.858880
     64          1           0        5.538567   -0.738866    0.196489
     65          1           0        5.583196   -0.150154   -1.711111
     66          1           0        4.015254   -0.221249   -4.207258
     67          1           0        3.586375    1.633197   -3.499782
     68          1           0        2.403861    0.832008   -4.633807
     69          1           0        0.637605    2.321571   -3.135807
     70          1           0       -7.168501   -3.514808   -0.511464
     71          1           0       -7.208059   -4.071681   -2.447956
     72          1           0        3.544706    4.138755    3.225282
     73          1           0       -0.465229    4.161352   -3.509391
     74          1           0       -4.125905    4.335664   -0.881136
     75          1           0       -3.883857    3.790856    0.806249
     76          1           0       -2.990315    5.333270   -0.031890
     77          1           0        8.371560   -2.370485   -0.505870
     78          1           0       -1.496473    5.931382   -3.798222
     79          1           0       -2.660757    5.578311   -2.098856
 ---------------------------------------------------------------------

 SCF Done:  E(RB3LYP) =  -1947.86153690     A.U. after   27 cycles

 Excitation energies and oscillator strengths:

 Excited State   1:      Singlet-A      0.8215 eV 1509.18 nm  f=0.0085  <S**2>=0.000
     155 ->156         0.70522
 This state for optimization and/or second-order correction.
 Total Energy, E(TD-HF/TD-DFT) =  -1947.83134602
 Copying the excited state density for this state as the 1-particle RhoCI density.

 The electronic state is 1-A.
 Alpha  occ. eigenvalues --  -19.18732 -19.18676 -19.14098 -19.11737 -19.10763
 Alpha  occ. eigenvalues --  -19.08482 -14.37881 -14.36016 -14.31750 -14.30509
 Alpha  occ. eigenvalues --  -10.33721 -10.31074 -10.27581 -10.26802 -10.26528
 Alpha  occ. eigenvalues --  -10.25747 -10.25668 -10.25557 -10.24411 -10.24228
 Alpha  occ. eigenvalues --  -10.23725 -10.23210 -10.23143 -10.21604 -10.21413
 Alpha  occ. eigenvalues --  -10.21152 -10.21080 -10.20898 -10.20866 -10.20548
 Alpha  occ. eigenvalues --  -10.20309 -10.20208 -10.20016 -10.20008 -10.18973
 Alpha  occ. eigenvalues --  -10.18665 -10.18452 -10.18094 -10.18064 -10.18029
 Alpha  occ. eigenvalues --  -10.16976 -10.16557 -10.16515  -1.09996  -1.09884
 Alpha  occ. eigenvalues --   -1.02023  -1.01336  -1.01082  -0.99944  -0.99564
 Alpha  occ. eigenvalues --   -0.96826  -0.93857  -0.90737  -0.84261  -0.83345
 Alpha  occ. eigenvalues --   -0.81135  -0.80330  -0.80059  -0.79415  -0.78423
 Alpha  occ. eigenvalues --   -0.77145  -0.76257  -0.75762  -0.74632  -0.73019
 Alpha  occ. eigenvalues --   -0.71283  -0.70787  -0.69700  -0.69589  -0.68088
 Alpha  occ. eigenvalues --   -0.66840  -0.65849  -0.63638  -0.61745  -0.61248
 Alpha  occ. eigenvalues --   -0.60311  -0.59612  -0.58692  -0.57335  -0.56060
 Alpha  occ. eigenvalues --   -0.55880  -0.55522  -0.55386  -0.53878  -0.53291
 Alpha  occ. eigenvalues --   -0.51464  -0.51159  -0.50095  -0.49913  -0.49784
 Alpha  occ. eigenvalues --   -0.49335  -0.48875  -0.48638  -0.48558  -0.47651
 Alpha  occ. eigenvalues --   -0.47400  -0.47265  -0.46847  -0.46520  -0.45740
 Alpha  occ. eigenvalues --   -0.45023  -0.44832  -0.44575  -0.44279  -0.43462
 Alpha  occ. eigenvalues --   -0.43097  -0.42919  -0.42416  -0.42069  -0.41862
 Alpha  occ. eigenvalues --   -0.41649  -0.41398  -0.41308  -0.41021  -0.40701
 Alpha  occ. eigenvalues --   -0.40615  -0.40445  -0.39904  -0.39689  -0.39565
 Alpha  occ. eigenvalues --   -0.39273  -0.39163  -0.38828  -0.38361  -0.38304
 Alpha  occ. eigenvalues --   -0.37847  -0.37741  -0.37249  -0.37142  -0.36770
 Alpha  occ. eigenvalues --   -0.36014  -0.35657  -0.35597  -0.35029  -0.34904
 Alpha  occ. eigenvalues --   -0.33920  -0.33303  -0.32950  -0.32323  -0.32019
 Alpha  occ. eigenvalues --   -0.30939  -0.29625  -0.29498  -0.29251  -0.28332
 Alpha  occ. eigenvalues --   -0.27758  -0.27226  -0.25118  -0.24248  -0.23775
 Alpha  occ. eigenvalues --   -0.23754  -0.23110  -0.22726  -0.22336  -0.18732
 Alpha virt. eigenvalues --   -0.13344  -0.07241  -0.04192  -0.03602  -0.01579
 Alpha virt. eigenvalues --    0.01411   0.01744   0.01920   0.02422   0.02672
 Alpha virt. eigenvalues --    0.03115   0.04201   0.04367   0.04972   0.05149

 Mulliken charges:
               1
     1  O   -0.256903
     2  O   -0.186990
     3  O   -0.233204
     4  O   -0.189512
     5  O   -0.229343
     6  O   -0.253955
     7  N   -0.006615
     8  N   -0.225403
     9  N   -0.085761
    10  N   -0.284159
    11  C    0.108040
    12  C    0.388915
    13  C   -0.166395
    14  C   -0.067246
    15  C   -0.164231
    16  C   -0.073571
    17  C   -0.194204
    18  C    0.160346
    19  C   -0.078827
    20  C   -0.177027
    21  C    0.220220
    22  C    0.150915
    23  C   -0.091952
    24  C    0.087721
    25  C    0.020201
    26  C   -0.108022
    27  C    0.052447
    28  C    0.117975
    29  C    0.016427
    30  C    0.044086
    31  C   -0.129467
    32  C    0.017376
    33  C   -0.095046
    34  C    0.129110
    35  C    0.135112
    36  C   -0.085698
    37  C    0.174936
    38  C    0.053882
    39  C   -0.220760
    40  C    0.140110
    41  C   -0.082840
    42  C    0.097844
    43  C    0.013828
    44  H    0.025150
    45  H   -0.054803
    46  H   -0.088544
    47  H    0.085084
    48  H    0.134964
    49  H    0.025379
    50  H   -0.011067
    51  H    0.047464
    52  H   -0.004110
    53  H   -0.025692
    54  H    0.037745
    55  H    0.033411
    56  H    0.035323
    57  H    0.071325
    58  H   -0.027895
    59  H   -0.007242
    60  H    0.201390
    61  H    0.076135
    62  H    0.044975
    63  H    0.016172
    64  H    0.100725
    65  H    0.080174
    66  H    0.059833
    67  H    0.051619
    68  H    0.053970
    69  H   -0.021821
    70  H    0.032015
    71  H    0.043628
    72  H    0.206473
    73  H    0.001930
    74  H    0.027520
    75  H    0.056697
    76  H    0.044763
    77  H    0.174598
    78  H    0.047097
    79  H   -0.016744
 Sum of Mulliken charges =  -0.00000

 Dipole moment (field-independent basis, Debye):
    X=              4.0074    Y=              2.7796    Z=             -1.2833  Tot=              5.0430
 Quadrupole moment (field-independent basis, Debye-Ang):
   XX=           -237.0401   YY=           -238.5261   ZZ=           -268.4531
   XY=              4.3459   XZ=            -19.7979   YZ=            -17.6326

 Normal termination of Gaussian 16 at Tue Jul 30 13:38:52 2019.
