 Gaussian 16, Revision A.03,
 Gaussian 16:  ES64L-G16RevA.03 25-Dec-2016

 --------------------------
 # td=(NStates=1) B3LYP/SVP
 --------------------------

 --
 TD
 --
 Symbolic Z-matrix:
 Charge =  0 Multiplicity = 1

                         Standard orientation:
 ---------------------------------------------------------------------
 Center     Atomic      Atomic             Coordinates (Angstroms)
 Number     Number       Type             X           Y           Z
 ---------------------------------------------------------------------
      1          8           0        5.370039   -0.084882   -3.288602
      2          8           0       -2.745114   -3.057998    3.083875
      3          8           0       -3.258405   -0.936564    2.776152
      4          8           0       -2.511743    7.283409    1.326287
      5          8           0       -1.500146    7.099794   -0.713564
      6          8           0       -1.362859   -4.015772    0.188667
      7          7           0        2.224793    1.176081    0.640283
      8          7           0        4.352398   -0.279417   -1.246894
      9          7           0       -1.920995    0.632603   -0.394154
     10          7           0       -2.334997   -1.977158   -0.580512
     11          6           0        4.745483   -0.901684    0.030181
     12          6           0        4.395626   -0.030991    1.231667
     13          6           0        2.959022    0.209541    1.362261
     14          6           0        2.069080   -0.323120    2.166582
     15          6           0        0.679330    0.133763    1.957049
     16          6           0        0.917781    1.052918    0.853126
     17          6           0        6.300064   -1.111296   -0.164759
     18          6           0       -0.546226   -0.094633    2.664809
     19          6           0        6.703605   -0.680318   -1.403191
     20          6           0       -0.015086    2.060978    0.263322
     21          6           0       -1.225542    1.801181   -0.261901
     22          6           0        5.396232   -0.344262   -2.125868
     23          6           0       -2.194801    2.864683   -0.901747
     24          6           0        2.345092   -1.511417    3.135426
     25          6           0        7.161111   -1.666220    1.013170
     26          6           0       -3.199366    2.148856   -1.351179
     27          6           0       -0.990539   -1.502294    2.694420
     28          6           0       -3.078753    0.718908   -1.097995
     29          6           0       -1.947856    4.278432   -0.896158
     30          6           0        8.005470   -0.436262   -2.011086
     31          6           0       -2.097385    4.990634    0.484181
     32          6           0       -4.501742    2.663897   -2.011808
     33          6           0       -3.895043   -0.363531   -1.385445
     34          6           0       -2.458896   -1.820396    2.867825
     35          6           0       -3.423398   -1.721740   -1.140156
     36          6           0        9.227731   -0.287216   -1.454125
     37          6           0       -1.882198    6.530884    0.239980
     38          6           0       -4.325116   -3.040446   -1.396781
     39          6           0       -3.461104   -4.020112   -0.902874
     40          6           0       -2.258548   -3.485292   -0.415789
     41          6           0       -5.505715   -2.963633   -2.201452
     42          6           0       -3.715535   -5.532332   -0.981214
     43          6           0       -6.365451   -4.043828   -2.372267
     44          1           0        4.207425   -1.932886   -0.185263
     45          1           0        5.004160    0.857940    0.950477
     46          1           0        4.746492   -0.317166    2.249696
     47          1           0        2.842295    1.503692   -0.299782
     48          1           0        3.538517   -0.400300   -1.917265
     49          1           0       -0.268250    0.098273    3.643998
     50          1           0       -1.284219    0.422559    2.324341
     51          1           0        0.256051    3.007304    0.148152
     52          1           0        3.374946   -1.493623    3.365204
     53          1           0        1.847603   -1.176075    4.063732
     54          1           0        2.116202   -2.543823    2.574938
     55          1           0        6.689040   -2.450769    1.488657
     56          1           0        7.397692   -0.650364    1.540583
     57          1           0        8.082878   -2.192331    0.714503
     58          1           0       -0.944496   -1.993290    1.674273
     59          1           0       -0.442692   -2.330513    3.392785
     60          1           0       -1.253688   -0.292039   -0.332820
     61          1           0       -2.653508    4.728867   -1.579979
     62          1           0       -1.119941    4.478970   -1.356391
     63          1           0        7.936937   -0.359641   -2.885694
     64          1           0       -1.258648    4.567470    1.293953
     65          1           0       -3.277911    5.015718    1.002865
     66          1           0       -4.293924    3.677501   -2.114982
     67          1           0       -5.441546    2.601287   -1.288291
     68          1           0       -4.526254    2.259170   -3.159793
     69          1           0       -4.921055   -0.378583   -2.057827
     70          1           0        9.353796   -0.225722   -0.363330
     71          1           0       10.018498    0.180580   -2.111942
     72          1           0       -3.618909   -3.108240    3.102945
     73          1           0       -5.819242   -1.924789   -2.602486
     74          1           0       -4.504235   -5.755070   -0.358024
     75          1           0       -3.934649   -5.808011   -1.942480
     76          1           0       -2.987922   -5.986567   -0.516689
     77          1           0       -2.523559    8.223430    1.176292
     78          1           0       -7.242282   -3.905323   -2.701921
     79          1           0       -6.182133   -5.008192   -1.775243
 ---------------------------------------------------------------------

 SCF Done:  E(RB3LYP) =  -1947.70362715     A.U. after   16 cycles

 Excitation energies and oscillator strengths:

 Excited State   1:      Singlet-A      1.8622 eV  665.80 nm  f=0.2124  <S**2>=0.000
     155 ->156         0.70441
 This state for optimization and/or second-order correction.
 Total Energy, E(TD-HF/TD-DFT) =  -1947.63519305
 Copying the excited state density for this state as the 1-particle RhoCI density.

 The electronic state is 1-A.
 Alpha  occ. eigenvalues --  -19.17227 -19.15898 -19.14876 -19.12315 -19.10031
 Alpha  occ. eigenvalues --  -19.09622 -14.37169 -14.36058 -14.35930 -14.29279
 Alpha  occ. eigenvalues --  -10.33219 -10.29464 -10.28019 -10.27573 -10.26349
 Alpha  occ. eigenvalues --  -10.25071 -10.24420 -10.23216 -10.23053 -10.22784
 Alpha  occ. eigenvalues --  -10.22673 -10.22022 -10.21941 -10.21872 -10.21285
 Alpha  occ. eigenvalues --  -10.20935 -10.20619 -10.20450 -10.20325 -10.20221
 Alpha  occ. eigenvalues --  -10.20207 -10.20068 -10.19995 -10.19944 -10.19837
 Alpha  occ. eigenvalues --  -10.19298 -10.18885 -10.18497 -10.18371 -10.18060
 Alpha  occ. eigenvalues --  -10.17284 -10.17023 -10.16332  -1.12362  -1.09135
 Alpha  occ. eigenvalues --   -1.04209  -1.03532  -1.00135  -0.99880  -0.97752
 Alpha  occ. eigenvalues --   -0.96886  -0.94290  -0.92588  -0.83243  -0.81970
 Alpha  occ. eigenvalues --   -0.81515  -0.81257  -0.80817  -0.79574  -0.77541
 Alpha  occ. eigenvalues --   -0.77081  -0.76406  -0.75375  -0.74250  -0.71423
 Alpha  occ. eigenvalues --   -0.71310  -0.70729  -0.70367  -0.68444  -0.67883
 Alpha  occ. eigenvalues --   -0.67236  -0.66621  -0.64393  -0.62046  -0.61442
 Alpha  occ. eigenvalues --   -0.60510  -0.58481  -0.58053  -0.57121  -0.56492
 Alpha  occ. eigenvalues --   -0.55687  -0.55197  -0.54565  -0.53787  -0.52375
 Alpha  occ. eigenvalues --   -0.52134  -0.51186  -0.50114  -0.49930  -0.48899
 Alpha  occ. eigenvalues --   -0.48661  -0.48447  -0.47988  -0.47795  -0.47561
 Alpha  occ. eigenvalues --   -0.47261  -0.47109  -0.46685  -0.45971  -0.45681
 Alpha  occ. eigenvalues --   -0.45540  -0.44938  -0.44891  -0.44758  -0.44322
 Alpha  occ. eigenvalues --   -0.43896  -0.43431  -0.42886  -0.42681  -0.42609
 Alpha  occ. eigenvalues --   -0.42286  -0.42149  -0.41737  -0.41392  -0.41339
 Alpha  occ. eigenvalues --   -0.40921  -0.40782  -0.40573  -0.40073  -0.39879
 Alpha  occ. eigenvalues --   -0.39466  -0.38946  -0.38898  -0.38506  -0.38139
 Alpha  occ. eigenvalues --   -0.37863  -0.37263  -0.37188  -0.36990  -0.36622
 Alpha  occ. eigenvalues --   -0.36378  -0.35582  -0.35421  -0.35241  -0.34557
 Alpha  occ. eigenvalues --   -0.34056  -0.33408  -0.32315  -0.32034  -0.31956
 Alpha  occ. eigenvalues --   -0.31799  -0.30689  -0.29265  -0.28818  -0.28521
 Alpha  occ. eigenvalues --   -0.27096  -0.26493  -0.25607  -0.25296  -0.24272
 Alpha  occ. eigenvalues --   -0.24161  -0.23860  -0.23337  -0.22146  -0.18803
 Alpha virt. eigenvalues --   -0.10836  -0.06242  -0.05556  -0.01303  -0.00711
 Alpha virt. eigenvalues --    0.00957   0.01708   0.02874   0.03076   0.03670
 Alpha virt. eigenvalues --    0.04185   0.04335   0.04430   0.05283   0.05443

 Mulliken charges:
               1
     1  O   -0.203849
     2  O   -0.054233
     3  O   -0.233839
     4  O   -0.276450
     5  O   -0.162674
     6  O   -0.165615
     7  N   -0.128983
     8  N   -0.234131
     9  N   -0.110252
    10  N   -0.263781
    11  C    0.089401
    12  C    0.190673
    13  C   -0.051953
    14  C   -0.211924
    15  C   -0.156986
    16  C    0.003593
    17  C   -0.247612
    18  C    0.431081
    19  C   -0.003032
    20  C   -0.028950
    21  C    0.051161
    22  C    0.083654
    23  C   -0.080894
    24  C    0.123096
    25  C    0.094935
    26  C   -0.164949
    27  C   -0.125395
    28  C    0.164705
    29  C    0.223463
    30  C    0.135817
    31  C   -0.139601
    32  C    0.103873
    33  C   -0.136667
    34  C    0.056222
    35  C   -0.023988
    36  C   -0.020553
    37  C    0.179898
    38  C    0.058979
    39  C   -0.252317
    40  C    0.169285
    41  C   -0.081697
    42  C    0.285266
    43  C    0.053055
    44  H    0.041692
    45  H   -0.006197
    46  H    0.025748
    47  H    0.170239
    48  H    0.153150
    49  H   -0.026582
    50  H   -0.079028
    51  H   -0.082306
    52  H   -0.042720
    53  H    0.014618
    54  H    0.066688
    55  H    0.008717
    56  H    0.065208
    57  H    0.028877
    58  H    0.057609
    59  H    0.036310
    60  H    0.210586
    61  H   -0.013721
    62  H   -0.034506
    63  H   -0.145560
    64  H    0.090462
    65  H    0.096297
    66  H   -0.035519
    67  H    0.061370
    68  H    0.047935
    69  H    0.021369
    70  H    0.014218
    71  H    0.041561
    72  H    0.114915
    73  H    0.032160
    74  H   -0.012248
    75  H    0.011658
    76  H   -0.048657
    77  H    0.169721
    78  H   -0.033967
    79  H    0.042071
 Sum of Mulliken charges =  -0.00000

 Dipole moment (field-independent basis, Debye):
    X=             -1.1408    Y=              0.0479    Z=              1.3140  Tot=              1.7408
 Quadrupole moment (field-independent basis, Debye-Ang):
   XX=           -217.5493   YY=           -242.2712   ZZ=           -263.3038
   XY=              4.0112   XZ=             31.5633   YZ=              2.8542

 Normal termination of Gaussian 16 at Sun Sep 29 20:27:46 2019.
