 Gaussian 16, Revision A.03,
 Gaussian 16:  ES64L-G16RevA.03 25-Dec-2016

 --------------------------
 # td=(NStates=1) B3LYP/SVP
 --------------------------

 --
 TD
 --
 Symbolic Z-matrix:
 Charge =  0 Multiplicity = 1

                         Standard orientation:
 ---------------------------------------------------------------------
 Center     Atomic      Atomic             Coordinates (Angstroms)
 Number     Number       Type             X           Y           Z
 ---------------------------------------------------------------------
      1          8           0        5.180028    0.170942   -3.262785
      2          8           0       -2.941282   -3.126690    3.189722
      3          8           0       -3.270799   -0.976004    3.280973
      4          8           0       -1.948849    7.163089    1.591489
      5          8           0       -0.900042    7.000238   -0.429040
      6          8           0       -1.558899   -3.875797    0.168237
      7          7           0        2.283505    1.047979    0.689746
      8          7           0        4.303628   -0.438759   -1.148314
      9          7           0       -1.871808    0.748899   -0.385642
     10          7           0       -2.429344   -1.936975   -0.589935
     11          6           0        4.677859   -1.140942    0.057952
     12          6           0        4.364063   -0.156848    1.204380
     13          6           0        2.958004    0.044415    1.401226
     14          6           0        1.874106   -0.623294    2.082402
     15          6           0        0.676322   -0.010181    1.864273
     16          6           0        0.917043    1.061966    0.947409
     17          6           0        6.217916   -1.247246   -0.196854
     18          6           0       -0.601940   -0.364658    2.606806
     19          6           0        6.553479   -0.828683   -1.455774
     20          6           0        0.096844    2.068986    0.344221
     21          6           0       -1.107170    1.832898   -0.334509
     22          6           0        5.196755   -0.324267   -2.120995
     23          6           0       -2.033778    2.910867   -0.889588
     24          6           0        2.257262   -1.811781    3.105331
     25          6           0        7.147201   -1.862340    0.774561
     26          6           0       -3.205372    2.309318   -1.284280
     27          6           0       -1.059561   -1.874671    2.529237
     28          6           0       -3.022523    0.905803   -1.026558
     29          6           0       -1.682185    4.442038   -0.901257
     30          6           0        7.842005   -0.541170   -2.093915
     31          6           0       -1.773738    5.011856    0.511378
     32          6           0       -4.361303    2.955582   -1.972774
     33          6           0       -3.771052   -0.114400   -1.586553
     34          6           0       -2.529036   -1.928964    3.058175
     35          6           0       -3.479817   -1.551908   -1.189716
     36          6           0        9.031365   -0.542665   -1.573907
     37          6           0       -1.435886    6.447858    0.468487
     38          6           0       -4.365181   -2.756788   -1.673136
     39          6           0       -3.599624   -3.799765   -1.091778
     40          6           0       -2.377550   -3.256967   -0.514359
     41          6           0       -5.636927   -2.567885   -2.359310
     42          6           0       -3.957095   -5.239310   -1.145188
     43          6           0       -6.569222   -3.523387   -2.633993
     44          1           0        4.132269   -2.083720    0.275998
     45          1           0        4.795093    0.858643    1.186540
     46          1           0        4.773905   -0.632996    2.213171
     47          1           0        2.758440    1.519450   -0.020074
     48          1           0        3.288234   -0.638952   -1.340912
     49          1           0       -0.518240   -0.118161    3.652660
     50          1           0       -1.346802    0.205972    2.302701
     51          1           0        0.629288    3.038106    0.282811
     52          1           0        3.406058   -1.819738    3.419746
     53          1           0        1.597200   -1.761396    4.229448
     54          1           0        2.003327   -2.725938    2.522377
     55          1           0        6.592168   -2.661023    1.593527
     56          1           0        7.589787   -1.024509    1.415892
     57          1           0        7.978757   -2.754939    0.383931
     58          1           0       -0.898832   -2.413524    1.487966
     59          1           0       -0.367678   -2.599207    3.052533
     60          1           0       -1.662558   -0.246596   -0.100820
     61          1           0       -2.189105    4.954722   -1.781618
     62          1           0       -0.655078    4.336902   -1.078659
     63          1           0        7.710970   -0.363365   -3.106655
     64          1           0       -1.013559    4.534638    1.336592
     65          1           0       -2.798574    4.912336    0.834272
     66          1           0       -4.364206    4.047256   -2.348108
     67          1           0       -5.109149    2.780505   -1.251494
     68          1           0       -4.652588    2.362915   -2.979838
     69          1           0       -4.616247    0.108766   -2.121024
     70          1           0        9.184731   -0.704934   -0.728026
     71          1           0        9.878961   -0.472136   -2.474776
     72          1           0       -3.961243   -3.074347    3.294204
     73          1           0       -5.824783   -1.387111   -2.640981
     74          1           0       -4.951459   -5.247280   -0.742313
     75          1           0       -3.822856   -5.654938   -2.134557
     76          1           0       -3.424266   -5.877708   -0.232752
     77          1           0       -1.953242    8.191407    1.361300
     78          1           0       -7.584301   -3.355628   -3.108082
     79          1           0       -6.535121   -4.568511   -2.393107
 ---------------------------------------------------------------------

 SCF Done:  E(RB3LYP) =  -1947.79237157     A.U. after   17 cycles

 Excitation energies and oscillator strengths:

 Excited State   1:      Singlet-A      1.9105 eV  648.97 nm  f=0.3830  <S**2>=0.000
     155 ->156         0.70389
     155 <-156        -0.10861
 This state for optimization and/or second-order correction.
 Total Energy, E(TD-HF/TD-DFT) =  -1947.72216279
 Copying the excited state density for this state as the 1-particle RhoCI density.

 The electronic state is 1-A.
 Alpha  occ. eigenvalues --  -19.17889 -19.17310 -19.13744 -19.10954 -19.10481
 Alpha  occ. eigenvalues --  -19.10306 -14.37950 -14.37036 -14.36838 -14.29516
 Alpha  occ. eigenvalues --  -10.32171 -10.30335 -10.29330 -10.26675 -10.26160
 Alpha  occ. eigenvalues --  -10.24856 -10.24825 -10.24506 -10.23790 -10.22888
 Alpha  occ. eigenvalues --  -10.22874 -10.22630 -10.22391 -10.22362 -10.22248
 Alpha  occ. eigenvalues --  -10.22246 -10.21953 -10.21505 -10.21446 -10.21326
 Alpha  occ. eigenvalues --  -10.21171 -10.20856 -10.20620 -10.20350 -10.20217
 Alpha  occ. eigenvalues --  -10.19518 -10.19354 -10.19349 -10.19088 -10.18952
 Alpha  occ. eigenvalues --  -10.18760 -10.18133 -10.17575  -1.10540  -1.08588
 Alpha  occ. eigenvalues --   -1.02498  -1.01876  -1.00568  -0.99449  -0.97997
 Alpha  occ. eigenvalues --   -0.97960  -0.95525  -0.94724  -0.82494  -0.82222
 Alpha  occ. eigenvalues --   -0.82044  -0.80619  -0.80556  -0.80414  -0.78384
 Alpha  occ. eigenvalues --   -0.77305  -0.76197  -0.75173  -0.74918  -0.72014
 Alpha  occ. eigenvalues --   -0.70878  -0.69788  -0.69203  -0.68469  -0.67903
 Alpha  occ. eigenvalues --   -0.66753  -0.66682  -0.64489  -0.62467  -0.61318
 Alpha  occ. eigenvalues --   -0.60508  -0.59372  -0.58064  -0.57997  -0.57280
 Alpha  occ. eigenvalues --   -0.56289  -0.55391  -0.54679  -0.53974  -0.53818
 Alpha  occ. eigenvalues --   -0.53426  -0.52448  -0.51077  -0.50408  -0.49767
 Alpha  occ. eigenvalues --   -0.49140  -0.48538  -0.47912  -0.47778  -0.47271
 Alpha  occ. eigenvalues --   -0.47230  -0.46718  -0.46484  -0.46152  -0.45980
 Alpha  occ. eigenvalues --   -0.45701  -0.45456  -0.44874  -0.44529  -0.44044
 Alpha  occ. eigenvalues --   -0.43735  -0.43274  -0.43120  -0.42971  -0.42619
 Alpha  occ. eigenvalues --   -0.42404  -0.42067  -0.41808  -0.41176  -0.41072
 Alpha  occ. eigenvalues --   -0.40916  -0.40758  -0.40364  -0.40085  -0.39660
 Alpha  occ. eigenvalues --   -0.39224  -0.38952  -0.38587  -0.37946  -0.37280
 Alpha  occ. eigenvalues --   -0.37042  -0.36935  -0.36754  -0.36391  -0.36082
 Alpha  occ. eigenvalues --   -0.35859  -0.35329  -0.34853  -0.34476  -0.34111
 Alpha  occ. eigenvalues --   -0.34006  -0.33218  -0.32272  -0.32198  -0.31968
 Alpha  occ. eigenvalues --   -0.31558  -0.30411  -0.29321  -0.28924  -0.27798
 Alpha  occ. eigenvalues --   -0.27597  -0.26522  -0.25977  -0.25540  -0.25163
 Alpha  occ. eigenvalues --   -0.24693  -0.24302  -0.23697  -0.22824  -0.18929
 Alpha virt. eigenvalues --   -0.11405  -0.06976  -0.05701  -0.01507  -0.00684
 Alpha virt. eigenvalues --    0.00774   0.00894   0.02122   0.02425   0.03022
 Alpha virt. eigenvalues --    0.03610   0.04103   0.04524   0.04681   0.05043

 Mulliken charges:
               1
     1  O   -0.245297
     2  O   -0.131144
     3  O   -0.274213
     4  O   -0.296043
     5  O   -0.183675
     6  O   -0.215081
     7  N   -0.074499
     8  N   -0.167022
     9  N   -0.014830
    10  N   -0.156272
    11  C    0.094364
    12  C    0.152736
    13  C   -0.121311
    14  C   -0.106004
    15  C   -0.087120
    16  C    0.025054
    17  C   -0.130023
    18  C    0.224806
    19  C   -0.049976
    20  C   -0.128369
    21  C    0.116612
    22  C    0.155022
    23  C   -0.183072
    24  C   -0.037259
    25  C   -0.074195
    26  C   -0.094659
    27  C   -0.115211
    28  C    0.076443
    29  C    0.166953
    30  C    0.017173
    31  C   -0.020588
    32  C    0.045414
    33  C   -0.036981
    34  C    0.127558
    35  C   -0.000875
    36  C    0.134790
    37  C    0.140946
    38  C    0.035998
    39  C   -0.225473
    40  C    0.132114
    41  C   -0.031461
    42  C    0.069450
    43  C   -0.059035
    44  H    0.038341
    45  H    0.009041
    46  H    0.019784
    47  H    0.091992
    48  H    0.148228
    49  H   -0.001211
    50  H   -0.055481
    51  H    0.010532
    52  H    0.033984
    53  H    0.055083
    54  H    0.053568
    55  H    0.031576
    56  H    0.062274
    57  H    0.076653
    58  H    0.091781
    59  H    0.018138
    60  H    0.168729
    61  H    0.041146
    62  H   -0.013303
    63  H   -0.020318
    64  H    0.085562
    65  H    0.034970
    66  H    0.040301
    67  H    0.024674
    68  H    0.044996
    69  H   -0.070139
    70  H   -0.145889
    71  H    0.051056
    72  H    0.199431
    73  H    0.044086
    74  H    0.015987
    75  H    0.046699
    76  H    0.037947
    77  H    0.216729
    78  H    0.036159
    79  H    0.021151
 Sum of Mulliken charges =  -0.00000

 Dipole moment (field-independent basis, Debye):
    X=             -1.3588    Y=              0.5451    Z=              1.5350  Tot=              2.1212
 Quadrupole moment (field-independent basis, Debye-Ang):
   XX=           -221.1943   YY=           -243.5829   ZZ=           -269.1299
   XY=             -9.4388   XZ=             34.1575   YZ=              2.8599

 Normal termination of Gaussian 16 at Mon Oct  7 06:48:38 2019.
