 Gaussian 16, Revision A.03,
 Gaussian 16:  ES64L-G16RevA.03 25-Dec-2016

 --------------------------
 # td=(NStates=1) B3LYP/SVP
 --------------------------

 --
 TD
 --
 Symbolic Z-matrix:
 Charge =  0 Multiplicity = 1

                         Standard orientation:
 ---------------------------------------------------------------------
 Center     Atomic      Atomic             Coordinates (Angstroms)
 Number     Number       Type             X           Y           Z
 ---------------------------------------------------------------------
      1          8           0       -3.302688   -1.232066   -2.891942
      2          8           0        3.297692    3.160465    3.078793
      3          8           0        3.382470    1.479232    4.618521
      4          8           0        7.832479   -1.474344   -0.726229
      5          8           0        6.722210   -2.979777   -1.917488
      6          8           0       -2.631142    1.588291    1.443159
      7          7           0       -0.299381   -2.344134    0.847203
      8          7           0       -2.674733   -1.248843   -0.550841
      9          7           0        1.062017   -0.017741   -0.859179
     10          7           0       -1.040406    1.467118   -0.193224
     11          6           0       -3.413257   -1.338639    0.732022
     12          6           0       -2.667064   -2.405333    1.675830
     13          6           0       -1.199913   -2.016491    1.738135
     14          6           0       -0.567604   -1.130556    2.732012
     15          6           0        0.817239   -1.145360    2.440944
     16          6           0        0.974430   -1.940344    1.203067
     17          6           0       -4.786775   -1.847208    0.282431
     18          6           0        1.896759   -0.374819    3.031350
     19          6           0       -4.874690   -1.963065   -1.045096
     20          6           0        2.072732   -1.941331    0.280379
     21          6           0        2.154288   -0.991808   -0.709720
     22          6           0       -3.543818   -1.492354   -1.669103
     23          6           0        3.022408   -0.737684   -1.796795
     24          6           0       -1.183279   -0.406124    3.857031
     25          6           0       -5.690371   -2.295613    1.415808
     26          6           0        2.630188    0.378733   -2.468613
     27          6           0        1.840695    1.254585    2.816011
     28          6           0        1.429251    0.894078   -1.827649
     29          6           0        4.252339   -1.607625   -2.013315
     30          6           0       -5.879749   -2.481584   -1.926160
     31          6           0        5.449610   -1.162325   -1.142722
     32          6           0        3.163414    1.028117   -3.705147
     33          6           0        0.636626    1.936345   -2.075022
     34          6           0        2.953941    1.913151    3.629068
     35          6           0       -0.653043    2.262690   -1.247263
     36          6           0       -7.032124   -3.181663   -1.635107
     37          6           0        6.746912   -1.934843   -1.274593
     38          6           0       -1.539412    3.415192   -1.334290
     39          6           0       -2.414138    3.336991   -0.280778
     40          6           0       -2.113130    2.043182    0.402232
     41          6           0       -1.256565    4.629592   -2.340399
     42          6           0       -3.482295    4.366222    0.180140
     43          6           0       -1.843763    5.842129   -2.102259
     44          1           0       -3.510425   -0.461061    1.318077
     45          1           0       -2.750460   -3.298734    1.158241
     46          1           0       -2.976666   -2.417676    2.522763
     47          1           0       -0.382327   -2.710630    0.017588
     48          1           0       -2.015272   -0.329570   -0.697108
     49          1           0        1.757162   -0.454271    4.080771
     50          1           0        2.984504   -1.002521    2.419476
     51          1           0        2.819174   -2.730795    0.233530
     52          1           0       -1.991494   -1.165260    4.084906
     53          1           0       -0.530090   -0.139080    4.704304
     54          1           0       -1.758623    0.488907    3.416954
     55          1           0       -5.708941   -1.613276    2.334567
     56          1           0       -5.550955   -3.286215    1.846350
     57          1           0       -6.767312   -2.271933    0.983952
     58          1           0        2.081330    1.430236    1.710859
     59          1           0        0.952141    1.779549    3.038404
     60          1           0        0.333074    0.063816   -0.128278
     61          1           0        4.489538   -1.504617   -3.026498
     62          1           0        3.866980   -2.635471   -1.841951
     63          1           0       -5.739267   -2.128150   -3.048646
     64          1           0        5.053578   -1.261021   -0.110212
     65          1           0        5.948124   -0.054968   -1.294871
     66          1           0        4.240668    0.531288   -3.968861
     67          1           0        3.526985    2.311729   -3.625751
     68          1           0        2.587944    1.080836   -4.617806
     69          1           0        0.597436    2.555425   -2.904992
     70          1           0       -7.181902   -3.501848   -0.657862
     71          1           0       -7.723686   -3.473461   -2.354847
     72          1           0        3.996208    3.557735    3.760977
     73          1           0       -0.827126    4.193149   -3.369811
     74          1           0       -4.067374    4.321225   -0.948653
     75          1           0       -4.057828    3.611038    0.870361
     76          1           0       -3.076566    5.164085    0.651264
     77          1           0        8.593263   -2.134505   -0.811387
     78          1           0       -1.807032    6.440654   -2.958024
     79          1           0       -2.544464    6.278765   -1.268584
 ---------------------------------------------------------------------

 SCF Done:  E(RB3LYP) =  -1947.75731669     A.U. after   19 cycles

 Excitation energies and oscillator strengths:

 Excited State   1:      Singlet-A      0.7857 eV 1577.94 nm  f=0.0010  <S**2>=0.000
     155 ->156         0.70394
 This state for optimization and/or second-order correction.
 Total Energy, E(TD-HF/TD-DFT) =  -1947.72844145
 Copying the excited state density for this state as the 1-particle RhoCI density.

 The electronic state is 1-A.
 Alpha  occ. eigenvalues --  -19.20403 -19.17326 -19.12935 -19.12926 -19.11878
 Alpha  occ. eigenvalues --  -19.09507 -14.36436 -14.36310 -14.33612 -14.30889
 Alpha  occ. eigenvalues --  -10.32567 -10.31076 -10.28484 -10.27928 -10.26603
 Alpha  occ. eigenvalues --  -10.25787 -10.24717 -10.23907 -10.23841 -10.23337
 Alpha  occ. eigenvalues --  -10.22855 -10.22450 -10.21961 -10.21945 -10.21851
 Alpha  occ. eigenvalues --  -10.21842 -10.21779 -10.21625 -10.21614 -10.20893
 Alpha  occ. eigenvalues --  -10.20830 -10.20677 -10.20471 -10.20463 -10.20101
 Alpha  occ. eigenvalues --  -10.20020 -10.19712 -10.19179 -10.17906 -10.17815
 Alpha  occ. eigenvalues --  -10.17625 -10.17046 -10.16792  -1.11712  -1.08815
 Alpha  occ. eigenvalues --   -1.02669  -1.00235  -0.99972  -0.98531  -0.98039
 Alpha  occ. eigenvalues --   -0.97417  -0.93549  -0.90149  -0.83820  -0.82033
 Alpha  occ. eigenvalues --   -0.80382  -0.79988  -0.79866  -0.78473  -0.78148
 Alpha  occ. eigenvalues --   -0.76344  -0.75572  -0.75012  -0.73930  -0.72682
 Alpha  occ. eigenvalues --   -0.70829  -0.70131  -0.69545  -0.69402  -0.67793
 Alpha  occ. eigenvalues --   -0.66714  -0.65696  -0.63978  -0.62303  -0.60504
 Alpha  occ. eigenvalues --   -0.59620  -0.59318  -0.57972  -0.56965  -0.55984
 Alpha  occ. eigenvalues --   -0.55792  -0.55073  -0.54776  -0.53290  -0.52591
 Alpha  occ. eigenvalues --   -0.51884  -0.51262  -0.50460  -0.49855  -0.49781
 Alpha  occ. eigenvalues --   -0.49097  -0.48626  -0.48187  -0.47863  -0.47544
 Alpha  occ. eigenvalues --   -0.47258  -0.46933  -0.46846  -0.46262  -0.45771
 Alpha  occ. eigenvalues --   -0.44991  -0.44913  -0.44555  -0.44025  -0.43914
 Alpha  occ. eigenvalues --   -0.43763  -0.43378  -0.43023  -0.42782  -0.42472
 Alpha  occ. eigenvalues --   -0.41955  -0.41468  -0.40995  -0.40928  -0.40639
 Alpha  occ. eigenvalues --   -0.40471  -0.40296  -0.39816  -0.39744  -0.39301
 Alpha  occ. eigenvalues --   -0.39114  -0.38602  -0.38248  -0.37758  -0.37509
 Alpha  occ. eigenvalues --   -0.37232  -0.36850  -0.36670  -0.36465  -0.35822
 Alpha  occ. eigenvalues --   -0.35717  -0.35574  -0.35406  -0.34818  -0.34612
 Alpha  occ. eigenvalues --   -0.34457  -0.32630  -0.32575  -0.32311  -0.31168
 Alpha  occ. eigenvalues --   -0.30718  -0.30420  -0.29348  -0.28456  -0.28039
 Alpha  occ. eigenvalues --   -0.27506  -0.26991  -0.26482  -0.25327  -0.24364
 Alpha  occ. eigenvalues --   -0.23878  -0.22885  -0.22279  -0.22014  -0.18294
 Alpha virt. eigenvalues --   -0.12971  -0.07955  -0.04856  -0.03010   0.00005
 Alpha virt. eigenvalues --    0.00997   0.01544   0.01663   0.02028   0.02209
 Alpha virt. eigenvalues --    0.03007   0.03820   0.03978   0.04624   0.04751

 Mulliken charges:
               1
     1  O   -0.281742
     2  O   -0.272448
     3  O   -0.167621
     4  O   -0.157128
     5  O   -0.257851
     6  O   -0.223511
     7  N    0.090996
     8  N   -0.305306
     9  N   -0.173520
    10  N   -0.295686
    11  C    0.044034
    12  C    0.467401
    13  C   -0.193488
    14  C   -0.137869
    15  C   -0.074395
    16  C   -0.051322
    17  C   -0.133964
    18  C    0.044227
    19  C   -0.020842
    20  C   -0.128822
    21  C    0.119767
    22  C    0.195890
    23  C   -0.110334
    24  C    0.067585
    25  C    0.030413
    26  C   -0.034885
    27  C   -0.004720
    28  C    0.242057
    29  C    0.188668
    30  C   -0.071329
    31  C   -0.040938
    32  C   -0.050135
    33  C   -0.071006
    34  C    0.129716
    35  C    0.021556
    36  C    0.018727
    37  C    0.115522
    38  C   -0.013078
    39  C   -0.236659
    40  C    0.176747
    41  C   -0.033151
    42  C    0.042985
    43  C   -0.027962
    44  H    0.031891
    45  H   -0.056731
    46  H   -0.131735
    47  H    0.051634
    48  H    0.193856
    49  H    0.004820
    50  H    0.034239
    51  H   -0.001462
    52  H    0.003400
    53  H    0.017804
    54  H    0.052439
    55  H    0.026899
    56  H    0.040086
    57  H    0.037304
    58  H    0.036988
    59  H    0.041921
    60  H    0.196961
    61  H   -0.014881
    62  H    0.032232
    63  H    0.035152
    64  H    0.047251
    65  H    0.058954
    66  H    0.042278
    67  H    0.046179
    68  H    0.051531
    69  H   -0.055816
    70  H   -0.011116
    71  H    0.008742
    72  H    0.204380
    73  H    0.065617
    74  H    0.082930
    75  H    0.054157
    76  H    0.041886
    77  H    0.216317
    78  H    0.014966
    79  H    0.072346
 Sum of Mulliken charges =  -0.00000

 Dipole moment (field-independent basis, Debye):
    X=              2.7549    Y=              3.3791    Z=             -0.7695  Tot=              4.4271
 Quadrupole moment (field-independent basis, Debye-Ang):
   XX=           -226.5428   YY=           -236.7717   ZZ=           -266.0578
   XY=              2.8125   XZ=            -17.4332   YZ=            -14.2205

 Normal termination of Gaussian 16 at Fri Jul 26 13:33:57 2019.
