 Gaussian 16, Revision A.03,
 Gaussian 16:  ES64L-G16RevA.03 25-Dec-2016

 --------------------------
 # td=(NStates=1) B3LYP/SVP
 --------------------------

 --
 TD
 --
 Symbolic Z-matrix:
 Charge =  0 Multiplicity = 1

                         Standard orientation:
 ---------------------------------------------------------------------
 Center     Atomic      Atomic             Coordinates (Angstroms)
 Number     Number       Type             X           Y           Z
 ---------------------------------------------------------------------
      1          8           0       -3.497604   -0.678348   -3.075301
      2          8           0        3.050619    2.399942    3.820878
      3          8           0        4.089656    0.293660    4.236067
      4          8           0        7.736831   -1.157809   -0.948065
      5          8           0        6.769300   -2.548719   -2.443015
      6          8           0       -2.657657    1.270627    1.651760
      7          7           0       -0.259140   -2.529854    0.362656
      8          7           0       -2.650575   -1.094673   -0.933951
      9          7           0        1.145059    0.180047   -0.759392
     10          7           0       -0.954272    1.413808    0.048963
     11          6           0       -3.292428   -1.428848    0.299654
     12          6           0       -2.687433   -2.655545    1.115072
     13          6           0       -1.182069   -2.370140    1.401373
     14          6           0       -0.594963   -1.787737    2.539974
     15          6           0        0.763981   -1.644889    2.222632
     16          6           0        0.966357   -1.994595    0.813179
     17          6           0       -4.715748   -1.800247    0.049009
     18          6           0        1.877431   -1.032027    3.060153
     19          6           0       -4.881872   -1.706833   -1.365205
     20          6           0        2.042299   -1.971008   -0.045483
     21          6           0        2.141089   -0.767544   -0.796348
     22          6           0       -3.666884   -1.061620   -1.950036
     23          6           0        2.985543   -0.390558   -1.917210
     24          6           0       -1.369472   -1.287350    3.774989
     25          6           0       -5.757489   -2.265815    1.026062
     26          6           0        2.567083    0.909987   -2.400562
     27          6           0        1.817610    0.510174    3.008983
     28          6           0        1.318831    1.273094   -1.564000
     29          6           0        4.270145   -1.102463   -2.329382
     30          6           0       -6.040981   -1.828162   -2.257187
     31          6           0        5.387580   -0.721973   -1.384026
     32          6           0        3.112796    1.796120   -3.556499
     33          6           0        0.591737    2.354233   -1.663498
     34          6           0        3.141887    1.032474    3.762952
     35          6           0       -0.600637    2.370805   -0.807098
     36          6           0       -7.139127   -2.628000   -2.130024
     37          6           0        6.635716   -1.613993   -1.698086
     38          6           0       -1.437578    3.605987   -0.547235
     39          6           0       -2.224748    3.307413    0.429103
     40          6           0       -1.971707    1.865925    0.808137
     41          6           0       -1.230725    4.857095   -1.370878
     42          6           0       -3.391981    4.083389    1.171656
     43          6           0       -1.922470    6.005300   -1.177653
     44          1           0       -3.385591   -0.446126    0.988782
     45          1           0       -2.813037   -3.596998    0.691640
     46          1           0       -3.159107   -2.682213    2.266550
     47          1           0       -0.364155   -2.842729   -0.592337
     48          1           0       -1.807592   -0.284019   -1.027304
     49          1           0        1.813372   -1.399588    4.082650
     50          1           0        2.838296   -1.370144    2.623295
     51          1           0        2.884138   -2.642518   -0.339107
     52          1           0       -2.106268   -1.969808    4.173061
     53          1           0       -0.608774   -1.197831    4.486233
     54          1           0       -1.726929   -0.349508    3.584721
     55          1           0       -5.573610   -1.858180    2.010769
     56          1           0       -5.463371   -3.353156    0.908942
     57          1           0       -6.873628   -2.155453    0.654447
     58          1           0        1.646924    1.040833    1.933655
     59          1           0        0.885352    1.032208    3.691755
     60          1           0        0.121321    0.060839   -0.199841
     61          1           0        4.522765   -0.833136   -3.393288
     62          1           0        4.020202   -2.285150   -2.392438
     63          1           0       -5.968483   -1.466926   -3.250379
     64          1           0        5.194900   -0.810519   -0.263695
     65          1           0        5.705848    0.381725   -1.457790
     66          1           0        4.102946    1.339243   -4.088498
     67          1           0        3.455755    2.775067   -3.178679
     68          1           0        2.387112    1.931970   -4.274774
     69          1           0        0.556264    3.228699   -2.244243
     70          1           0       -7.208634   -3.096305   -1.392860
     71          1           0       -7.655495   -2.655240   -3.060944
     72          1           0        3.904419    2.680413    4.355701
     73          1           0       -0.470338    4.924603   -2.327425
     74          1           0       -4.210044    4.426058    0.508982
     75          1           0       -4.002147    3.218574    1.783870
     76          1           0       -3.039322    4.856585    1.964640
     77          1           0        8.667126   -1.637870   -1.255231
     78          1           0       -1.686760    6.745138   -1.764513
     79          1           0       -2.550761    6.395449   -0.307966
 ---------------------------------------------------------------------

 SCF Done:  E(RB3LYP) =  -1947.77684858     A.U. after   18 cycles

 Excitation energies and oscillator strengths:

 Excited State   1:      Singlet-A      0.9747 eV 1272.09 nm  f=0.0004  <S**2>=0.000
     155 ->156         0.70149
 This state for optimization and/or second-order correction.
 Total Energy, E(TD-HF/TD-DFT) =  -1947.74103077
 Copying the excited state density for this state as the 1-particle RhoCI density.

 The electronic state is 1-A.
 Alpha  occ. eigenvalues --  -19.19760 -19.17819 -19.14096 -19.13295 -19.13228
 Alpha  occ. eigenvalues --  -19.08306 -14.36958 -14.36885 -14.33373 -14.32501
 Alpha  occ. eigenvalues --  -10.33092 -10.33084 -10.29116 -10.26537 -10.26460
 Alpha  occ. eigenvalues --  -10.26188 -10.25044 -10.23564 -10.23500 -10.23471
 Alpha  occ. eigenvalues --  -10.22960 -10.22892 -10.22817 -10.22654 -10.22263
 Alpha  occ. eigenvalues --  -10.22077 -10.21664 -10.21387 -10.21313 -10.20990
 Alpha  occ. eigenvalues --  -10.20896 -10.20885 -10.20710 -10.20677 -10.20555
 Alpha  occ. eigenvalues --  -10.20234 -10.18935 -10.18132 -10.17857 -10.17645
 Alpha  occ. eigenvalues --  -10.17196 -10.16749 -10.15314  -1.07966  -1.07285
 Alpha  occ. eigenvalues --   -1.03619  -1.00982  -0.99046  -0.98582  -0.97643
 Alpha  occ. eigenvalues --   -0.95853  -0.95184  -0.90836  -0.83431  -0.82000
 Alpha  occ. eigenvalues --   -0.81727  -0.79657  -0.79505  -0.78696  -0.77433
 Alpha  occ. eigenvalues --   -0.76295  -0.76116  -0.75257  -0.73483  -0.72231
 Alpha  occ. eigenvalues --   -0.70319  -0.69908  -0.69615  -0.67903  -0.67018
 Alpha  occ. eigenvalues --   -0.66082  -0.64956  -0.63197  -0.61203  -0.60537
 Alpha  occ. eigenvalues --   -0.58735  -0.58101  -0.57829  -0.56461  -0.55993
 Alpha  occ. eigenvalues --   -0.55655  -0.55336  -0.54057  -0.53695  -0.52841
 Alpha  occ. eigenvalues --   -0.52468  -0.50796  -0.50731  -0.49466  -0.48950
 Alpha  occ. eigenvalues --   -0.48605  -0.48216  -0.48003  -0.47624  -0.46950
 Alpha  occ. eigenvalues --   -0.46826  -0.46638  -0.45852  -0.45526  -0.45379
 Alpha  occ. eigenvalues --   -0.45148  -0.44820  -0.44594  -0.44371  -0.43963
 Alpha  occ. eigenvalues --   -0.43403  -0.43293  -0.42788  -0.42620  -0.42192
 Alpha  occ. eigenvalues --   -0.41772  -0.41424  -0.41085  -0.40893  -0.40828
 Alpha  occ. eigenvalues --   -0.40467  -0.40150  -0.39988  -0.39681  -0.39150
 Alpha  occ. eigenvalues --   -0.39037  -0.38874  -0.38297  -0.38042  -0.37613
 Alpha  occ. eigenvalues --   -0.37567  -0.37308  -0.37059  -0.36735  -0.36234
 Alpha  occ. eigenvalues --   -0.35874  -0.35633  -0.35150  -0.35034  -0.34750
 Alpha  occ. eigenvalues --   -0.34003  -0.33093  -0.32642  -0.32271  -0.31849
 Alpha  occ. eigenvalues --   -0.31686  -0.29885  -0.29440  -0.29293  -0.29098
 Alpha  occ. eigenvalues --   -0.27932  -0.26821  -0.26045  -0.25457  -0.24321
 Alpha  occ. eigenvalues --   -0.23901  -0.23210  -0.22416  -0.21226  -0.18891
 Alpha virt. eigenvalues --   -0.12646  -0.07484  -0.03735  -0.02642  -0.01797
 Alpha virt. eigenvalues --   -0.00993   0.01138   0.01915   0.02574   0.02689
 Alpha virt. eigenvalues --    0.03179   0.03720   0.03900   0.04167   0.04764

 Mulliken charges:
               1
     1  O   -0.214986
     2  O   -0.217289
     3  O   -0.294891
     4  O   -0.301362
     5  O   -0.199091
     6  O   -0.221671
     7  N   -0.090301
     8  N   -0.296508
     9  N   -0.182729
    10  N   -0.281690
    11  C    0.079021
    12  C    0.143189
    13  C   -0.073563
    14  C   -0.150465
    15  C   -0.106715
    16  C    0.046863
    17  C   -0.192053
    18  C    0.160036
    19  C   -0.060178
    20  C   -0.112212
    21  C    0.050603
    22  C    0.138561
    23  C   -0.095345
    24  C    0.208241
    25  C    0.065446
    26  C   -0.131390
    27  C   -0.145062
    28  C    0.269338
    29  C    0.048064
    30  C   -0.051588
    31  C   -0.035728
    32  C    0.086584
    33  C   -0.100439
    34  C    0.210682
    35  C    0.001570
    36  C    0.144638
    37  C    0.170678
    38  C    0.084321
    39  C   -0.197683
    40  C    0.180789
    41  C   -0.079016
    42  C   -0.000170
    43  C    0.018589
    44  H    0.086459
    45  H   -0.026578
    46  H    0.019422
    47  H    0.115699
    48  H    0.189154
    49  H    0.011462
    50  H    0.011815
    51  H   -0.000216
    52  H    0.005117
    53  H   -0.032054
    54  H    0.008780
    55  H    0.032357
    56  H    0.055070
    57  H    0.061783
    58  H    0.077721
    59  H    0.064822
    60  H    0.271409
    61  H    0.027977
    62  H    0.055286
    63  H   -0.013443
    64  H    0.067673
    65  H    0.054473
    66  H    0.037871
    67  H    0.032105
    68  H    0.025078
    69  H   -0.048698
    70  H   -0.141346
    71  H    0.015372
    72  H    0.209817
    73  H    0.052345
    74  H    0.041749
    75  H    0.047108
    76  H    0.055985
    77  H    0.233650
    78  H   -0.024826
    79  H    0.044515
 Sum of Mulliken charges =  -0.00000

 Dipole moment (field-independent basis, Debye):
    X=              2.9497    Y=              4.5643    Z=              0.0405  Tot=              5.4346
 Quadrupole moment (field-independent basis, Debye-Ang):
   XX=           -247.2519   YY=           -231.5211   ZZ=           -263.8058
   XY=             12.4530   XZ=            -24.6137   YZ=             -6.1493

 Normal termination of Gaussian 16 at Fri Jul 26 08:09:18 2019.
