 Gaussian 16, Revision A.03,
 Gaussian 16:  ES64L-G16RevA.03 25-Dec-2016

 --------------------------
 # td=(NStates=1) B3LYP/SVP
 --------------------------

 --
 TD
 --
 Symbolic Z-matrix:
 Charge =  0 Multiplicity = 1

                         Standard orientation:
 ---------------------------------------------------------------------
 Center     Atomic      Atomic             Coordinates (Angstroms)
 Number     Number       Type             X           Y           Z
 ---------------------------------------------------------------------
      1          8           0       -3.278677   -1.302983   -2.930251
      2          8           0        2.809667    3.097385    3.293464
      3          8           0        3.876067    1.300051    4.199346
      4          8           0        7.697462   -1.661517   -0.642708
      5          8           0        6.767006   -2.751707   -2.431987
      6          8           0       -2.654633    1.640445    1.579175
      7          7           0       -0.134329   -2.451780    0.949325
      8          7           0       -2.692611   -1.253368   -0.658479
      9          7           0        1.143359    0.205553   -0.688572
     10          7           0       -1.066504    1.501896   -0.096090
     11          6           0       -3.359082   -1.455190    0.568032
     12          6           0       -2.522568   -2.448476    1.528049
     13          6           0       -1.136129   -2.071483    1.691706
     14          6           0       -0.490598   -1.281028    2.746747
     15          6           0        0.852802   -1.157976    2.466147
     16          6           0        1.020136   -1.784703    1.203100
     17          6           0       -4.693017   -2.023029    0.199405
     18          6           0        1.944736   -0.428045    3.111118
     19          6           0       -4.701477   -2.099851   -1.135980
     20          6           0        2.190000   -1.804247    0.274326
     21          6           0        2.188133   -0.753206   -0.685973
     22          6           0       -3.497288   -1.524985   -1.701887
     23          6           0        3.101620   -0.475444   -1.804622
     24          6           0       -1.247902   -0.580436    3.900741
     25          6           0       -5.650862   -2.338685    1.356950
     26          6           0        2.552696    0.569797   -2.536961
     27          6           0        1.965453    1.023224    2.832778
     28          6           0        1.332155    1.033793   -1.815212
     29          6           0        4.280050   -1.325592   -2.108781
     30          6           0       -5.794166   -2.602775   -1.968141
     31          6           0        5.457054   -1.105757   -1.077495
     32          6           0        3.091986    1.320095   -3.660838
     33          6           0        0.378209    2.088137   -1.946130
     34          6           0        2.972453    1.811566    3.478763
     35          6           0       -0.770163    2.304447   -1.146402
     36          6           0       -6.685128   -3.457108   -1.727749
     37          6           0        6.704244   -1.919169   -1.484270
     38          6           0       -1.609377    3.587325   -1.044190
     39          6           0       -2.434900    3.368494   -0.094099
     40          6           0       -2.012593    2.060341    0.641588
     41          6           0       -1.462826    4.657806   -2.109145
     42          6           0       -3.515986    4.229469    0.415465
     43          6           0       -2.405874    5.648912   -2.340491
     44          1           0       -3.427487   -0.433484    1.120270
     45          1           0       -2.485437   -3.477420    0.863668
     46          1           0       -2.943610   -2.643798    2.506946
     47          1           0       -0.219114   -2.708629   -0.066846
     48          1           0       -2.114066   -0.256090   -0.759121
     49          1           0        1.912872   -0.434127    4.233088
     50          1           0        2.765485   -0.978450    2.868890
     51          1           0        2.983068   -2.528788    0.354270
     52          1           0       -1.818308   -1.469398    4.618873
     53          1           0       -0.607078   -0.294460    4.693854
     54          1           0       -1.789186    0.152437    3.613773
     55          1           0       -5.489081   -1.836474    2.243890
     56          1           0       -5.432758   -3.489946    1.367863
     57          1           0       -6.751949   -2.199291    1.147266
     58          1           0        1.686416    1.408501    1.666031
     59          1           0        0.862749    1.426707    3.295597
     60          1           0        0.185104    0.406900   -0.350304
     61          1           0        4.739418   -0.964187   -3.027937
     62          1           0        3.791587   -2.321400   -2.236191
     63          1           0       -5.912476   -2.096519   -3.121832
     64          1           0        5.226545   -1.234372   -0.006381
     65          1           0        5.897900   -0.097034   -1.150208
     66          1           0        4.047580    1.098274   -3.921432
     67          1           0        3.040846    2.539228   -3.448584
     68          1           0        2.131574    1.176258   -4.321319
     69          1           0        0.541499    2.658984   -2.839871
     70          1           0       -6.849214   -4.097031   -0.745087
     71          1           0       -7.435911   -3.736850   -2.431137
     72          1           0        3.548976    3.551189    3.826389
     73          1           0       -0.644528    4.563045   -2.709089
     74          1           0       -4.593193    4.137541   -0.230339
     75          1           0       -3.520355    3.806598    1.514999
     76          1           0       -3.146472    5.423618    0.322966
     77          1           0        8.476546   -2.065333   -0.908364
     78          1           0       -1.949135    6.158706   -3.274941
     79          1           0       -3.444094    5.868277   -1.948557
 ---------------------------------------------------------------------

 SCF Done:  E(RB3LYP) =  -1947.78853201     A.U. after   20 cycles

 Excitation energies and oscillator strengths:

 Excited State   1:      Singlet-A      0.8042 eV 1541.75 nm  f=0.0000  <S**2>=0.000
     155 ->156         0.70476
 This state for optimization and/or second-order correction.
 Total Energy, E(TD-HF/TD-DFT) =  -1947.75897895
 Copying the excited state density for this state as the 1-particle RhoCI density.

 The electronic state is 1-A.
 Alpha  occ. eigenvalues --  -19.20446 -19.19192 -19.13897 -19.12526 -19.11256
 Alpha  occ. eigenvalues --  -19.07559 -14.37384 -14.37036 -14.33694 -14.31922
 Alpha  occ. eigenvalues --  -10.34203 -10.31257 -10.28465 -10.27650 -10.26798
 Alpha  occ. eigenvalues --  -10.26472 -10.26117 -10.23780 -10.23503 -10.23468
 Alpha  occ. eigenvalues --  -10.23452 -10.23112 -10.22958 -10.22392 -10.22036
 Alpha  occ. eigenvalues --  -10.21882 -10.21638 -10.21632 -10.21256 -10.20636
 Alpha  occ. eigenvalues --  -10.20465 -10.20366 -10.20311 -10.20041 -10.19659
 Alpha  occ. eigenvalues --  -10.19355 -10.18670 -10.18146 -10.17581 -10.17381
 Alpha  occ. eigenvalues --  -10.17112 -10.16663 -10.16557  -1.12288  -1.09987
 Alpha  occ. eigenvalues --   -1.04285  -1.00317  -0.99212  -0.98819  -0.98183
 Alpha  occ. eigenvalues --   -0.97868  -0.95281  -0.92414  -0.84769  -0.82337
 Alpha  occ. eigenvalues --   -0.81811  -0.81111  -0.80719  -0.79682  -0.78177
 Alpha  occ. eigenvalues --   -0.76564  -0.76011  -0.75760  -0.75040  -0.74019
 Alpha  occ. eigenvalues --   -0.71174  -0.70721  -0.70122  -0.69706  -0.67697
 Alpha  occ. eigenvalues --   -0.67377  -0.66363  -0.63819  -0.63269  -0.60736
 Alpha  occ. eigenvalues --   -0.60428  -0.58823  -0.58693  -0.57618  -0.56799
 Alpha  occ. eigenvalues --   -0.55546  -0.55352  -0.55169  -0.53822  -0.53118
 Alpha  occ. eigenvalues --   -0.52132  -0.51483  -0.50755  -0.49900  -0.49649
 Alpha  occ. eigenvalues --   -0.49373  -0.49066  -0.48908  -0.48616  -0.48225
 Alpha  occ. eigenvalues --   -0.47982  -0.47179  -0.46788  -0.46395  -0.46170
 Alpha  occ. eigenvalues --   -0.45835  -0.45252  -0.44894  -0.44532  -0.44177
 Alpha  occ. eigenvalues --   -0.43714  -0.43459  -0.43359  -0.43005  -0.42247
 Alpha  occ. eigenvalues --   -0.41851  -0.41572  -0.41342  -0.41119  -0.40747
 Alpha  occ. eigenvalues --   -0.40537  -0.40355  -0.40255  -0.40006  -0.39644
 Alpha  occ. eigenvalues --   -0.39519  -0.39118  -0.38974  -0.38382  -0.38212
 Alpha  occ. eigenvalues --   -0.37394  -0.37161  -0.37091  -0.36728  -0.36407
 Alpha  occ. eigenvalues --   -0.36112  -0.35710  -0.35308  -0.34989  -0.33707
 Alpha  occ. eigenvalues --   -0.33414  -0.32748  -0.31575  -0.31413  -0.31092
 Alpha  occ. eigenvalues --   -0.30452  -0.29925  -0.29579  -0.29333  -0.28970
 Alpha  occ. eigenvalues --   -0.27197  -0.26895  -0.26378  -0.24801  -0.24462
 Alpha  occ. eigenvalues --   -0.23728  -0.23475  -0.23000  -0.22971  -0.18455
 Alpha virt. eigenvalues --   -0.12818  -0.07229  -0.03304  -0.02895  -0.01940
 Alpha virt. eigenvalues --   -0.00825   0.01679   0.02079   0.02246   0.03027
 Alpha virt. eigenvalues --    0.03880   0.04000   0.04503   0.04806   0.04905

 Mulliken charges:
               1
     1  O   -0.286162
     2  O   -0.159294
     3  O   -0.293482
     4  O   -0.120287
     5  O   -0.269533
     6  O   -0.205545
     7  N    0.029665
     8  N   -0.209175
     9  N   -0.125184
    10  N   -0.289980
    11  C   -0.008442
    12  C    0.148757
    13  C   -0.115431
    14  C   -0.165741
    15  C   -0.071817
    16  C   -0.090971
    17  C   -0.129990
    18  C    0.240284
    19  C   -0.047720
    20  C   -0.099438
    21  C    0.141763
    22  C    0.126384
    23  C   -0.105239
    24  C    0.146052
    25  C    0.093778
    26  C   -0.066270
    27  C   -0.150147
    28  C    0.037951
    29  C    0.144254
    30  C   -0.011810
    31  C   -0.032765
    32  C    0.047820
    33  C   -0.048795
    34  C    0.157712
    35  C    0.093066
    36  C   -0.081434
    37  C    0.142802
    38  C    0.072459
    39  C   -0.210196
    40  C    0.155434
    41  C    0.017751
    42  C   -0.068845
    43  C   -0.038889
    44  H    0.070551
    45  H   -0.004035
    46  H    0.001612
    47  H    0.127294
    48  H    0.202313
    49  H   -0.000996
    50  H   -0.033720
    51  H    0.011218
    52  H    0.001766
    53  H   -0.022288
    54  H   -0.011679
    55  H    0.013146
    56  H    0.057173
    57  H    0.038181
    58  H    0.067022
    59  H    0.068555
    60  H    0.181046
    61  H    0.003421
    62  H    0.059439
    63  H    0.042714
    64  H    0.060896
    65  H    0.037280
    66  H    0.005553
    67  H    0.055687
    68  H    0.067281
    69  H   -0.027118
    70  H    0.011835
    71  H    0.007358
    72  H    0.202614
    73  H   -0.033316
    74  H    0.070880
    75  H    0.065755
    76  H    0.053211
    77  H    0.158903
    78  H    0.036841
    79  H    0.060255
 Sum of Mulliken charges =  -0.00000

 Dipole moment (field-independent basis, Debye):
    X=              4.1926    Y=              3.4699    Z=             -0.9905  Tot=              5.5317
 Quadrupole moment (field-independent basis, Debye-Ang):
   XX=           -229.5974   YY=           -240.4120   ZZ=           -272.3499
   XY=              7.0088   XZ=            -21.4401   YZ=            -15.9812

 Normal termination of Gaussian 16 at Wed Jul 24 12:06:16 2019.
