 Gaussian 16, Revision A.03,
 Gaussian 16:  ES64L-G16RevA.03 25-Dec-2016

 --------------------------
 # td=(NStates=1) B3LYP/SVP
 --------------------------

 --
 TD
 --
 Symbolic Z-matrix:
 Charge =  0 Multiplicity = 1

                         Standard orientation:
 ---------------------------------------------------------------------
 Center     Atomic      Atomic             Coordinates (Angstroms)
 Number     Number       Type             X           Y           Z
 ---------------------------------------------------------------------
      1          8           0       -3.338709   -0.859693   -2.918770
      2          8           0        3.125842    2.704329    3.265093
      3          8           0        3.695428    0.821882    4.544513
      4          8           0        7.803751   -1.412827   -0.933871
      5          8           0        6.689051   -2.930649   -2.192928
      6          8           0       -2.645624    1.565974    1.646409
      7          7           0       -0.419096   -2.526773    0.641647
      8          7           0       -2.734859   -1.160910   -0.673833
      9          7           0        1.126970    0.155674   -0.704675
     10          7           0       -0.934271    1.418258   -0.005290
     11          6           0       -3.481494   -1.357810    0.507534
     12          6           0       -2.715179   -2.508062    1.366643
     13          6           0       -1.271956   -2.280133    1.573425
     14          6           0       -0.664984   -1.581556    2.626804
     15          6           0        0.689947   -1.491883    2.334995
     16          6           0        0.877512   -2.118130    1.019309
     17          6           0       -4.792242   -1.917511    0.061988
     18          6           0        1.763694   -0.765305    3.110504
     19          6           0       -4.900643   -1.925520   -1.275691
     20          6           0        1.949913   -1.991872    0.036326
     21          6           0        2.039159   -0.829436   -0.711953
     22          6           0       -3.611893   -1.172585   -1.811335
     23          6           0        3.047500   -0.574959   -1.802047
     24          6           0       -1.408827   -0.983939    3.742843
     25          6           0       -5.834098   -2.192161    0.978381
     26          6           0        2.637364    0.680813   -2.418646
     27          6           0        1.927243    0.663179    2.864462
     28          6           0        1.386018    1.081916   -1.630937
     29          6           0        4.304298   -1.277459   -2.113144
     30          6           0       -6.013483   -2.092650   -2.245992
     31          6           0        5.477303   -1.050810   -1.280308
     32          6           0        3.283175    1.482743   -3.553748
     33          6           0        0.676735    2.306899   -1.740350
     34          6           0        3.014792    1.343129    3.630304
     35          6           0       -0.477081    2.389067   -0.965537
     36          6           0       -7.042399   -2.829669   -2.174892
     37          6           0        6.743587   -1.883949   -1.531547
     38          6           0       -1.293539    3.683043   -0.965536
     39          6           0       -2.173373    3.560778    0.147268
     40          6           0       -1.922155    2.104474    0.660642
     41          6           0       -1.009375    4.918113   -1.696883
     42          6           0       -3.316677    4.281306    0.684994
     43          6           0       -1.796226    6.050398   -1.619849
     44          1           0       -3.530965   -0.513623    1.095611
     45          1           0       -2.818608   -3.507552    0.812260
     46          1           0       -3.324895   -2.640679    2.384750
     47          1           0       -0.783516   -2.886507   -0.366682
     48          1           0       -2.233753   -0.273720   -0.486977
     49          1           0        1.412009   -0.898589    4.043520
     50          1           0        2.861225   -1.220679    3.037950
     51          1           0        2.823815   -2.774186   -0.244637
     52          1           0       -2.534042   -1.574732    3.892302
     53          1           0       -0.886479   -0.937501    4.712007
     54          1           0       -1.534284    0.356128    3.314636
     55          1           0       -6.084235   -1.745890    1.914824
     56          1           0       -5.920698   -3.394258    1.076441
     57          1           0       -6.712884   -2.238030    0.448863
     58          1           0        2.268361    0.867241    1.811323
     59          1           0        1.068242    1.146370    3.169724
     60          1           0        0.303296    0.216989   -0.039064
     61          1           0        4.589478   -1.150637   -3.081692
     62          1           0        4.079649   -2.261215   -1.960651
     63          1           0       -5.831284   -1.693835   -3.233640
     64          1           0        5.100058   -1.177972   -0.143846
     65          1           0        5.715830    0.094394   -1.212040
     66          1           0        4.211556    0.863126   -4.014107
     67          1           0        3.829517    2.260910   -2.973866
     68          1           0        2.533509    1.827565   -4.140861
     69          1           0        0.755249    3.042665   -2.436113
     70          1           0       -7.072376   -3.337622   -1.186545
     71          1           0       -7.821486   -3.053388   -2.874898
     72          1           0        3.765456    3.069430    3.896829
     73          1           0       -0.189393    4.818994   -2.250647
     74          1           0       -4.010163    4.629085   -0.035785
     75          1           0       -3.823298    3.572287    1.431007
     76          1           0       -2.845847    4.992685    1.183462
     77          1           0        8.551334   -1.939530   -1.080206
     78          1           0       -1.692111    6.821347   -2.367239
     79          1           0       -2.683073    6.002316   -1.032667
 ---------------------------------------------------------------------

 SCF Done:  E(RB3LYP) =  -1947.79259277     A.U. after   27 cycles

 Excitation energies and oscillator strengths:

 Excited State   1:      Singlet-A      1.0308 eV 1202.78 nm  f=0.0049  <S**2>=0.000
     155 ->156         0.70225
 This state for optimization and/or second-order correction.
 Total Energy, E(TD-HF/TD-DFT) =  -1947.75471093
 Copying the excited state density for this state as the 1-particle RhoCI density.

 The electronic state is 1-A.
 Alpha  occ. eigenvalues --  -19.20860 -19.17987 -19.13624 -19.12989 -19.10741
 Alpha  occ. eigenvalues --  -19.10147 -14.38370 -14.37767 -14.32164 -14.31948
 Alpha  occ. eigenvalues --  -10.34148 -10.32250 -10.28053 -10.27914 -10.27512
 Alpha  occ. eigenvalues --  -10.25825 -10.25800 -10.23921 -10.23863 -10.23708
 Alpha  occ. eigenvalues --  -10.23245 -10.22717 -10.21815 -10.21724 -10.21190
 Alpha  occ. eigenvalues --  -10.20913 -10.20756 -10.20739 -10.20390 -10.20284
 Alpha  occ. eigenvalues --  -10.20185 -10.20022 -10.20019 -10.19580 -10.19480
 Alpha  occ. eigenvalues --  -10.18739 -10.18711 -10.18340 -10.18174 -10.18084
 Alpha  occ. eigenvalues --  -10.18045 -10.17390 -10.16362  -1.13209  -1.07044
 Alpha  occ. eigenvalues --   -1.03128  -1.01470  -1.01198  -0.98824  -0.97749
 Alpha  occ. eigenvalues --   -0.97159  -0.92858  -0.90508  -0.84651  -0.82484
 Alpha  occ. eigenvalues --   -0.81720  -0.81559  -0.81516  -0.79220  -0.78399
 Alpha  occ. eigenvalues --   -0.77312  -0.77038  -0.76550  -0.74999  -0.73316
 Alpha  occ. eigenvalues --   -0.71256  -0.70637  -0.70432  -0.69604  -0.67789
 Alpha  occ. eigenvalues --   -0.66085  -0.65235  -0.63705  -0.62616  -0.61423
 Alpha  occ. eigenvalues --   -0.60055  -0.59101  -0.58553  -0.57964  -0.56889
 Alpha  occ. eigenvalues --   -0.55584  -0.55008  -0.54060  -0.53118  -0.52758
 Alpha  occ. eigenvalues --   -0.52284  -0.51979  -0.51598  -0.50615  -0.49883
 Alpha  occ. eigenvalues --   -0.49776  -0.49676  -0.48710  -0.48421  -0.48244
 Alpha  occ. eigenvalues --   -0.47604  -0.47349  -0.47213  -0.46862  -0.46125
 Alpha  occ. eigenvalues --   -0.45750  -0.45365  -0.45249  -0.44682  -0.44364
 Alpha  occ. eigenvalues --   -0.44085  -0.43869  -0.43527  -0.42629  -0.42391
 Alpha  occ. eigenvalues --   -0.42319  -0.41904  -0.41504  -0.41409  -0.40904
 Alpha  occ. eigenvalues --   -0.40753  -0.40507  -0.40390  -0.40321  -0.39867
 Alpha  occ. eigenvalues --   -0.39652  -0.39372  -0.39137  -0.38460  -0.38152
 Alpha  occ. eigenvalues --   -0.37754  -0.36897  -0.36467  -0.36306  -0.35757
 Alpha  occ. eigenvalues --   -0.35432  -0.35310  -0.34774  -0.34422  -0.33838
 Alpha  occ. eigenvalues --   -0.33622  -0.33358  -0.33032  -0.32267  -0.31895
 Alpha  occ. eigenvalues --   -0.31612  -0.30892  -0.29473  -0.29227  -0.27932
 Alpha  occ. eigenvalues --   -0.27648  -0.26929  -0.26228  -0.25012  -0.24435
 Alpha  occ. eigenvalues --   -0.23226  -0.22921  -0.22807  -0.22615  -0.18881
 Alpha virt. eigenvalues --   -0.12515  -0.07699  -0.03485  -0.02739  -0.01972
 Alpha virt. eigenvalues --   -0.00742   0.01316   0.02270   0.02806   0.02914
 Alpha virt. eigenvalues --    0.03376   0.03967   0.04527   0.04876   0.05201

 Mulliken charges:
               1
     1  O   -0.175230
     2  O   -0.225562
     3  O   -0.256016
     4  O   -0.096851
     5  O   -0.251073
     6  O   -0.331244
     7  N   -0.055419
     8  N   -0.231736
     9  N   -0.029482
    10  N   -0.344340
    11  C    0.118674
    12  C    0.091603
    13  C   -0.083624
    14  C   -0.072520
    15  C   -0.116001
    16  C   -0.007163
    17  C   -0.182129
    18  C    0.154561
    19  C   -0.050649
    20  C   -0.110992
    21  C    0.050770
    22  C    0.127675
    23  C   -0.120842
    24  C   -0.072905
    25  C    0.150092
    26  C   -0.167264
    27  C    0.074440
    28  C    0.124833
    29  C    0.258523
    30  C    0.004877
    31  C   -0.095936
    32  C    0.129663
    33  C   -0.067018
    34  C    0.135926
    35  C    0.117661
    36  C   -0.013339
    37  C    0.146893
    38  C   -0.006881
    39  C   -0.217739
    40  C    0.209299
    41  C    0.042779
    42  C    0.165649
    43  C    0.025458
    44  H    0.005421
    45  H   -0.014781
    46  H    0.019266
    47  H    0.173963
    48  H    0.155571
    49  H   -0.042004
    50  H    0.015589
    51  H    0.042129
    52  H    0.031793
    53  H    0.020041
    54  H    0.082027
    55  H    0.027516
    56  H    0.023768
    57  H   -0.037938
    58  H    0.035606
    59  H    0.018638
    60  H    0.215493
    61  H   -0.023879
    62  H   -0.025445
    63  H   -0.005850
    64  H    0.053785
    65  H    0.029574
    66  H    0.046287
    67  H    0.040494
    68  H    0.027533
    69  H   -0.052573
    70  H   -0.005947
    71  H    0.015147
    72  H    0.179040
    73  H   -0.075977
    74  H    0.039571
    75  H    0.048332
    76  H   -0.006119
    77  H    0.167276
    78  H    0.028436
    79  H    0.000795
 Sum of Mulliken charges =  -0.00000

 Dipole moment (field-independent basis, Debye):
    X=              3.6871    Y=              2.9804    Z=             -2.2004  Tot=              5.2268
 Quadrupole moment (field-independent basis, Debye-Ang):
   XX=           -220.8332   YY=           -240.5654   ZZ=           -270.6856
   XY=             11.4971   XZ=            -18.4031   YZ=             -9.6988

 Normal termination of Gaussian 16 at Fri Jul 26 19:29:50 2019.
