 Gaussian 16, Revision A.03,
 Gaussian 16:  ES64L-G16RevA.03 25-Dec-2016

 --------------------------
 # td=(NStates=1) B3LYP/SVP
 --------------------------

 --
 TD
 --
 Symbolic Z-matrix:
 Charge =  0 Multiplicity = 1

                         Standard orientation:
 ---------------------------------------------------------------------
 Center     Atomic      Atomic             Coordinates (Angstroms)
 Number     Number       Type             X           Y           Z
 ---------------------------------------------------------------------
      1          8           0        5.238728   -0.375398   -3.250746
      2          8           0       -3.269094   -2.897697    2.924811
      3          8           0       -3.434934   -0.680287    2.907276
      4          8           0       -1.514514    7.253763    1.469250
      5          8           0       -0.309603    7.027647   -0.406012
      6          8           0       -1.848745   -3.969536    0.071760
      7          7           0        2.358936    0.880879    0.574801
      8          7           0        4.360645   -0.777334   -1.101178
      9          7           0       -1.803040    0.691751   -0.361179
     10          7           0       -2.587095   -1.813730   -0.590551
     11          6           0        4.789516   -1.328814    0.148180
     12          6           0        4.344455   -0.326789    1.345162
     13          6           0        2.898566   -0.036152    1.363494
     14          6           0        2.006279   -0.805033    2.140882
     15          6           0        0.639871   -0.162470    1.786999
     16          6           0        1.021435    0.826520    0.792144
     17          6           0        6.255748   -1.435951   -0.120368
     18          6           0       -0.635933   -0.441099    2.558248
     19          6           0        6.613388   -1.011769   -1.339964
     20          6           0        0.194824    1.857716    0.194165
     21          6           0       -0.999807    1.840655   -0.229154
     22          6           0        5.392241   -0.639705   -2.102358
     23          6           0       -1.922812    2.914211   -0.715115
     24          6           0        2.091676   -2.025170    2.987329
     25          6           0        7.269018   -1.781082    0.990300
     26          6           0       -3.038389    2.495911   -1.291328
     27          6           0       -1.277811   -1.766198    2.419604
     28          6           0       -2.962919    1.022050   -1.087511
     29          6           0       -1.352061    4.366077   -0.862126
     30          6           0        7.933527   -0.736321   -2.067010
     31          6           0       -1.445281    5.125725    0.456992
     32          6           0       -4.107414    3.189803   -1.889858
     33          6           0       -3.908310    0.045176   -1.462133
     34          6           0       -2.787164   -1.691013    2.809124
     35          6           0       -3.767818   -1.334356   -1.117578
     36          6           0        9.238247   -0.843294   -1.597449
     37          6           0       -0.955125    6.470823    0.428370
     38          6           0       -4.684591   -2.486819   -1.404929
     39          6           0       -4.063554   -3.614220   -1.021380
     40          6           0       -2.716155   -3.215680   -0.477946
     41          6           0       -5.975691   -2.265485   -1.955386
     42          6           0       -4.444013   -5.033884   -1.151144
     43          6           0       -6.897497   -3.150083   -2.433762
     44          1           0        4.413670   -2.327427    0.239489
     45          1           0        5.130611    0.617367    1.091657
     46          1           0        4.580431   -0.583465    2.441581
     47          1           0        2.841935    1.419982   -0.074840
     48          1           0        3.455186   -1.225209   -1.483089
     49          1           0       -0.216511   -0.175588    3.592955
     50          1           0       -1.404315    0.412655    2.314781
     51          1           0        0.733095    2.857279   -0.119354
     52          1           0        3.138547   -2.347186    2.929744
     53          1           0        1.724903   -1.807197    3.969955
     54          1           0        1.573643   -2.985615    2.504628
     55          1           0        6.921568   -2.413608    1.934261
     56          1           0        7.739920   -0.816919    1.318278
     57          1           0        8.016236   -2.392753    0.471379
     58          1           0       -1.197032   -2.059756    1.355351
     59          1           0       -0.825720   -2.321285    3.091780
     60          1           0       -1.806952   -0.485066   -0.230507
     61          1           0       -1.716532    4.913096   -1.771219
     62          1           0       -0.105194    4.378768   -1.198618
     63          1           0        7.742746   -0.407810   -2.989873
     64          1           0       -1.206286    4.583660    1.341627
     65          1           0       -2.429673    5.280914    0.729912
     66          1           0       -3.913009    4.305247   -2.278453
     67          1           0       -5.058409    3.304305   -1.256321
     68          1           0       -4.502431    2.666053   -2.805898
     69          1           0       -4.812750    0.271844   -2.055500
     70          1           0        9.393048   -1.145225   -0.489577
     71          1           0        9.891852   -0.572967   -2.256274
     72          1           0       -4.137039   -2.747277    3.096246
     73          1           0       -6.265233   -1.236138   -2.225798
     74          1           0       -5.495310   -5.053753   -0.850051
     75          1           0       -4.512196   -5.429746   -2.248018
     76          1           0       -3.662926   -5.560666   -0.478341
     77          1           0       -1.188951    8.224690    1.550245
     78          1           0       -7.771131   -2.846984   -3.018543
     79          1           0       -6.749295   -4.172801   -2.094539
 ---------------------------------------------------------------------

 SCF Done:  E(RB3LYP) =  -1947.86130205     A.U. after   16 cycles

 Excitation energies and oscillator strengths:

 Excited State   1:      Singlet-A      2.0943 eV  592.00 nm  f=0.3870  <S**2>=0.000
     155 ->156         0.70067
 This state for optimization and/or second-order correction.
 Total Energy, E(TD-HF/TD-DFT) =  -1947.78433676
 Copying the excited state density for this state as the 1-particle RhoCI density.

 The electronic state is 1-A.
 Alpha  occ. eigenvalues --  -19.17712 -19.16375 -19.12946 -19.11654 -19.11529
 Alpha  occ. eigenvalues --  -19.10495 -14.38068 -14.35120 -14.34691 -14.30379
 Alpha  occ. eigenvalues --  -10.31998 -10.30636 -10.28905 -10.27170 -10.25111
 Alpha  occ. eigenvalues --  -10.24527 -10.24058 -10.23022 -10.22977 -10.22913
 Alpha  occ. eigenvalues --  -10.22875 -10.22690 -10.22252 -10.21806 -10.21645
 Alpha  occ. eigenvalues --  -10.21380 -10.20892 -10.20816 -10.20348 -10.20346
 Alpha  occ. eigenvalues --  -10.20338 -10.20324 -10.20190 -10.20162 -10.20054
 Alpha  occ. eigenvalues --  -10.19865 -10.19856 -10.19841 -10.19816 -10.19778
 Alpha  occ. eigenvalues --  -10.19244 -10.19226 -10.17109  -1.12044  -1.07867
 Alpha  occ. eigenvalues --   -1.04529  -1.00656  -0.99985  -0.98903  -0.98761
 Alpha  occ. eigenvalues --   -0.95891  -0.94260  -0.91306  -0.82861  -0.82231
 Alpha  occ. eigenvalues --   -0.81173  -0.81090  -0.80678  -0.79668  -0.78564
 Alpha  occ. eigenvalues --   -0.76773  -0.76507  -0.75651  -0.74448  -0.72512
 Alpha  occ. eigenvalues --   -0.71517  -0.70969  -0.69967  -0.69171  -0.67738
 Alpha  occ. eigenvalues --   -0.67406  -0.65544  -0.64020  -0.61373  -0.61132
 Alpha  occ. eigenvalues --   -0.60212  -0.58633  -0.58093  -0.57069  -0.56809
 Alpha  occ. eigenvalues --   -0.55740  -0.55480  -0.54810  -0.53554  -0.53132
 Alpha  occ. eigenvalues --   -0.52143  -0.51678  -0.51400  -0.50743  -0.49695
 Alpha  occ. eigenvalues --   -0.48797  -0.48469  -0.48416  -0.47789  -0.47726
 Alpha  occ. eigenvalues --   -0.47155  -0.46890  -0.46776  -0.46096  -0.45441
 Alpha  occ. eigenvalues --   -0.45010  -0.44845  -0.44559  -0.43980  -0.43497
 Alpha  occ. eigenvalues --   -0.43307  -0.43100  -0.42873  -0.42794  -0.42560
 Alpha  occ. eigenvalues --   -0.42205  -0.41784  -0.41407  -0.41129  -0.41054
 Alpha  occ. eigenvalues --   -0.40447  -0.40093  -0.40058  -0.39832  -0.39461
 Alpha  occ. eigenvalues --   -0.39343  -0.39222  -0.38916  -0.38697  -0.38608
 Alpha  occ. eigenvalues --   -0.38282  -0.37997  -0.37479  -0.37319  -0.36250
 Alpha  occ. eigenvalues --   -0.36035  -0.35414  -0.35102  -0.34853  -0.34184
 Alpha  occ. eigenvalues --   -0.33723  -0.33416  -0.31963  -0.31685  -0.31538
 Alpha  occ. eigenvalues --   -0.31384  -0.30382  -0.28753  -0.28294  -0.28155
 Alpha  occ. eigenvalues --   -0.27566  -0.27214  -0.26194  -0.26069  -0.24748
 Alpha  occ. eigenvalues --   -0.24504  -0.23519  -0.23189  -0.22475  -0.19222
 Alpha virt. eigenvalues --   -0.10776  -0.06293  -0.05918  -0.01200  -0.00071
 Alpha virt. eigenvalues --    0.00204   0.01425   0.02057   0.02730   0.03359
 Alpha virt. eigenvalues --    0.04054   0.04184   0.04732   0.04788   0.04841

 Mulliken charges:
               1
     1  O   -0.175407
     2  O   -0.072856
     3  O   -0.228278
     4  O   -0.295013
     5  O   -0.190932
     6  O   -0.266522
     7  N    0.057178
     8  N   -0.273533
     9  N   -0.216602
    10  N   -0.346598
    11  C    0.161180
    12  C    0.058909
    13  C   -0.078719
    14  C   -0.178202
    15  C   -0.097594
    16  C    0.032710
    17  C   -0.229142
    18  C   -0.001689
    19  C   -0.064411
    20  C   -0.127699
    21  C    0.163813
    22  C    0.154795
    23  C   -0.041262
    24  C    0.095251
    25  C    0.018548
    26  C   -0.026132
    27  C    0.106123
    28  C    0.113537
    29  C   -0.047143
    30  C    0.029731
    31  C    0.109654
    32  C    0.005928
    33  C   -0.095554
    34  C    0.078817
    35  C    0.079493
    36  C    0.051383
    37  C    0.129535
    38  C    0.123102
    39  C   -0.209080
    40  C    0.201464
    41  C   -0.077725
    42  C    0.042009
    43  C   -0.020130
    44  H    0.009188
    45  H    0.012651
    46  H    0.034316
    47  H    0.099730
    48  H    0.148626
    49  H    0.020447
    50  H    0.035623
    51  H   -0.002211
    52  H   -0.008083
    53  H    0.026400
    54  H    0.062926
    55  H    0.039241
    56  H    0.053427
    57  H    0.046235
    58  H    0.089043
    59  H   -0.031441
    60  H    0.234899
    61  H    0.030095
    62  H    0.048569
    63  H   -0.040193
    64  H    0.029807
    65  H    0.004524
    66  H    0.035573
    67  H    0.046766
    68  H    0.030503
    69  H   -0.023905
    70  H    0.036387
    71  H   -0.020807
    72  H    0.123721
    73  H   -0.013095
    74  H    0.028536
    75  H    0.050780
    76  H    0.061835
    77  H    0.211554
    78  H    0.032066
    79  H    0.003333
 Sum of Mulliken charges =  -0.00000

 Dipole moment (field-independent basis, Debye):
    X=             -0.0411    Y=              1.5058    Z=              2.4371  Tot=              2.8651
 Quadrupole moment (field-independent basis, Debye-Ang):
   XX=           -214.9154   YY=           -251.0145   ZZ=           -258.7160
   XY=             -7.8857   XZ=             30.4377   YZ=              0.9637

 Normal termination of Gaussian 16 at Wed Sep 18 22:28:21 2019.
