 Gaussian 16, Revision A.03,
 Gaussian 16:  ES64L-G16RevA.03 25-Dec-2016

 --------------------------
 # td=(NStates=1) B3LYP/SVP
 --------------------------

 --
 TD
 --
 Symbolic Z-matrix:
 Charge =  0 Multiplicity = 1

                         Standard orientation:
 ---------------------------------------------------------------------
 Center     Atomic      Atomic             Coordinates (Angstroms)
 Number     Number       Type             X           Y           Z
 ---------------------------------------------------------------------
      1          8           0       -3.354546   -0.918700   -2.929064
      2          8           0        3.138155    2.721649    3.220872
      3          8           0        3.719302    0.931033    4.403820
      4          8           0        7.735944   -1.430232   -0.818962
      5          8           0        6.847467   -2.653111   -2.351286
      6          8           0       -2.702494    1.305683    1.529457
      7          7           0       -0.106003   -2.516872    0.555670
      8          7           0       -2.696942   -1.112066   -0.759030
      9          7           0        1.103709    0.152944   -0.758756
     10          7           0       -0.945291    1.511813    0.090502
     11          6           0       -3.325208   -1.357808    0.550682
     12          6           0       -2.565762   -2.599618    1.314342
     13          6           0       -1.106059   -2.289255    1.506979
     14          6           0       -0.579301   -1.605953    2.657202
     15          6           0        0.736735   -1.411275    2.363571
     16          6           0        0.981579   -1.998268    1.034723
     17          6           0       -4.780645   -1.811071    0.033598
     18          6           0        1.790541   -0.752455    3.079417
     19          6           0       -4.838053   -1.782251   -1.284260
     20          6           0        2.177025   -1.910423    0.171496
     21          6           0        2.041129   -0.901021   -0.784704
     22          6           0       -3.587303   -1.265934   -1.871519
     23          6           0        2.980337   -0.411466   -1.842456
     24          6           0       -1.352250   -1.023714    3.756709
     25          6           0       -5.732585   -2.402969    1.011653
     26          6           0        2.539163    0.723373   -2.377743
     27          6           0        1.775958    0.787685    2.814294
     28          6           0        1.325612    1.074460   -1.585495
     29          6           0        4.274329   -1.233794   -2.112557
     30          6           0       -6.037000   -2.062427   -2.225228
     31          6           0        5.507816   -0.967607   -1.228229
     32          6           0        3.274356    1.641683   -3.405340
     33          6           0        0.509302    2.200374   -1.731410
     34          6           0        3.023770    1.470692    3.529716
     35          6           0       -0.634027    2.398424   -0.884107
     36          6           0       -7.034721   -2.934167   -2.044674
     37          6           0        6.664736   -1.767245   -1.612082
     38          6           0       -1.484942    3.583975   -0.801551
     39          6           0       -2.296178    3.407494    0.296643
     40          6           0       -2.041712    1.957418    0.767680
     41          6           0       -1.328588    4.745720   -1.706418
     42          6           0       -3.408083    4.173384    0.856641
     43          6           0       -1.952736    5.854405   -1.729824
     44          1           0       -3.257564   -0.327791    1.052382
     45          1           0       -2.675031   -3.646164    0.857518
     46          1           0       -3.088978   -2.514845    2.305036
     47          1           0       -0.255661   -2.887703   -0.479315
     48          1           0       -1.887261   -0.399397   -0.868384
     49          1           0        1.567239   -1.018639    4.061289
     50          1           0        2.820038   -1.383153    2.952851
     51          1           0        2.838820   -2.857921    0.062355
     52          1           0       -2.004495   -1.940858    4.178486
     53          1           0       -0.703565   -0.696902    4.525055
     54          1           0       -2.026784   -0.144194    3.319692
     55          1           0       -5.627280   -2.190983    2.013098
     56          1           0       -5.760720   -3.556208    1.031747
     57          1           0       -6.683581   -2.119246    0.801953
     58          1           0        2.166913    0.885465    1.792314
     59          1           0        0.932460    1.628853    3.035098
     60          1           0        0.283844    0.213452   -0.043084
     61          1           0        4.768357   -0.721706   -3.153160
     62          1           0        4.268534   -2.323609   -2.264521
     63          1           0       -6.067954   -1.343736   -3.175231
     64          1           0        5.087650   -1.274284   -0.258599
     65          1           0        5.775693   -0.013399   -1.174240
     66          1           0        4.304820    1.161581   -3.741168
     67          1           0        3.409309    2.730123   -3.360031
     68          1           0        2.631846    1.732700   -4.376775
     69          1           0        0.706547    2.836161   -2.484417
     70          1           0       -7.493266   -3.394419   -1.168181
     71          1           0       -7.933497   -2.748765   -2.755925
     72          1           0        3.914255    2.892862    3.729844
     73          1           0       -0.413545    4.416836   -2.228309
     74          1           0       -4.328601    4.186748    0.163720
     75          1           0       -3.840145    3.708601    1.773121
     76          1           0       -2.858904    5.181806    0.971887
     77          1           0        8.655709   -1.915778   -0.996026
     78          1           0       -1.867071    6.690399   -2.377117
     79          1           0       -3.020481    6.070617   -1.166870
 ---------------------------------------------------------------------

 SCF Done:  E(RB3LYP) =  -1947.79304142     A.U. after   18 cycles

 Excitation energies and oscillator strengths:

 Excited State   1:      Singlet-A      0.7638 eV 1623.24 nm  f=0.0001  <S**2>=0.000
     155 ->156         0.70360
 This state for optimization and/or second-order correction.
 Total Energy, E(TD-HF/TD-DFT) =  -1947.76497211
 Copying the excited state density for this state as the 1-particle RhoCI density.

 The electronic state is 1-A.
 Alpha  occ. eigenvalues --  -19.19369 -19.16798 -19.13448 -19.12882 -19.11698
 Alpha  occ. eigenvalues --  -19.08555 -14.38274 -14.38248 -14.31033 -14.30513
 Alpha  occ. eigenvalues --  -10.32419 -10.31462 -10.28324 -10.26741 -10.26581
 Alpha  occ. eigenvalues --  -10.25583 -10.25563 -10.23880 -10.23640 -10.23462
 Alpha  occ. eigenvalues --  -10.23443 -10.23432 -10.21585 -10.21527 -10.21272
 Alpha  occ. eigenvalues --  -10.21186 -10.21085 -10.20994 -10.20753 -10.20618
 Alpha  occ. eigenvalues --  -10.20499 -10.20258 -10.20191 -10.19968 -10.19697
 Alpha  occ. eigenvalues --  -10.19673 -10.18985 -10.18456 -10.18385 -10.17863
 Alpha  occ. eigenvalues --  -10.17711 -10.16374 -10.16227  -1.12946  -1.10318
 Alpha  occ. eigenvalues --   -1.05017  -1.04745  -1.02488  -0.99700  -0.99115
 Alpha  occ. eigenvalues --   -0.97804  -0.94167  -0.89232  -0.84273  -0.82175
 Alpha  occ. eigenvalues --   -0.81958  -0.80960  -0.80504  -0.79127  -0.78373
 Alpha  occ. eigenvalues --   -0.76998  -0.75805  -0.74592  -0.73606  -0.72225
 Alpha  occ. eigenvalues --   -0.71139  -0.70327  -0.69638  -0.69127  -0.67381
 Alpha  occ. eigenvalues --   -0.66905  -0.65126  -0.62691  -0.61134  -0.60324
 Alpha  occ. eigenvalues --   -0.60054  -0.59769  -0.58479  -0.57526  -0.56578
 Alpha  occ. eigenvalues --   -0.55722  -0.55224  -0.54786  -0.53541  -0.52741
 Alpha  occ. eigenvalues --   -0.52440  -0.51808  -0.51063  -0.50458  -0.49984
 Alpha  occ. eigenvalues --   -0.49422  -0.48809  -0.47996  -0.47839  -0.47690
 Alpha  occ. eigenvalues --   -0.47584  -0.47084  -0.46883  -0.46529  -0.45789
 Alpha  occ. eigenvalues --   -0.45282  -0.45227  -0.44516  -0.44400  -0.43951
 Alpha  occ. eigenvalues --   -0.43643  -0.43303  -0.42716  -0.42634  -0.42280
 Alpha  occ. eigenvalues --   -0.42050  -0.41833  -0.41481  -0.41298  -0.40740
 Alpha  occ. eigenvalues --   -0.40383  -0.40086  -0.40023  -0.39877  -0.39758
 Alpha  occ. eigenvalues --   -0.39525  -0.39284  -0.39259  -0.39086  -0.38721
 Alpha  occ. eigenvalues --   -0.38220  -0.37980  -0.37580  -0.37135  -0.35968
 Alpha  occ. eigenvalues --   -0.35907  -0.35304  -0.35008  -0.33788  -0.33725
 Alpha  occ. eigenvalues --   -0.33279  -0.32583  -0.32222  -0.31979  -0.31688
 Alpha  occ. eigenvalues --   -0.30736  -0.30043  -0.29348  -0.29003  -0.28846
 Alpha  occ. eigenvalues --   -0.28261  -0.26998  -0.25921  -0.24464  -0.24100
 Alpha  occ. eigenvalues --   -0.23786  -0.23510  -0.22963  -0.22104  -0.17778
 Alpha virt. eigenvalues --   -0.12371  -0.07458  -0.03097  -0.01074  -0.00517
 Alpha virt. eigenvalues --    0.00927   0.01498   0.01813   0.02457   0.02886
 Alpha virt. eigenvalues --    0.03559   0.04105   0.04575   0.04970   0.05096

 Mulliken charges:
               1
     1  O   -0.135836
     2  O   -0.099264
     3  O   -0.276224
     4  O   -0.281139
     5  O   -0.165450
     6  O   -0.193405
     7  N   -0.037122
     8  N   -0.322878
     9  N   -0.040333
    10  N   -0.314017
    11  C    0.055097
    12  C    0.167604
    13  C   -0.122637
    14  C   -0.096396
    15  C   -0.111856
    16  C   -0.107105
    17  C   -0.168020
    18  C    0.105600
    19  C   -0.068852
    20  C   -0.074936
    21  C    0.092245
    22  C    0.113695
    23  C   -0.036041
    24  C    0.048859
    25  C    0.145929
    26  C   -0.055082
    27  C   -0.002162
    28  C    0.043884
    29  C   -0.042916
    30  C   -0.020297
    31  C    0.084534
    32  C    0.017072
    33  C   -0.056946
    34  C    0.086054
    35  C    0.122292
    36  C   -0.064786
    37  C    0.117732
    38  C   -0.003169
    39  C   -0.228097
    40  C    0.175681
    41  C    0.105686
    42  C    0.036662
    43  C   -0.081227
    44  H    0.087967
    45  H    0.003220
    46  H   -0.008825
    47  H    0.166617
    48  H    0.138523
    49  H   -0.016118
    50  H    0.032028
    51  H    0.053041
    52  H    0.027624
    53  H   -0.010866
    54  H    0.075828
    55  H   -0.020356
    56  H    0.031982
    57  H   -0.009689
    58  H    0.022404
    59  H    0.087839
    60  H    0.230333
    61  H    0.025951
    62  H    0.042789
    63  H    0.051081
    64  H    0.046424
    65  H   -0.006004
    66  H    0.043243
    67  H    0.036742
    68  H    0.033795
    69  H   -0.076639
    70  H    0.020026
    71  H    0.017541
    72  H    0.148227
    73  H   -0.018504
    74  H    0.057202
    75  H    0.033575
    76  H    0.056760
    77  H    0.224196
    78  H    0.015652
    79  H    0.043959
 Sum of Mulliken charges =  -0.00000

 Dipole moment (field-independent basis, Debye):
    X=              2.9564    Y=              3.5657    Z=             -0.9152  Tot=              4.7214
 Quadrupole moment (field-independent basis, Debye-Ang):
   XX=           -236.4546   YY=           -234.7592   ZZ=           -274.2880
   XY=              2.9037   XZ=            -21.6459   YZ=            -11.8013

 Normal termination of Gaussian 16 at Tue Jul 30 09:12:44 2019.
