 Gaussian 16, Revision A.03,
 Gaussian 16:  ES64L-G16RevA.03 25-Dec-2016

 --------------------------
 # td=(NStates=1) B3LYP/SVP
 --------------------------

 --
 TD
 --
 Symbolic Z-matrix:
 Charge =  0 Multiplicity = 1

                         Standard orientation:
 ---------------------------------------------------------------------
 Center     Atomic      Atomic             Coordinates (Angstroms)
 Number     Number       Type             X           Y           Z
 ---------------------------------------------------------------------
      1          8           0       -3.201376   -1.244773   -2.847598
      2          8           0        3.173021    3.056029    3.305729
      3          8           0        3.630635    1.277282    4.615541
      4          8           0        7.774495   -1.570290   -0.870079
      5          8           0        6.613714   -3.058094   -2.019572
      6          8           0       -2.767995    1.592046    1.367723
      7          7           0       -0.248659   -2.452741    0.909774
      8          7           0       -2.628121   -1.205041   -0.581417
      9          7           0        1.194228    0.108627   -0.738577
     10          7           0       -1.055580    1.484984   -0.194925
     11          6           0       -3.219377   -1.292296    0.700997
     12          6           0       -2.650014   -2.417200    1.595634
     13          6           0       -1.223500   -2.032336    1.814817
     14          6           0       -0.607999   -1.203148    2.813037
     15          6           0        0.785064   -1.150045    2.449190
     16          6           0        0.995920   -1.808018    1.262402
     17          6           0       -4.725308   -1.900431    0.276529
     18          6           0        1.830686   -0.304722    3.160077
     19          6           0       -4.755260   -1.995701   -1.071221
     20          6           0        2.108040   -1.813307    0.261003
     21          6           0        2.160885   -0.789226   -0.634760
     22          6           0       -3.420037   -1.472122   -1.656152
     23          6           0        3.044056   -0.568099   -1.776243
     24          6           0       -1.384323   -0.526008    3.912789
     25          6           0       -5.765578   -2.331669    1.288009
     26          6           0        2.592734    0.499944   -2.506393
     27          6           0        1.944850    1.154060    2.817916
     28          6           0        1.347690    0.911038   -1.872818
     29          6           0        4.204919   -1.424667   -2.053873
     30          6           0       -5.762420   -2.524786   -2.011267
     31          6           0        5.426977   -0.972165   -1.197558
     32          6           0        3.139468    1.217231   -3.693241
     33          6           0        0.403741    2.058220   -2.117257
     34          6           0        3.059884    1.754243    3.673564
     35          6           0       -0.553505    2.228108   -1.157030
     36          6           0       -6.718881   -3.409068   -1.794121
     37          6           0        6.676285   -1.980871   -1.539201
     38          6           0       -1.531758    3.517012   -1.264670
     39          6           0       -2.420220    3.388284   -0.236208
     40          6           0       -2.093153    2.101520    0.391364
     41          6           0       -1.421952    4.518273   -2.276263
     42          6           0       -3.510028    4.223973    0.322150
     43          6           0       -1.992370    5.775289   -2.218383
     44          1           0       -3.699876   -0.333384    1.101170
     45          1           0       -2.585568   -3.291436    0.787738
     46          1           0       -3.083359   -2.571166    2.356081
     47          1           0       -0.242714   -2.872189   -0.044041
     48          1           0       -1.958957   -0.403881   -0.719565
     49          1           0        1.706615   -0.397169    4.090724
     50          1           0        2.735904   -0.746616    3.033239
     51          1           0        2.881933   -2.546300    0.479158
     52          1           0       -2.303045   -1.101870    4.341701
     53          1           0       -0.880152   -0.255640    4.801807
     54          1           0       -1.983733    0.283172    3.404002
     55          1           0       -5.491260   -1.618322    2.133235
     56          1           0       -5.550705   -3.209792    1.639554
     57          1           0       -6.956296   -2.228670    0.868886
     58          1           0        2.153044    1.186543    1.865579
     59          1           0        1.036181    1.682938    2.906952
     60          1           0        0.382618    0.380646   -0.175722
     61          1           0        4.416280   -1.386295   -3.181501
     62          1           0        3.896026   -2.398209   -1.742646
     63          1           0       -5.677822   -2.038870   -2.871624
     64          1           0        5.240833   -1.155271   -0.102662
     65          1           0        5.744630   -0.003663   -1.385815
     66          1           0        3.754955    0.319084   -4.128586
     67          1           0        3.807535    2.021813   -3.312367
     68          1           0        2.161314    1.382803   -4.477978
     69          1           0        0.708542    2.811479   -2.865905
     70          1           0       -6.807339   -4.018411   -0.735257
     71          1           0       -7.625594   -3.704227   -2.538736
     72          1           0        3.834698    3.599953    3.872676
     73          1           0       -0.695421    4.198696   -3.069535
     74          1           0       -4.269857    4.407945   -0.563967
     75          1           0       -4.096354    3.666193    1.025998
     76          1           0       -3.116291    5.306356    0.684151
     77          1           0        8.520219   -2.215457   -1.075798
     78          1           0       -1.694408    6.439122   -3.092110
     79          1           0       -2.668700    6.253822   -1.463700
 ---------------------------------------------------------------------

 SCF Done:  E(RB3LYP) =  -1947.79804201     A.U. after   19 cycles

 Excitation energies and oscillator strengths:

 Excited State   1:      Singlet-A      0.8955 eV 1384.45 nm  f=0.0002  <S**2>=0.000
     155 ->156         0.70467
 This state for optimization and/or second-order correction.
 Total Energy, E(TD-HF/TD-DFT) =  -1947.76513121
 Copying the excited state density for this state as the 1-particle RhoCI density.

 The electronic state is 1-A.
 Alpha  occ. eigenvalues --  -19.19557 -19.17846 -19.14743 -19.12852 -19.10693
 Alpha  occ. eigenvalues --  -19.08273 -14.38164 -14.36274 -14.33166 -14.31321
 Alpha  occ. eigenvalues --  -10.33686 -10.31789 -10.28070 -10.27450 -10.26576
 Alpha  occ. eigenvalues --  -10.26103 -10.25526 -10.24324 -10.23501 -10.23439
 Alpha  occ. eigenvalues --  -10.23300 -10.22999 -10.22583 -10.22510 -10.22288
 Alpha  occ. eigenvalues --  -10.21533 -10.21464 -10.20766 -10.20629 -10.20440
 Alpha  occ. eigenvalues --  -10.20385 -10.19828 -10.19688 -10.19619 -10.19525
 Alpha  occ. eigenvalues --  -10.18697 -10.18004 -10.17650 -10.17509 -10.17276
 Alpha  occ. eigenvalues --  -10.17244 -10.17108 -10.15645  -1.11610  -1.08610
 Alpha  occ. eigenvalues --   -1.02613  -1.01587  -1.00273  -1.00000  -0.99809
 Alpha  occ. eigenvalues --   -0.94261  -0.93433  -0.91860  -0.85178  -0.83069
 Alpha  occ. eigenvalues --   -0.81251  -0.80968  -0.79488  -0.79140  -0.78593
 Alpha  occ. eigenvalues --   -0.77023  -0.75945  -0.75242  -0.74162  -0.73392
 Alpha  occ. eigenvalues --   -0.70541  -0.69755  -0.69182  -0.68914  -0.67474
 Alpha  occ. eigenvalues --   -0.66870  -0.65452  -0.63508  -0.61789  -0.61672
 Alpha  occ. eigenvalues --   -0.60442  -0.59849  -0.58393  -0.58030  -0.57198
 Alpha  occ. eigenvalues --   -0.55737  -0.55179  -0.54809  -0.54010  -0.53348
 Alpha  occ. eigenvalues --   -0.51739  -0.51144  -0.50865  -0.50652  -0.49647
 Alpha  occ. eigenvalues --   -0.49542  -0.48990  -0.48921  -0.48311  -0.48114
 Alpha  occ. eigenvalues --   -0.47757  -0.47367  -0.47295  -0.46181  -0.45803
 Alpha  occ. eigenvalues --   -0.45305  -0.44990  -0.44464  -0.44175  -0.43940
 Alpha  occ. eigenvalues --   -0.43785  -0.43422  -0.42963  -0.42715  -0.42360
 Alpha  occ. eigenvalues --   -0.41849  -0.41379  -0.41166  -0.41020  -0.40832
 Alpha  occ. eigenvalues --   -0.40526  -0.40308  -0.40079  -0.39899  -0.39628
 Alpha  occ. eigenvalues --   -0.39445  -0.38840  -0.38751  -0.38431  -0.38058
 Alpha  occ. eigenvalues --   -0.37906  -0.37527  -0.37237  -0.36674  -0.36397
 Alpha  occ. eigenvalues --   -0.36276  -0.35344  -0.34911  -0.34724  -0.34272
 Alpha  occ. eigenvalues --   -0.34190  -0.33618  -0.32673  -0.32251  -0.32032
 Alpha  occ. eigenvalues --   -0.30134  -0.29835  -0.29381  -0.28481  -0.28371
 Alpha  occ. eigenvalues --   -0.27940  -0.27602  -0.25377  -0.25006  -0.23534
 Alpha  occ. eigenvalues --   -0.23468  -0.22844  -0.22761  -0.22388  -0.18879
 Alpha virt. eigenvalues --   -0.12941  -0.07738  -0.02386  -0.01948  -0.01396
 Alpha virt. eigenvalues --    0.00549   0.01437   0.02234   0.02817   0.02985
 Alpha virt. eigenvalues --    0.03179   0.03864   0.04448   0.04753   0.05236

 Mulliken charges:
               1
     1  O   -0.252614
     2  O   -0.230670
     3  O   -0.207221
     4  O   -0.203452
     5  O   -0.188307
     6  O   -0.284309
     7  N   -0.127887
     8  N   -0.178882
     9  N   -0.057680
    10  N   -0.246484
    11  C    0.016859
    12  C    0.381866
    13  C   -0.096451
    14  C   -0.082927
    15  C   -0.140029
    16  C   -0.051452
    17  C   -0.271562
    18  C    0.262710
    19  C   -0.048981
    20  C   -0.132427
    21  C    0.166155
    22  C    0.131575
    23  C   -0.101183
    24  C    0.065200
    25  C    0.111673
    26  C   -0.138824
    27  C    0.104512
    28  C    0.051482
    29  C    0.121045
    30  C    0.092770
    31  C   -0.008141
    32  C    0.033625
    33  C   -0.099887
    34  C    0.134763
    35  C    0.136492
    36  C   -0.114962
    37  C    0.125979
    38  C    0.000833
    39  C   -0.167090
    40  C    0.154533
    41  C   -0.026510
    42  C    0.054023
    43  C   -0.043291
    44  H    0.091835
    45  H    0.009951
    46  H   -0.145998
    47  H    0.131722
    48  H    0.154767
    49  H   -0.081498
    50  H   -0.058086
    51  H    0.026920
    52  H   -0.006881
    53  H    0.001774
    54  H    0.045119
    55  H    0.012316
    56  H   -0.008384
    57  H    0.069776
    58  H   -0.046555
    59  H    0.029133
    60  H    0.177444
    61  H    0.036392
    62  H    0.013114
    63  H   -0.045589
    64  H    0.061965
    65  H    0.014893
    66  H    0.032964
    67  H    0.066796
    68  H    0.080918
    69  H    0.014068
    70  H    0.032768
    71  H    0.045190
    72  H    0.202635
    73  H    0.002567
    74  H    0.034929
    75  H    0.024459
    76  H    0.056648
    77  H    0.197676
    78  H    0.034094
    79  H    0.045285
 Sum of Mulliken charges =  -0.00000

 Dipole moment (field-independent basis, Debye):
    X=              6.0349    Y=              3.3186    Z=             -1.6206  Tot=              7.0752
 Quadrupole moment (field-independent basis, Debye-Ang):
   XX=           -230.1925   YY=           -237.8615   ZZ=           -268.2421
   XY=              4.4037   XZ=            -24.6381   YZ=            -10.3699

 Normal termination of Gaussian 16 at Tue Jul 30 17:44:37 2019.
