 Gaussian 16, Revision A.03,
 Gaussian 16:  ES64L-G16RevA.03 25-Dec-2016

 --------------------------
 # td=(NStates=1) B3LYP/SVP
 --------------------------

 --
 TD
 --
 Symbolic Z-matrix:
 Charge =  0 Multiplicity = 1

                         Standard orientation:
 ---------------------------------------------------------------------
 Center     Atomic      Atomic             Coordinates (Angstroms)
 Number     Number       Type             X           Y           Z
 ---------------------------------------------------------------------
      1          8           0        5.435223    0.066998   -3.249565
      2          8           0       -3.021856   -2.890145    3.474353
      3          8           0       -3.325464   -0.756443    2.959596
      4          8           0       -1.581967    7.000027    1.656267
      5          8           0       -0.970039    7.045455   -0.464846
      6          8           0       -1.647061   -3.995824   -0.099185
      7          7           0        2.337064    0.963499    0.572808
      8          7           0        4.467780   -0.617094   -1.290378
      9          7           0       -1.776018    0.694396   -0.483850
     10          7           0       -2.579457   -1.889131   -0.649168
     11          6           0        4.836087   -1.254816   -0.003570
     12          6           0        4.368158   -0.359289    1.290476
     13          6           0        2.902201   -0.039068    1.331750
     14          6           0        1.916816   -0.619598    2.053341
     15          6           0        0.676118    0.004362    1.830142
     16          6           0        0.914092    1.010172    0.868821
     17          6           0        6.268439   -1.416152   -0.203983
     18          6           0       -0.630312   -0.222978    2.448871
     19          6           0        6.738684   -0.891599   -1.342602
     20          6           0        0.126011    1.966446    0.214536
     21          6           0       -1.045811    1.918967   -0.351654
     22          6           0        5.564900   -0.405478   -2.169569
     23          6           0       -1.939383    2.971136   -0.861426
     24          6           0        2.262577   -1.788876    3.027643
     25          6           0        7.110738   -1.848655    0.933927
     26          6           0       -3.126234    2.379310   -1.405277
     27          6           0       -1.084978   -1.678554    2.579324
     28          6           0       -3.011903    0.882581   -0.994908
     29          6           0       -1.582290    4.375636   -0.998972
     30          6           0        8.107419   -0.696656   -1.952590
     31          6           0       -1.731672    4.951883    0.398020
     32          6           0       -4.317563    3.050228   -2.051316
     33          6           0       -3.951043   -0.069504   -1.338465
     34          6           0       -2.565865   -1.732655    3.019982
     35          6           0       -3.751231   -1.445424   -1.057417
     36          6           0        9.287094   -0.618339   -1.388610
     37          6           0       -1.353287    6.438385    0.516383
     38          6           0       -4.609999   -2.623852   -1.484876
     39          6           0       -3.876236   -3.823416   -1.175863
     40          6           0       -2.594976   -3.330484   -0.562154
     41          6           0       -5.878427   -2.509663   -2.083466
     42          6           0       -4.268913   -5.258478   -1.125684
     43          6           0       -6.847171   -3.415945   -2.412148
     44          1           0        4.215602   -2.126559    0.048490
     45          1           0        4.760109    0.713042    1.148605
     46          1           0        4.919658   -0.700541    2.272648
     47          1           0        2.634609    1.438779   -0.102954
     48          1           0        3.474103   -0.481270   -1.646806
     49          1           0       -0.626465    0.125467    3.457840
     50          1           0       -1.369238    0.426674    2.074990
     51          1           0        0.796827    2.992341   -0.061635
     52          1           0        3.165692   -2.160590    3.036273
     53          1           0        1.871945   -1.566875    4.013029
     54          1           0        1.690790   -2.678356    2.616276
     55          1           0        6.778092   -2.739776    1.583867
     56          1           0        7.449261   -1.071494    1.531564
     57          1           0        7.970389   -2.259814    0.559949
     58          1           0       -1.092500   -2.182235    1.628271
     59          1           0       -0.648386   -2.338031    3.180975
     60          1           0       -1.642208   -0.310949   -0.271785
     61          1           0       -2.394667    4.764172   -1.639243
     62          1           0       -0.414582    4.421477   -1.391046
     63          1           0        7.902110   -0.827275   -2.918627
     64          1           0       -1.472254    4.445276    1.257649
     65          1           0       -2.744558    4.949987    0.688970
     66          1           0       -4.261912    3.997664   -2.281378
     67          1           0       -5.238777    3.087842   -1.530161
     68          1           0       -4.837647    2.592041   -2.982873
     69          1           0       -5.050319    0.189352   -1.649025
     70          1           0        9.297808   -0.559181   -0.251742
     71          1           0       10.131354   -0.559720   -1.860302
     72          1           0       -3.968389   -2.847802    3.569732
     73          1           0       -6.144935   -1.529685   -2.085378
     74          1           0       -5.270041   -5.430938   -0.573472
     75          1           0       -4.320363   -5.425778   -2.184073
     76          1           0       -3.431742   -5.789431   -0.475057
     77          1           0       -1.498315    7.993918    1.648892
     78          1           0       -7.782944   -3.332193   -2.768581
     79          1           0       -6.576615   -4.439542   -2.194711
 ---------------------------------------------------------------------

 SCF Done:  E(RB3LYP) =  -1947.83367910     A.U. after   16 cycles

 Excitation energies and oscillator strengths:

 Excited State   1:      Singlet-A      1.9924 eV  622.30 nm  f=0.3511  <S**2>=0.000
     154 ->156         0.16496
     155 ->156         0.68484
 This state for optimization and/or second-order correction.
 Total Energy, E(TD-HF/TD-DFT) =  -1947.76046144
 Copying the excited state density for this state as the 1-particle RhoCI density.

 The electronic state is 1-A.
 Alpha  occ. eigenvalues --  -19.19643 -19.17622 -19.11563 -19.11081 -19.10517
 Alpha  occ. eigenvalues --  -19.10347 -14.36731 -14.36278 -14.34164 -14.29056
 Alpha  occ. eigenvalues --  -10.31908 -10.30781 -10.28225 -10.27119 -10.25112
 Alpha  occ. eigenvalues --  -10.24693 -10.24268 -10.23261 -10.23107 -10.22801
 Alpha  occ. eigenvalues --  -10.22783 -10.22400 -10.22136 -10.21842 -10.21732
 Alpha  occ. eigenvalues --  -10.21460 -10.20711 -10.20431 -10.20366 -10.20212
 Alpha  occ. eigenvalues --  -10.20061 -10.19783 -10.19529 -10.19459 -10.19423
 Alpha  occ. eigenvalues --  -10.19359 -10.19313 -10.19022 -10.18943 -10.18546
 Alpha  occ. eigenvalues --  -10.18439 -10.18241 -10.18214  -1.11567  -1.09428
 Alpha  occ. eigenvalues --   -1.03726  -1.00317  -1.00172  -0.98060  -0.97908
 Alpha  occ. eigenvalues --   -0.97094  -0.92743  -0.91319  -0.83750  -0.82520
 Alpha  occ. eigenvalues --   -0.81837  -0.81644  -0.80412  -0.78978  -0.77898
 Alpha  occ. eigenvalues --   -0.77799  -0.76937  -0.76031  -0.74472  -0.73158
 Alpha  occ. eigenvalues --   -0.72288  -0.71717  -0.70096  -0.69445  -0.68906
 Alpha  occ. eigenvalues --   -0.68427  -0.66556  -0.64181  -0.62635  -0.62087
 Alpha  occ. eigenvalues --   -0.61449  -0.60503  -0.59107  -0.58303  -0.57279
 Alpha  occ. eigenvalues --   -0.56708  -0.56015  -0.55495  -0.53869  -0.53240
 Alpha  occ. eigenvalues --   -0.52037  -0.51704  -0.50853  -0.50487  -0.49871
 Alpha  occ. eigenvalues --   -0.49380  -0.49251  -0.48215  -0.47998  -0.47508
 Alpha  occ. eigenvalues --   -0.47267  -0.47123  -0.46525  -0.46070  -0.45578
 Alpha  occ. eigenvalues --   -0.45432  -0.45303  -0.44648  -0.44048  -0.43897
 Alpha  occ. eigenvalues --   -0.43803  -0.43398  -0.43187  -0.42748  -0.42662
 Alpha  occ. eigenvalues --   -0.42204  -0.42164  -0.41852  -0.41632  -0.41376
 Alpha  occ. eigenvalues --   -0.41023  -0.40666  -0.40454  -0.40161  -0.39876
 Alpha  occ. eigenvalues --   -0.39647  -0.39403  -0.38983  -0.38737  -0.38496
 Alpha  occ. eigenvalues --   -0.38324  -0.37948  -0.37361  -0.37355  -0.36984
 Alpha  occ. eigenvalues --   -0.36209  -0.35909  -0.35299  -0.34921  -0.34760
 Alpha  occ. eigenvalues --   -0.34268  -0.34102  -0.33782  -0.32379  -0.31555
 Alpha  occ. eigenvalues --   -0.31396  -0.30608  -0.29110  -0.27678  -0.27295
 Alpha  occ. eigenvalues --   -0.26136  -0.25952  -0.25620  -0.25197  -0.25056
 Alpha  occ. eigenvalues --   -0.24718  -0.24211  -0.23534  -0.21658  -0.19179
 Alpha virt. eigenvalues --   -0.10940  -0.07112  -0.05392  -0.01062   0.00606
 Alpha virt. eigenvalues --    0.01079   0.01722   0.01872   0.03272   0.03460
 Alpha virt. eigenvalues --    0.03861   0.04620   0.04971   0.05286   0.05734

 Mulliken charges:
               1
     1  O   -0.178896
     2  O   -0.141454
     3  O   -0.276159
     4  O   -0.146504
     5  O   -0.242059
     6  O   -0.232406
     7  N   -0.029332
     8  N   -0.300527
     9  N   -0.096824
    10  N   -0.315520
    11  C    0.189180
    12  C    0.082481
    13  C   -0.036632
    14  C   -0.171144
    15  C   -0.045448
    16  C    0.035739
    17  C   -0.174071
    18  C    0.155637
    19  C   -0.106804
    20  C   -0.173318
    21  C    0.187535
    22  C    0.154697
    23  C   -0.143326
    24  C    0.179925
    25  C    0.116594
    26  C   -0.074175
    27  C    0.088839
    28  C    0.100218
    29  C    0.161432
    30  C    0.068567
    31  C    0.019679
    32  C    0.141947
    33  C   -0.123044
    34  C    0.084101
    35  C    0.099024
    36  C    0.056605
    37  C    0.104034
    38  C    0.029997
    39  C   -0.211535
    40  C    0.183047
    41  C    0.002307
    42  C    0.047019
    43  C    0.032922
    44  H    0.009968
    45  H    0.005312
    46  H    0.045835
    47  H    0.024038
    48  H    0.136839
    49  H   -0.013579
    50  H   -0.014667
    51  H    0.026425
    52  H   -0.052108
    53  H    0.016844
    54  H    0.026493
    55  H    0.018736
    56  H    0.022624
    57  H   -0.008726
    58  H    0.048235
    59  H   -0.029786
    60  H    0.151177
    61  H    0.012240
    62  H    0.063237
    63  H   -0.032170
    64  H   -0.001156
    65  H   -0.000529
    66  H   -0.050242
    67  H    0.000350
    68  H    0.021076
    69  H    0.018898
    70  H    0.022050
    71  H   -0.024886
    72  H    0.172852
    73  H   -0.066446
    74  H    0.051459
    75  H    0.044143
    76  H    0.059568
    77  H    0.204683
    78  H   -0.006920
    79  H   -0.004212
 Sum of Mulliken charges =  -0.00000

 Dipole moment (field-independent basis, Debye):
    X=             -0.8280    Y=              1.7360    Z=              4.1949  Tot=              4.6148
 Quadrupole moment (field-independent basis, Debye-Ang):
   XX=           -210.4639   YY=           -242.5707   ZZ=           -261.7223
   XY=            -12.4684   XZ=             27.7182   YZ=              7.6785

 Normal termination of Gaussian 16 at Fri Sep 13 03:56:56 2019.
