 Gaussian 16, Revision A.03,
 Gaussian 16:  ES64L-G16RevA.03 25-Dec-2016

 --------------------------
 # td=(NStates=1) B3LYP/SVP
 --------------------------

 --
 TD
 --
 Symbolic Z-matrix:
 Charge =  0 Multiplicity = 1

                         Standard orientation:
 ---------------------------------------------------------------------
 Center     Atomic      Atomic             Coordinates (Angstroms)
 Number     Number       Type             X           Y           Z
 ---------------------------------------------------------------------
      1          8           0        5.431932   -0.079713   -3.215164
      2          8           0       -3.250986   -3.018573    3.075045
      3          8           0       -3.376731   -0.767243    2.999578
      4          8           0       -1.472163    7.220486    1.731111
      5          8           0       -0.428277    7.065280   -0.361924
      6          8           0       -1.990645   -3.967017    0.069376
      7          7           0        2.318316    0.775575    0.592851
      8          7           0        4.421423   -0.497854   -1.184214
      9          7           0       -1.781412    0.766689   -0.542177
     10          7           0       -2.611077   -1.747622   -0.516148
     11          6           0        4.861333   -1.310090   -0.023903
     12          6           0        4.358222   -0.427476    1.182519
     13          6           0        2.847696   -0.174023    1.331814
     14          6           0        1.880814   -0.793946    2.122221
     15          6           0        0.659472   -0.131535    1.828657
     16          6           0        0.989661    0.829568    0.917035
     17          6           0        6.308198   -1.473416   -0.123448
     18          6           0       -0.643990   -0.307649    2.525490
     19          6           0        6.718328   -0.932809   -1.384509
     20          6           0        0.236838    1.942451    0.204207
     21          6           0       -1.018466    1.825500   -0.372023
     22          6           0        5.488193   -0.406296   -2.046151
     23          6           0       -1.846433    2.899377   -0.812392
     24          6           0        2.093706   -1.901363    3.035841
     25          6           0        7.134607   -2.035376    0.957494
     26          6           0       -3.007315    2.451875   -1.373008
     27          6           0       -1.163900   -1.820521    2.530125
     28          6           0       -3.006881    1.036351   -1.169861
     29          6           0       -1.345323    4.303712   -0.769410
     30          6           0        7.992228   -0.728761   -2.011491
     31          6           0       -1.558045    5.093063    0.589484
     32          6           0       -4.220991    3.107991   -2.109089
     33          6           0       -3.964745    0.031849   -1.444073
     34          6           0       -2.778046   -1.833429    2.867588
     35          6           0       -3.770701   -1.290527   -1.103534
     36          6           0        9.266278   -0.962906   -1.583793
     37          6           0       -0.977072    6.529676    0.496100
     38          6           0       -4.749794   -2.426519   -1.478614
     39          6           0       -4.039019   -3.569413   -0.986679
     40          6           0       -2.814635   -3.216516   -0.450908
     41          6           0       -5.928285   -2.226134   -2.224445
     42          6           0       -4.508390   -5.015902   -1.089429
     43          6           0       -6.817028   -3.061809   -2.635324
     44          1           0        4.304186   -2.061124    0.020922
     45          1           0        4.912539    0.672981    1.278464
     46          1           0        4.630874   -1.020666    2.287409
     47          1           0        2.892831    1.590587    0.009422
     48          1           0        3.416856   -0.683247   -1.596317
     49          1           0       -0.676834    0.047615    3.673457
     50          1           0       -1.445687    0.128993    2.144499
     51          1           0        0.845301    2.742223   -0.089031
     52          1           0        3.082310   -1.969035    3.488667
     53          1           0        1.613357   -1.988114    4.076424
     54          1           0        1.783922   -2.848978    2.635308
     55          1           0        6.472814   -2.708733    1.432860
     56          1           0        7.772358   -1.388482    1.669138
     57          1           0        7.900564   -2.746487    0.416044
     58          1           0       -1.293480   -2.232145    1.481825
     59          1           0       -0.667520   -2.534986    3.151464
     60          1           0       -1.640743   -0.424529   -0.282648
     61          1           0       -1.901271    4.782225   -1.559367
     62          1           0       -0.266249    4.363759   -0.911387
     63          1           0        7.844422   -0.482254   -3.029890
     64          1           0       -0.885044    4.594958    1.397281
     65          1           0       -2.604849    4.993274    1.010836
     66          1           0       -4.078859    4.185645   -2.109461
     67          1           0       -5.103073    2.884955   -1.554828
     68          1           0       -4.345126    2.553954   -2.914539
     69          1           0       -5.017265    0.251939   -1.864583
     70          1           0        9.553135   -1.523642   -0.542896
     71          1           0       10.165426   -0.483242   -2.261131
     72          1           0       -4.212172   -2.919430    3.366784
     73          1           0       -6.010302   -1.292234   -2.653869
     74          1           0       -5.524537   -5.180656   -0.661749
     75          1           0       -4.280302   -5.473200   -2.111934
     76          1           0       -3.814251   -5.844975   -0.539718
     77          1           0       -1.030676    8.063926    1.810864
     78          1           0       -7.589031   -2.660099   -3.368632
     79          1           0       -6.598496   -4.124037   -2.514977
 ---------------------------------------------------------------------

 SCF Done:  E(RB3LYP) =  -1947.81598695     A.U. after   18 cycles

 Excitation energies and oscillator strengths:

 Excited State   1:      Singlet-A      1.9129 eV  648.16 nm  f=0.4048  <S**2>=0.000
     154 ->156         0.12460
     155 ->156         0.69094
     155 <-156        -0.11923
 This state for optimization and/or second-order correction.
 Total Energy, E(TD-HF/TD-DFT) =  -1947.74569018
 Copying the excited state density for this state as the 1-particle RhoCI density.

 The electronic state is 1-A.
 Alpha  occ. eigenvalues --  -19.18709 -19.15838 -19.15518 -19.10454 -19.10237
 Alpha  occ. eigenvalues --  -19.09660 -14.39074 -14.35965 -14.35097 -14.29905
 Alpha  occ. eigenvalues --  -10.33185 -10.30484 -10.28093 -10.26221 -10.24326
 Alpha  occ. eigenvalues --  -10.24061 -10.23935 -10.23265 -10.23104 -10.22998
 Alpha  occ. eigenvalues --  -10.22744 -10.22590 -10.22502 -10.22278 -10.22125
 Alpha  occ. eigenvalues --  -10.21894 -10.21546 -10.21001 -10.20469 -10.20368
 Alpha  occ. eigenvalues --  -10.20330 -10.20294 -10.20160 -10.19991 -10.19926
 Alpha  occ. eigenvalues --  -10.19696 -10.19339 -10.19224 -10.18863 -10.18851
 Alpha  occ. eigenvalues --  -10.18740 -10.18392 -10.18375  -1.10389  -1.09797
 Alpha  occ. eigenvalues --   -1.02583  -1.00741  -1.00166  -0.99628  -0.98441
 Alpha  occ. eigenvalues --   -0.98030  -0.94135  -0.90232  -0.82145  -0.81912
 Alpha  occ. eigenvalues --   -0.81353  -0.81238  -0.80953  -0.79123  -0.77573
 Alpha  occ. eigenvalues --   -0.77228  -0.75582  -0.74566  -0.74429  -0.72473
 Alpha  occ. eigenvalues --   -0.71650  -0.71261  -0.69965  -0.68920  -0.67384
 Alpha  occ. eigenvalues --   -0.66232  -0.65571  -0.63770  -0.61822  -0.61053
 Alpha  occ. eigenvalues --   -0.59436  -0.58008  -0.57302  -0.57026  -0.56837
 Alpha  occ. eigenvalues --   -0.56457  -0.55217  -0.54885  -0.53817  -0.53358
 Alpha  occ. eigenvalues --   -0.52195  -0.51171  -0.50587  -0.50170  -0.49199
 Alpha  occ. eigenvalues --   -0.48465  -0.48198  -0.48070  -0.48004  -0.47347
 Alpha  occ. eigenvalues --   -0.46925  -0.46862  -0.46555  -0.45935  -0.45326
 Alpha  occ. eigenvalues --   -0.45199  -0.44921  -0.44719  -0.44395  -0.44097
 Alpha  occ. eigenvalues --   -0.43856  -0.43558  -0.43297  -0.42507  -0.42294
 Alpha  occ. eigenvalues --   -0.42203  -0.41585  -0.41364  -0.41278  -0.40993
 Alpha  occ. eigenvalues --   -0.40798  -0.40234  -0.40093  -0.39890  -0.39597
 Alpha  occ. eigenvalues --   -0.39394  -0.39074  -0.38808  -0.38593  -0.38119
 Alpha  occ. eigenvalues --   -0.37784  -0.37579  -0.36815  -0.36174  -0.36064
 Alpha  occ. eigenvalues --   -0.35604  -0.35457  -0.35239  -0.34893  -0.34678
 Alpha  occ. eigenvalues --   -0.33348  -0.33289  -0.32768  -0.32065  -0.31875
 Alpha  occ. eigenvalues --   -0.31413  -0.30720  -0.29853  -0.28458  -0.28136
 Alpha  occ. eigenvalues --   -0.27133  -0.25592  -0.25208  -0.25130  -0.24746
 Alpha  occ. eigenvalues --   -0.24057  -0.23943  -0.23407  -0.22336  -0.19120
 Alpha virt. eigenvalues --   -0.11580  -0.07439  -0.07222  -0.00743  -0.00462
 Alpha virt. eigenvalues --    0.00299   0.00494   0.02642   0.03018   0.03375
 Alpha virt. eigenvalues --    0.04058   0.04209   0.04588   0.05094   0.05439

 Mulliken charges:
               1
     1  O   -0.227171
     2  O   -0.137189
     3  O   -0.268461
     4  O   -0.295890
     5  O   -0.122867
     6  O   -0.214358
     7  N   -0.081741
     8  N   -0.244253
     9  N   -0.162292
    10  N   -0.381635
    11  C    0.243083
    12  C   -0.003014
    13  C   -0.098304
    14  C   -0.075061
    15  C   -0.061216
    16  C    0.028413
    17  C   -0.123518
    18  C    0.160567
    19  C   -0.052294
    20  C   -0.061299
    21  C    0.123434
    22  C    0.133701
    23  C   -0.134158
    24  C    0.057883
    25  C    0.066603
    26  C   -0.162368
    27  C   -0.082875
    28  C    0.131707
    29  C    0.119805
    30  C    0.015172
    31  C   -0.059902
    32  C    0.252715
    33  C   -0.144952
    34  C    0.117746
    35  C    0.090545
    36  C   -0.109204
    37  C    0.165620
    38  C    0.090165
    39  C   -0.142154
    40  C    0.178021
    41  C   -0.016106
    42  C    0.003475
    43  C   -0.022188
    44  H   -0.071624
    45  H    0.028947
    46  H    0.021478
    47  H    0.191962
    48  H    0.168019
    49  H    0.026852
    50  H   -0.046408
    51  H   -0.037735
    52  H   -0.009149
    53  H    0.010336
    54  H    0.028931
    55  H    0.005262
    56  H    0.072537
    57  H    0.044058
    58  H    0.073640
    59  H    0.014173
    60  H    0.246945
    61  H    0.007360
    62  H    0.004634
    63  H    0.005755
    64  H    0.052487
    65  H    0.063354
    66  H    0.017791
    67  H    0.002545
    68  H   -0.020215
    69  H    0.004803
    70  H    0.048014
    71  H    0.061146
    72  H    0.193506
    73  H   -0.043483
    74  H    0.045045
    75  H    0.042770
    76  H    0.035244
    77  H    0.163457
    78  H    0.035006
    79  H    0.018369
 Sum of Mulliken charges =  -0.00000

 Dipole moment (field-independent basis, Debye):
    X=              0.3933    Y=              0.3553    Z=              2.1189  Tot=              2.1842
 Quadrupole moment (field-independent basis, Debye-Ang):
   XX=           -217.4454   YY=           -249.2589   ZZ=           -261.1421
   XY=             -2.2993   XZ=             34.9615   YZ=             -0.2450

 Normal termination of Gaussian 16 at Mon Sep 16 12:28:25 2019.
