 Gaussian 16, Revision A.03,
 Gaussian 16:  ES64L-G16RevA.03 25-Dec-2016

 --------------------------
 # td=(NStates=1) B3LYP/SVP
 --------------------------

 --
 TD
 --
 Symbolic Z-matrix:
 Charge =  0 Multiplicity = 1

                         Standard orientation:
 ---------------------------------------------------------------------
 Center     Atomic      Atomic             Coordinates (Angstroms)
 Number     Number       Type             X           Y           Z
 ---------------------------------------------------------------------
      1          8           0       -3.427726   -1.130962   -2.933103
      2          8           0        3.185070    2.822183    3.241115
      3          8           0        3.548717    1.160097    4.751916
      4          8           0        7.542642   -1.634737   -0.883408
      5          8           0        6.681544   -2.799898   -2.504457
      6          8           0       -2.720888    1.621729    1.505432
      7          7           0       -0.282616   -2.518932    0.789136
      8          7           0       -2.663363   -1.313638   -0.727737
      9          7           0        1.079656    0.072755   -0.779515
     10          7           0       -0.931227    1.544222   -0.014137
     11          6           0       -3.396563   -1.413310    0.610444
     12          6           0       -2.595386   -2.436515    1.496771
     13          6           0       -1.124614   -2.202205    1.601652
     14          6           0       -0.451924   -1.400155    2.791334
     15          6           0        0.834413   -1.366410    2.382250
     16          6           0        0.963513   -1.966977    1.179974
     17          6           0       -4.792343   -1.933489    0.190308
     18          6           0        2.006454   -0.666615    3.178474
     19          6           0       -4.780210   -2.067709   -1.118192
     20          6           0        2.077946   -1.907952    0.188380
     21          6           0        2.114541   -0.790843   -0.702121
     22          6           0       -3.567732   -1.443094   -1.765917
     23          6           0        3.048010   -0.509722   -1.797239
     24          6           0       -1.376438   -0.573268    3.719544
     25          6           0       -5.782160   -2.187689    1.112653
     26          6           0        2.657077    0.648945   -2.397636
     27          6           0        2.049254    0.736098    2.843621
     28          6           0        1.445281    1.071432   -1.604250
     29          6           0        4.274481   -1.421580   -2.106064
     30          6           0       -5.861164   -2.472599   -2.108880
     31          6           0        5.283472   -1.115088   -1.168112
     32          6           0        3.340103    1.520651   -3.456818
     33          6           0        0.689536    2.160811   -1.744753
     34          6           0        2.976858    1.601554    3.693217
     35          6           0       -0.532259    2.382120   -1.010262
     36          6           0       -6.977004   -3.099087   -1.800556
     37          6           0        6.559961   -1.940257   -1.654577
     38          6           0       -1.460081    3.612285   -1.141404
     39          6           0       -2.316451    3.427021   -0.088113
     40          6           0       -2.064526    2.104449    0.581772
     41          6           0       -1.273464    4.786294   -2.013353
     42          6           0       -3.388967    4.359797    0.399291
     43          6           0       -2.000404    5.970471   -2.039276
     44          1           0       -3.467196   -0.438091    1.122270
     45          1           0       -2.748054   -3.386799    0.937745
     46          1           0       -3.189037   -2.606257    2.377849
     47          1           0       -0.446417   -2.742556   -0.290113
     48          1           0       -2.039802   -0.594702   -0.613367
     49          1           0        1.803015   -0.908060    4.215140
     50          1           0        2.956833   -1.119962    2.973390
     51          1           0        2.813672   -2.628547    0.123829
     52          1           0       -1.928287   -1.622756    4.241382
     53          1           0       -0.784405   -0.044030    4.492224
     54          1           0       -2.053914    0.080499    3.078739
     55          1           0       -5.921870   -1.426059    1.922647
     56          1           0       -5.741487   -3.253823    1.589640
     57          1           0       -6.834707   -2.207717    0.783704
     58          1           0        2.445316    1.030193    1.788313
     59          1           0        1.049960    1.260892    2.637385
     60          1           0        0.333676    0.315890   -0.054569
     61          1           0        4.249834   -1.316735   -3.253271
     62          1           0        3.886908   -2.478683   -2.030645
     63          1           0       -5.743675   -2.075588   -3.128617
     64          1           0        5.244139   -1.340807   -0.079008
     65          1           0        5.567582   -0.164818   -1.212374
     66          1           0        4.294639    0.968248   -3.806541
     67          1           0        3.404118    2.603878   -2.861608
     68          1           0        2.633212    1.438615   -4.167875
     69          1           0        0.993789    2.964967   -2.371080
     70          1           0       -7.359109   -3.284448   -0.849568
     71          1           0       -7.844285   -3.164478   -2.651758
     72          1           0        3.563928    3.400305    3.959914
     73          1           0       -0.454310    4.605481   -2.657855
     74          1           0       -4.056764    4.741176   -0.507349
     75          1           0       -4.178861    3.746648    1.074629
     76          1           0       -2.626311    5.164328    0.867854
     77          1           0        8.445640   -2.089445   -1.298397
     78          1           0       -1.807952    6.689037   -2.748971
     79          1           0       -2.827112    6.281860   -1.410846
 ---------------------------------------------------------------------

 SCF Done:  E(RB3LYP) =  -1947.79696948     A.U. after   21 cycles

 Excitation energies and oscillator strengths:

 Excited State   1:      Singlet-A      0.5152 eV 2406.64 nm  f=0.0002  <S**2>=0.000
     155 ->156         0.70363
 This state for optimization and/or second-order correction.
 Total Energy, E(TD-HF/TD-DFT) =  -1947.77803715
 Copying the excited state density for this state as the 1-particle RhoCI density.

 The electronic state is 1-A.
 Alpha  occ. eigenvalues --  -19.20055 -19.19147 -19.13138 -19.13059 -19.11066
 Alpha  occ. eigenvalues --  -19.09452 -14.37860 -14.36958 -14.33057 -14.31825
 Alpha  occ. eigenvalues --  -10.32455 -10.31779 -10.29081 -10.27420 -10.26562
 Alpha  occ. eigenvalues --  -10.25824 -10.24837 -10.22959 -10.22635 -10.22608
 Alpha  occ. eigenvalues --  -10.22409 -10.22382 -10.22113 -10.22074 -10.21940
 Alpha  occ. eigenvalues --  -10.21603 -10.21382 -10.21337 -10.20856 -10.20687
 Alpha  occ. eigenvalues --  -10.20280 -10.20165 -10.19948 -10.19810 -10.19306
 Alpha  occ. eigenvalues --  -10.19212 -10.18860 -10.18805 -10.18620 -10.18308
 Alpha  occ. eigenvalues --  -10.18219 -10.16629 -10.16288  -1.11816  -1.09455
 Alpha  occ. eigenvalues --   -1.03354  -1.01406  -1.00744  -1.00577  -0.99554
 Alpha  occ. eigenvalues --   -0.96681  -0.93510  -0.92124  -0.84713  -0.82344
 Alpha  occ. eigenvalues --   -0.82039  -0.81496  -0.80887  -0.80024  -0.77627
 Alpha  occ. eigenvalues --   -0.76463  -0.76036  -0.75497  -0.74442  -0.73071
 Alpha  occ. eigenvalues --   -0.71088  -0.70495  -0.69249  -0.68620  -0.67392
 Alpha  occ. eigenvalues --   -0.66153  -0.65292  -0.63144  -0.62051  -0.60951
 Alpha  occ. eigenvalues --   -0.60220  -0.59659  -0.59294  -0.57728  -0.57203
 Alpha  occ. eigenvalues --   -0.56529  -0.56024  -0.55074  -0.53545  -0.53235
 Alpha  occ. eigenvalues --   -0.52737  -0.51398  -0.50910  -0.49990  -0.49584
 Alpha  occ. eigenvalues --   -0.49287  -0.48806  -0.48487  -0.47922  -0.47832
 Alpha  occ. eigenvalues --   -0.47537  -0.47241  -0.46524  -0.46356  -0.46113
 Alpha  occ. eigenvalues --   -0.45822  -0.45668  -0.45228  -0.44872  -0.44233
 Alpha  occ. eigenvalues --   -0.43900  -0.43640  -0.43534  -0.43096  -0.42721
 Alpha  occ. eigenvalues --   -0.42619  -0.42150  -0.41862  -0.41679  -0.41309
 Alpha  occ. eigenvalues --   -0.41222  -0.40781  -0.40374  -0.40113  -0.39600
 Alpha  occ. eigenvalues --   -0.39475  -0.39089  -0.38765  -0.38378  -0.38023
 Alpha  occ. eigenvalues --   -0.37224  -0.36866  -0.36496  -0.36051  -0.35873
 Alpha  occ. eigenvalues --   -0.35764  -0.35712  -0.35276  -0.34376  -0.33722
 Alpha  occ. eigenvalues --   -0.32724  -0.32223  -0.32167  -0.31767  -0.30538
 Alpha  occ. eigenvalues --   -0.30359  -0.30317  -0.29948  -0.29237  -0.28804
 Alpha  occ. eigenvalues --   -0.27476  -0.26604  -0.26491  -0.26285  -0.24915
 Alpha  occ. eigenvalues --   -0.24469  -0.23984  -0.23581  -0.22113  -0.16630
 Alpha virt. eigenvalues --   -0.12301  -0.07234  -0.03958  -0.02841  -0.00326
 Alpha virt. eigenvalues --    0.00182   0.00962   0.01815   0.02037   0.02581
 Alpha virt. eigenvalues --    0.03864   0.03912   0.04577   0.04923   0.05174

 Mulliken charges:
               1
     1  O   -0.220501
     2  O   -0.166263
     3  O   -0.300818
     4  O   -0.187804
     5  O   -0.238138
     6  O   -0.209678
     7  N    0.045309
     8  N   -0.197731
     9  N   -0.061527
    10  N   -0.326628
    11  C    0.008889
    12  C    0.215798
    13  C   -0.187889
    14  C   -0.167858
    15  C   -0.098081
    16  C   -0.064657
    17  C   -0.118426
    18  C    0.238675
    19  C   -0.066780
    20  C   -0.081771
    21  C    0.080179
    22  C    0.161566
    23  C   -0.135649
    24  C    0.000728
    25  C    0.032098
    26  C   -0.159285
    27  C   -0.072058
    28  C    0.121315
    29  C    0.102336
    30  C    0.024884
    31  C    0.089061
    32  C    0.110927
    33  C   -0.120087
    34  C    0.145418
    35  C    0.087196
    36  C   -0.053917
    37  C    0.093745
    38  C    0.047412
    39  C   -0.224402
    40  C    0.206391
    41  C    0.018846
    42  C   -0.026177
    43  C    0.005220
    44  H    0.056263
    45  H   -0.030639
    46  H   -0.012217
    47  H    0.169542
    48  H    0.102149
    49  H    0.015089
    50  H   -0.020337
    51  H   -0.031146
    52  H    0.033876
    53  H    0.017444
    54  H    0.080306
    55  H    0.025498
    56  H    0.046940
    57  H    0.010137
    58  H    0.028415
    59  H    0.055122
    60  H    0.211348
    61  H    0.045372
    62  H    0.022788
    63  H    0.020690
    64  H    0.062408
    65  H   -0.017486
    66  H    0.043252
    67  H    0.077391
    68  H    0.015069
    69  H   -0.045422
    70  H   -0.010209
    71  H    0.030938
    72  H    0.203973
    73  H   -0.023853
    74  H    0.062256
    75  H    0.065536
    76  H    0.075175
    77  H    0.232283
    78  H    0.006510
    79  H    0.025667
 Sum of Mulliken charges =  -0.00000

 Dipole moment (field-independent basis, Debye):
    X=              2.9769    Y=              4.5491    Z=             -1.7603  Tot=              5.7144
 Quadrupole moment (field-independent basis, Debye-Ang):
   XX=           -227.3124   YY=           -234.6683   ZZ=           -280.0407
   XY=              6.2648   XZ=            -23.3989   YZ=            -10.5535

 Normal termination of Gaussian 16 at Wed Jul 24 14:06:14 2019.
