 Gaussian 16, Revision A.03,
 Gaussian 16:  ES64L-G16RevA.03 25-Dec-2016

 --------------------------
 # td=(NStates=1) B3LYP/SVP
 --------------------------

 --
 TD
 --
 Symbolic Z-matrix:
 Charge =  0 Multiplicity = 1

                         Standard orientation:
 ---------------------------------------------------------------------
 Center     Atomic      Atomic             Coordinates (Angstroms)
 Number     Number       Type             X           Y           Z
 ---------------------------------------------------------------------
      1          8           0        5.391881   -0.152766   -3.302142
      2          8           0       -3.247109   -2.959020    3.209596
      3          8           0       -3.318681   -0.776515    3.134655
      4          8           0       -1.147409    7.362828    1.518563
      5          8           0       -0.145193    7.105965   -0.429183
      6          8           0       -2.058905   -3.927028    0.177712
      7          7           0        2.313763    0.787609    0.657280
      8          7           0        4.414686   -0.553590   -1.228638
      9          7           0       -1.800521    0.732702   -0.357502
     10          7           0       -2.692125   -1.707250   -0.557092
     11          6           0        4.706372   -1.280267   -0.009655
     12          6           0        4.267280   -0.538082    1.218275
     13          6           0        2.841549   -0.307997    1.311442
     14          6           0        1.824543   -0.806585    2.100307
     15          6           0        0.562120   -0.092253    1.870662
     16          6           0        0.976427    0.883972    0.885429
     17          6           0        6.158017   -1.537893   -0.183862
     18          6           0       -0.749804   -0.313852    2.625687
     19          6           0        6.601571   -1.089787   -1.423105
     20          6           0        0.166225    1.889436    0.324769
     21          6           0       -1.039819    1.881690   -0.333594
     22          6           0        5.414171   -0.499318   -2.188452
     23          6           0       -1.819197    3.025016   -0.882188
     24          6           0        2.083419   -1.965164    3.014942
     25          6           0        6.980068   -2.169022    0.889276
     26          6           0       -3.042196    2.461280   -1.413238
     27          6           0       -1.222294   -1.619903    2.630315
     28          6           0       -3.007684    1.081742   -1.053641
     29          6           0       -1.287855    4.404801   -0.810742
     30          6           0        7.968784   -1.041859   -1.988203
     31          6           0       -1.305626    5.201219    0.531740
     32          6           0       -4.189558    3.265368   -1.992427
     33          6           0       -3.875520    0.015519   -1.517553
     34          6           0       -2.729106   -1.738924    2.972906
     35          6           0       -3.669735   -1.367219   -1.182953
     36          6           0        9.117579   -1.051044   -1.415274
     37          6           0       -0.797766    6.623815    0.475767
     38          6           0       -4.653532   -2.460449   -1.519991
     39          6           0       -4.089746   -3.588973   -1.131954
     40          6           0       -2.760661   -3.213863   -0.533393
     41          6           0       -5.921540   -2.226410   -2.274812
     42          6           0       -4.476683   -5.010877   -1.175219
     43          6           0       -6.807639   -3.221330   -2.700598
     44          1           0        4.245795   -2.285444   -0.112027
     45          1           0        4.927813    0.507370    1.336152
     46          1           0        4.429008   -1.151586    2.093515
     47          1           0        2.835339    1.503332    0.175892
     48          1           0        3.329212   -0.658807   -1.517101
     49          1           0       -0.752099    0.030703    3.806858
     50          1           0       -1.512891    0.474555    2.245900
     51          1           0        0.623345    2.857510    0.289375
     52          1           0        3.198606   -2.169860    2.980123
     53          1           0        1.909292   -1.938292    4.345183
     54          1           0        1.451837   -2.983551    2.602816
     55          1           0        6.341755   -2.939039    1.415567
     56          1           0        7.314480   -1.584844    1.541375
     57          1           0        7.855747   -2.681631    0.411256
     58          1           0       -1.180654   -2.236300    1.737705
     59          1           0       -0.610174   -2.196704    3.238382
     60          1           0       -1.768054   -0.300008   -0.088050
     61          1           0       -2.005882    5.104465   -1.399356
     62          1           0       -0.390997    4.723923   -1.216253
     63          1           0        7.753816   -0.715440   -3.077538
     64          1           0       -0.505725    4.675725    1.248286
     65          1           0       -2.208461    5.128071    1.195912
     66          1           0       -3.814724    4.193612   -2.032430
     67          1           0       -4.954824    3.085386   -1.474918
     68          1           0       -4.531164    2.958463   -2.982725
     69          1           0       -4.763210    0.447674   -2.243533
     70          1           0        9.218641   -1.364640   -0.403144
     71          1           0       10.059686   -0.836823   -2.167906
     72          1           0       -4.265488   -2.917055    3.549749
     73          1           0       -6.135452   -1.084157   -2.493858
     74          1           0       -5.484921   -5.164685   -0.648537
     75          1           0       -4.702498   -5.371897   -2.230592
     76          1           0       -3.693141   -5.661786   -0.758794
     77          1           0       -0.809329    8.397062    1.424175
     78          1           0       -7.591509   -3.063558   -3.169982
     79          1           0       -6.593447   -4.382455   -2.417396
 ---------------------------------------------------------------------

 SCF Done:  E(RB3LYP) =  -1947.76801966     A.U. after   16 cycles

 Excitation energies and oscillator strengths:

 Excited State   1:      Singlet-A      2.0034 eV  618.87 nm  f=0.4144  <S**2>=0.000
     155 ->156         0.70399
     155 <-156        -0.11427
 This state for optimization and/or second-order correction.
 Total Energy, E(TD-HF/TD-DFT) =  -1947.69439678
 Copying the excited state density for this state as the 1-particle RhoCI density.

 The electronic state is 1-A.
 Alpha  occ. eigenvalues --  -19.19356 -19.16493 -19.12653 -19.12478 -19.10808
 Alpha  occ. eigenvalues --  -19.10589 -14.38038 -14.35272 -14.35138 -14.29904
 Alpha  occ. eigenvalues --  -10.32583 -10.29463 -10.28473 -10.28408 -10.24472
 Alpha  occ. eigenvalues --  -10.24237 -10.23946 -10.22865 -10.22842 -10.22747
 Alpha  occ. eigenvalues --  -10.22635 -10.22532 -10.22366 -10.22305 -10.22219
 Alpha  occ. eigenvalues --  -10.22004 -10.21509 -10.21420 -10.20445 -10.20317
 Alpha  occ. eigenvalues --  -10.20245 -10.20082 -10.19949 -10.19885 -10.19715
 Alpha  occ. eigenvalues --  -10.19667 -10.19589 -10.19535 -10.19461 -10.19337
 Alpha  occ. eigenvalues --  -10.19182 -10.18346 -10.16835  -1.09776  -1.09270
 Alpha  occ. eigenvalues --   -1.05136  -1.02578  -0.99854  -0.99639  -0.98745
 Alpha  occ. eigenvalues --   -0.96336  -0.94772  -0.94360  -0.82311  -0.81985
 Alpha  occ. eigenvalues --   -0.81469  -0.81307  -0.81132  -0.79938  -0.77894
 Alpha  occ. eigenvalues --   -0.77376  -0.76456  -0.75777  -0.74128  -0.72863
 Alpha  occ. eigenvalues --   -0.71288  -0.70771  -0.70337  -0.68998  -0.68122
 Alpha  occ. eigenvalues --   -0.66414  -0.65380  -0.63749  -0.60894  -0.60283
 Alpha  occ. eigenvalues --   -0.59833  -0.58705  -0.57922  -0.56722  -0.56247
 Alpha  occ. eigenvalues --   -0.55693  -0.55154  -0.54821  -0.53760  -0.52968
 Alpha  occ. eigenvalues --   -0.52721  -0.52165  -0.50958  -0.50622  -0.50321
 Alpha  occ. eigenvalues --   -0.49198  -0.48162  -0.47812  -0.47789  -0.47560
 Alpha  occ. eigenvalues --   -0.47301  -0.46455  -0.46286  -0.46058  -0.45840
 Alpha  occ. eigenvalues --   -0.45637  -0.45040  -0.44963  -0.44459  -0.44194
 Alpha  occ. eigenvalues --   -0.43734  -0.43229  -0.42933  -0.42595  -0.42363
 Alpha  occ. eigenvalues --   -0.42115  -0.41858  -0.41742  -0.41562  -0.41031
 Alpha  occ. eigenvalues --   -0.40689  -0.40509  -0.40224  -0.39839  -0.39702
 Alpha  occ. eigenvalues --   -0.39634  -0.39303  -0.39182  -0.38841  -0.38612
 Alpha  occ. eigenvalues --   -0.38049  -0.37834  -0.37660  -0.37537  -0.37209
 Alpha  occ. eigenvalues --   -0.36800  -0.35686  -0.35004  -0.34737  -0.33525
 Alpha  occ. eigenvalues --   -0.33235  -0.32788  -0.32376  -0.31685  -0.31334
 Alpha  occ. eigenvalues --   -0.31155  -0.30487  -0.29574  -0.28776  -0.28314
 Alpha  occ. eigenvalues --   -0.27270  -0.26298  -0.25849  -0.25426  -0.25124
 Alpha  occ. eigenvalues --   -0.24103  -0.23946  -0.23842  -0.22863  -0.18587
 Alpha virt. eigenvalues --   -0.10706  -0.06852  -0.04944  -0.00940  -0.00562
 Alpha virt. eigenvalues --    0.00623   0.00942   0.02041   0.02188   0.03000
 Alpha virt. eigenvalues --    0.03239   0.04032   0.04658   0.04731   0.04816

 Mulliken charges:
               1
     1  O   -0.154486
     2  O   -0.245429
     3  O   -0.162922
     4  O   -0.228549
     5  O   -0.240173
     6  O   -0.193666
     7  N   -0.045105
     8  N   -0.274129
     9  N   -0.146080
    10  N   -0.243677
    11  C    0.115372
    12  C    0.181318
    13  C   -0.081015
    14  C   -0.084151
    15  C   -0.042193
    16  C    0.056120
    17  C   -0.222199
    18  C    0.059593
    19  C   -0.129928
    20  C   -0.113382
    21  C    0.096005
    22  C    0.166525
    23  C   -0.012918
    24  C   -0.079804
    25  C    0.175915
    26  C   -0.169051
    27  C    0.019048
    28  C    0.069177
    29  C    0.072110
    30  C    0.010637
    31  C   -0.056134
    32  C    0.296529
    33  C   -0.153604
    34  C    0.095923
    35  C    0.069452
    36  C   -0.041818
    37  C    0.124920
    38  C    0.048536
    39  C   -0.211672
    40  C    0.196648
    41  C   -0.045531
    42  C    0.065268
    43  C    0.043890
    44  H    0.024344
    45  H    0.034979
    46  H   -0.023276
    47  H    0.114202
    48  H    0.158496
    49  H    0.021168
    50  H    0.030374
    51  H   -0.033747
    52  H    0.002770
    53  H    0.046802
    54  H    0.069873
    55  H    0.014952
    56  H   -0.029982
    57  H    0.037651
    58  H    0.033137
    59  H   -0.005576
    60  H    0.182987
    61  H    0.015201
    62  H    0.010859
    63  H    0.023650
    64  H    0.050811
    65  H    0.039822
    66  H   -0.026456
    67  H   -0.038492
    68  H    0.008195
    69  H    0.012825
    70  H   -0.000195
    71  H    0.053948
    72  H    0.222747
    73  H    0.024031
    74  H    0.039364
    75  H    0.037057
    76  H    0.032028
    77  H    0.244726
    78  H   -0.054338
    79  H    0.039694
 Sum of Mulliken charges =  -0.00000

 Dipole moment (field-independent basis, Debye):
    X=             -1.5612    Y=              1.4569    Z=              2.8488  Tot=              3.5603
 Quadrupole moment (field-independent basis, Debye-Ang):
   XX=           -225.4618   YY=           -235.5039   ZZ=           -263.4089
   XY=             -6.7201   XZ=             32.6125   YZ=              7.4821

 Normal termination of Gaussian 16 at Sat Sep 21 07:10:16 2019.
