 Gaussian 16, Revision A.03,
 Gaussian 16:  ES64L-G16RevA.03 25-Dec-2016

 --------------------------
 # td=(NStates=1) B3LYP/SVP
 --------------------------

 --
 TD
 --
 Symbolic Z-matrix:
 Charge =  0 Multiplicity = 1

                         Standard orientation:
 ---------------------------------------------------------------------
 Center     Atomic      Atomic             Coordinates (Angstroms)
 Number     Number       Type             X           Y           Z
 ---------------------------------------------------------------------
      1          8           0        5.568499   -0.032039   -3.341838
      2          8           0       -3.040419   -2.921395    3.267279
      3          8           0       -3.363880   -0.641389    2.948339
      4          8           0       -1.550261    7.065530    1.442237
      5          8           0       -0.726805    7.029604   -0.634793
      6          8           0       -1.717375   -3.947704    0.075652
      7          7           0        2.407041    0.941886    0.506586
      8          7           0        4.397633   -0.317037   -1.220271
      9          7           0       -1.931838    0.717533   -0.377611
     10          7           0       -2.537194   -1.899984   -0.501296
     11          6           0        4.792301   -1.042506   -0.040312
     12          6           0        4.363997   -0.207123    1.262378
     13          6           0        2.994121   -0.003548    1.389821
     14          6           0        1.994561   -0.548091    2.143654
     15          6           0        0.788169    0.111970    1.892655
     16          6           0        0.976194    1.169879    0.799505
     17          6           0        6.282360   -1.344095   -0.068859
     18          6           0       -0.637259   -0.081042    2.548668
     19          6           0        6.745646   -0.763863   -1.322276
     20          6           0        0.132259    2.074512    0.179702
     21          6           0       -1.120886    1.828799   -0.269521
     22          6           0        5.514929   -0.293416   -2.130144
     23          6           0       -2.003343    2.844135   -0.866996
     24          6           0        2.252352   -1.474253    3.305687
     25          6           0        7.097564   -2.067790    0.854181
     26          6           0       -3.253182    2.300122   -1.217082
     27          6           0       -1.171048   -1.596803    2.571548
     28          6           0       -3.103534    0.859775   -0.972721
     29          6           0       -1.781987    4.389224   -1.058237
     30          6           0        8.005369   -0.903159   -1.979343
     31          6           0       -1.868556    4.999621    0.285800
     32          6           0       -4.541501    2.817522   -1.864394
     33          6           0       -3.939243   -0.224960   -1.311075
     34          6           0       -2.612579   -1.562793    2.868746
     35          6           0       -3.673184   -1.583344   -1.085454
     36          6           0        9.242779   -1.240507   -1.503825
     37          6           0       -1.241739    6.489631    0.235324
     38          6           0       -4.542767   -2.724205   -1.441865
     39          6           0       -3.862208   -3.862634   -1.041583
     40          6           0       -2.630466   -3.376849   -0.386702
     41          6           0       -5.800152   -2.634423   -2.209710
     42          6           0       -4.183603   -5.321849   -1.046566
     43          6           0       -6.735515   -3.581698   -2.556543
     44          1           0        4.043968   -2.013677    0.077029
     45          1           0        4.992041    0.832249    1.400811
     46          1           0        4.867909   -0.903112    2.026229
     47          1           0        2.979788    1.739167   -0.042281
     48          1           0        3.512510   -0.006721   -1.513540
     49          1           0       -0.505574    0.159384    3.834129
     50          1           0       -1.384147    0.567586    2.076937
     51          1           0        0.605912    2.969902   -0.237149
     52          1           0        3.389908   -1.616664    3.147301
     53          1           0        1.807337   -1.126982    4.297883
     54          1           0        1.857645   -2.545359    2.987338
     55          1           0        6.190130   -2.193795    1.788533
     56          1           0        7.818732   -1.245925    1.280256
     57          1           0        7.645395   -2.996814    0.405394
     58          1           0       -0.890581   -2.003071    1.660285
     59          1           0       -0.616232   -2.295402    3.218816
     60          1           0       -1.591366   -0.211697   -0.107742
     61          1           0       -2.238753    4.822162   -1.848957
     62          1           0       -0.691297    4.636585   -1.574942
     63          1           0        7.955199   -0.666157   -2.950075
     64          1           0       -1.169112    4.433995    0.950601
     65          1           0       -2.968791    5.160908    0.693245
     66          1           0       -4.559596    4.051451   -1.591186
     67          1           0       -5.355189    2.596227   -1.150413
     68          1           0       -4.587697    2.553307   -2.946983
     69          1           0       -4.979561    0.128871   -1.814963
     70          1           0        9.447870   -1.442671   -0.402763
     71          1           0       10.315947   -1.011802   -1.873923
     72          1           0       -4.006261   -3.041622    3.322445
     73          1           0       -6.425172   -1.587599   -2.292253
     74          1           0       -5.242998   -5.384733   -0.629057
     75          1           0       -3.947194   -5.619994   -2.166614
     76          1           0       -3.549614   -5.858591   -0.216936
     77          1           0       -1.199978    7.883894    1.213955
     78          1           0       -7.478977   -3.289625   -3.187383
     79          1           0       -6.628863   -4.668763   -2.527657
 ---------------------------------------------------------------------

 SCF Done:  E(RB3LYP) =  -1947.76518998     A.U. after   17 cycles

 Excitation energies and oscillator strengths:

 Excited State   1:      Singlet-A      1.9212 eV  645.36 nm  f=0.4523  <S**2>=0.000
     155 ->156         0.69888
     155 <-156        -0.11644
 This state for optimization and/or second-order correction.
 Total Energy, E(TD-HF/TD-DFT) =  -1947.69458836
 Copying the excited state density for this state as the 1-particle RhoCI density.

 The electronic state is 1-A.
 Alpha  occ. eigenvalues --  -19.18047 -19.15159 -19.14248 -19.13030 -19.11221
 Alpha  occ. eigenvalues --  -19.10897 -14.39154 -14.36515 -14.35871 -14.28546
 Alpha  occ. eigenvalues --  -10.32502 -10.31440 -10.29622 -10.27162 -10.26433
 Alpha  occ. eigenvalues --  -10.24717 -10.24286 -10.24202 -10.24178 -10.23386
 Alpha  occ. eigenvalues --  -10.23273 -10.23060 -10.22662 -10.22176 -10.22146
 Alpha  occ. eigenvalues --  -10.22035 -10.21998 -10.21823 -10.21542 -10.21410
 Alpha  occ. eigenvalues --  -10.21378 -10.21254 -10.21252 -10.20996 -10.20923
 Alpha  occ. eigenvalues --  -10.20878 -10.20834 -10.20530 -10.19799 -10.19580
 Alpha  occ. eigenvalues --  -10.19572 -10.19494 -10.19145  -1.13137  -1.06236
 Alpha  occ. eigenvalues --   -1.04430  -1.04401  -1.01270  -0.99337  -0.97408
 Alpha  occ. eigenvalues --   -0.95760  -0.93485  -0.91744  -0.82928  -0.82582
 Alpha  occ. eigenvalues --   -0.81602  -0.80533  -0.80278  -0.79371  -0.77540
 Alpha  occ. eigenvalues --   -0.77153  -0.76512  -0.76160  -0.74563  -0.71464
 Alpha  occ. eigenvalues --   -0.71005  -0.70184  -0.69766  -0.68530  -0.67260
 Alpha  occ. eigenvalues --   -0.66437  -0.65770  -0.63391  -0.61493  -0.60753
 Alpha  occ. eigenvalues --   -0.58689  -0.58073  -0.57218  -0.57120  -0.56548
 Alpha  occ. eigenvalues --   -0.56187  -0.55012  -0.54682  -0.54270  -0.53239
 Alpha  occ. eigenvalues --   -0.51827  -0.51654  -0.50680  -0.50604  -0.49692
 Alpha  occ. eigenvalues --   -0.49596  -0.49245  -0.48864  -0.48133  -0.47700
 Alpha  occ. eigenvalues --   -0.46970  -0.46578  -0.46247  -0.45847  -0.45778
 Alpha  occ. eigenvalues --   -0.45315  -0.45168  -0.44880  -0.44322  -0.43905
 Alpha  occ. eigenvalues --   -0.43469  -0.43416  -0.43140  -0.43037  -0.42787
 Alpha  occ. eigenvalues --   -0.42489  -0.42171  -0.41866  -0.41576  -0.41186
 Alpha  occ. eigenvalues --   -0.41065  -0.40633  -0.40114  -0.39564  -0.39415
 Alpha  occ. eigenvalues --   -0.39179  -0.38830  -0.38336  -0.38054  -0.37807
 Alpha  occ. eigenvalues --   -0.37696  -0.37414  -0.37034  -0.36825  -0.36498
 Alpha  occ. eigenvalues --   -0.35778  -0.35600  -0.34814  -0.34571  -0.34354
 Alpha  occ. eigenvalues --   -0.34095  -0.33333  -0.33144  -0.32692  -0.31376
 Alpha  occ. eigenvalues --   -0.31300  -0.30265  -0.29771  -0.29216  -0.28383
 Alpha  occ. eigenvalues --   -0.27765  -0.26370  -0.25960  -0.25484  -0.25007
 Alpha  occ. eigenvalues --   -0.24294  -0.24000  -0.23291  -0.22403  -0.18582
 Alpha virt. eigenvalues --   -0.10999  -0.07656  -0.07152  -0.01550  -0.00212
 Alpha virt. eigenvalues --   -0.00143   0.00403   0.00789   0.00968   0.02597
 Alpha virt. eigenvalues --    0.02960   0.03174   0.04172   0.04572   0.05277

 Mulliken charges:
               1
     1  O   -0.237567
     2  O   -0.303762
     3  O   -0.181439
     4  O   -0.154385
     5  O   -0.148452
     6  O   -0.131262
     7  N   -0.233635
     8  N   -0.212585
     9  N   -0.035145
    10  N   -0.309655
    11  C    0.063603
    12  C    0.036389
    13  C    0.041531
    14  C   -0.112699
    15  C   -0.089389
    16  C    0.091389
    17  C   -0.105281
    18  C   -0.021830
    19  C   -0.056084
    20  C   -0.110192
    21  C    0.136204
    22  C    0.189646
    23  C   -0.120811
    24  C    0.057148
    25  C   -0.025735
    26  C   -0.130678
    27  C    0.048773
    28  C    0.055398
    29  C    0.071072
    30  C    0.054005
    31  C   -0.021307
    32  C    0.061053
    33  C   -0.137199
    34  C    0.190264
    35  C    0.101858
    36  C   -0.096354
    37  C    0.094522
    38  C    0.073700
    39  C   -0.223579
    40  C    0.132605
    41  C   -0.076414
    42  C    0.032633
    43  C   -0.023081
    44  H    0.049056
    45  H    0.031474
    46  H   -0.001890
    47  H    0.160883
    48  H    0.117475
    49  H    0.030684
    50  H    0.041332
    51  H   -0.005264
    52  H   -0.000092
    53  H    0.059829
    54  H    0.042127
    55  H    0.040705
    56  H    0.077210
    57  H    0.091693
    58  H    0.040405
    59  H    0.030735
    60  H    0.144192
    61  H   -0.022496
    62  H    0.022269
    63  H   -0.030134
    64  H    0.051336
    65  H    0.068141
    66  H    0.023084
    67  H    0.038889
    68  H    0.070043
    69  H    0.004752
    70  H    0.007633
    71  H    0.049978
    72  H    0.176149
    73  H    0.038075
    74  H    0.047840
    75  H    0.071312
    76  H    0.052702
    77  H    0.124270
    78  H    0.004882
    79  H    0.017451
 Sum of Mulliken charges =  -0.00000

 Dipole moment (field-independent basis, Debye):
    X=             -0.0806    Y=              1.6478    Z=              2.2488  Tot=              2.7891
 Quadrupole moment (field-independent basis, Debye-Ang):
   XX=           -221.6092   YY=           -245.8824   ZZ=           -270.3069
   XY=             -1.5119   XZ=             36.4046   YZ=              2.1280

 Normal termination of Gaussian 16 at Tue Sep 24 01:44:07 2019.
