 Gaussian 16, Revision A.03,
 Gaussian 16:  ES64L-G16RevA.03 25-Dec-2016

 --------------------------
 # td=(NStates=1) B3LYP/SVP
 --------------------------

 --
 TD
 --
 Symbolic Z-matrix:
 Charge =  0 Multiplicity = 1

                         Standard orientation:
 ---------------------------------------------------------------------
 Center     Atomic      Atomic             Coordinates (Angstroms)
 Number     Number       Type             X           Y           Z
 ---------------------------------------------------------------------
      1          8           0       -3.345262   -0.742591   -3.079267
      2          8           0        3.363990    2.485701    3.161554
      3          8           0        3.762405    0.545480    4.403277
      4          8           0        7.655395   -1.461154   -0.820626
      5          8           0        6.714427   -2.529383   -2.497633
      6          8           0       -2.734819    1.287106    1.667423
      7          7           0       -0.255158   -2.554306    0.505452
      8          7           0       -2.762749   -1.012649   -0.842308
      9          7           0        1.235557    0.233653   -0.681913
     10          7           0       -0.969104    1.482763    0.119438
     11          6           0       -3.357046   -1.340573    0.362254
     12          6           0       -2.587319   -2.613946    1.083412
     13          6           0       -1.283732   -2.268292    1.353753
     14          6           0       -0.707826   -1.673632    2.613557
     15          6           0        0.705562   -1.555765    2.305765
     16          6           0        0.967102   -2.026538    0.874870
     17          6           0       -4.793887   -1.777000   -0.020824
     18          6           0        1.797217   -0.883132    3.084285
     19          6           0       -4.817295   -1.849540   -1.372324
     20          6           0        2.210565   -1.846459    0.050727
     21          6           0        2.191539   -0.702001   -0.734507
     22          6           0       -3.605802   -1.104446   -1.877207
     23          6           0        3.102125   -0.297182   -1.760136
     24          6           0       -1.378429   -1.236521    3.752853
     25          6           0       -5.708972   -2.269527    1.049802
     26          6           0        2.550142    0.853892   -2.359159
     27          6           0        1.928035    0.595893    2.870662
     28          6           0        1.388717    1.186154   -1.646100
     29          6           0        4.343352   -1.061618   -2.097662
     30          6           0       -5.919779   -2.144577   -2.318133
     31          6           0        5.469280   -0.819416   -1.253848
     32          6           0        3.172279    1.728235   -3.451232
     33          6           0        0.474731    2.253484   -1.677100
     34          6           0        3.115444    1.178447    3.556305
     35          6           0       -0.615358    2.475624   -0.715869
     36          6           0       -6.922153   -2.935660   -2.078957
     37          6           0        6.568054   -1.784811   -1.620051
     38          6           0       -1.480898    3.643635   -0.587187
     39          6           0       -2.342610    3.327866    0.414902
     40          6           0       -2.014857    2.010625    0.854696
     41          6           0       -1.332348    4.717818   -1.423777
     42          6           0       -3.442310    4.141465    0.917033
     43          6           0       -2.081252    5.879852   -1.427293
     44          1           0       -3.287567   -0.502165    1.227789
     45          1           0       -2.746973   -3.556494    0.450609
     46          1           0       -3.366389   -2.747418    1.735656
     47          1           0       -0.275388   -2.612749   -0.623271
     48          1           0       -1.944674   -0.149822   -0.758668
     49          1           0        1.340369   -1.097691    4.079192
     50          1           0        2.815410   -1.492785    3.012811
     51          1           0        3.026244   -2.529649   -0.018106
     52          1           0       -1.942331   -2.071464    4.003582
     53          1           0       -0.549811   -1.114102    4.701588
     54          1           0       -2.053929   -0.335644    3.528167
     55          1           0       -5.862601   -1.506341    1.922709
     56          1           0       -5.718093   -3.438859    1.399382
     57          1           0       -6.672358   -1.979782    0.650510
     58          1           0        2.094645    0.869992    1.869457
     59          1           0        0.945719    1.132927    3.164048
     60          1           0        0.315346    0.316708   -0.272621
     61          1           0        4.498091   -0.707773   -3.233811
     62          1           0        4.157270   -2.140416   -2.255459
     63          1           0       -5.860449   -1.557930   -3.367970
     64          1           0        5.273132   -1.004393   -0.158922
     65          1           0        5.693419    0.215018   -1.176827
     66          1           0        4.085099    1.130324   -4.196063
     67          1           0        3.816851    2.656793   -3.108742
     68          1           0        2.353478    2.153391   -3.991724
     69          1           0        0.691810    3.035204   -2.438623
     70          1           0       -7.202631   -3.513565   -1.112907
     71          1           0       -7.577450   -3.313879   -2.844484
     72          1           0        4.089495    2.699598    3.702756
     73          1           0       -0.541856    4.455961   -2.306537
     74          1           0       -4.091727    4.596709    0.366035
     75          1           0       -3.960008    3.783824    1.841173
     76          1           0       -3.012132    5.102990    1.421456
     77          1           0        8.408262   -2.025026   -1.120721
     78          1           0       -1.710757    6.772012   -2.187040
     79          1           0       -2.850054    5.934884   -0.628017
 ---------------------------------------------------------------------

 SCF Done:  E(RB3LYP) =  -1947.77309333     A.U. after   24 cycles

 Excitation energies and oscillator strengths:

 Excited State   1:      Singlet-A      0.3033 eV 4088.03 nm  f=0.0008  <S**2>=0.000
     155 ->156         0.70515
 This state for optimization and/or second-order correction.
 Total Energy, E(TD-HF/TD-DFT) =  -1947.76194778
 Copying the excited state density for this state as the 1-particle RhoCI density.

 The electronic state is 1-A.
 Alpha  occ. eigenvalues --  -19.18434 -19.17652 -19.15181 -19.12815 -19.12577
 Alpha  occ. eigenvalues --  -19.06730 -14.38184 -14.37221 -14.33446 -14.32320
 Alpha  occ. eigenvalues --  -10.33271 -10.32014 -10.28914 -10.26720 -10.26397
 Alpha  occ. eigenvalues --  -10.25845 -10.25582 -10.24140 -10.23661 -10.23451
 Alpha  occ. eigenvalues --  -10.23348 -10.23110 -10.22512 -10.22486 -10.22432
 Alpha  occ. eigenvalues --  -10.22239 -10.21641 -10.21515 -10.21355 -10.21257
 Alpha  occ. eigenvalues --  -10.20662 -10.20430 -10.20054 -10.19861 -10.19679
 Alpha  occ. eigenvalues --  -10.19021 -10.19014 -10.18535 -10.18281 -10.18095
 Alpha  occ. eigenvalues --  -10.18012 -10.17743 -10.17701  -1.11855  -1.09017
 Alpha  occ. eigenvalues --   -1.02047  -1.02022  -1.00870  -1.00018  -0.97900
 Alpha  occ. eigenvalues --   -0.95630  -0.94626  -0.91086  -0.85537  -0.83825
 Alpha  occ. eigenvalues --   -0.83046  -0.80770  -0.80242  -0.79850  -0.79009
 Alpha  occ. eigenvalues --   -0.78048  -0.76394  -0.75721  -0.74353  -0.72960
 Alpha  occ. eigenvalues --   -0.72281  -0.70491  -0.69777  -0.69405  -0.68563
 Alpha  occ. eigenvalues --   -0.66587  -0.65259  -0.63915  -0.61874  -0.61372
 Alpha  occ. eigenvalues --   -0.60264  -0.58582  -0.58553  -0.58375  -0.57552
 Alpha  occ. eigenvalues --   -0.56502  -0.54823  -0.54298  -0.53641  -0.52923
 Alpha  occ. eigenvalues --   -0.52441  -0.51637  -0.51472  -0.50267  -0.49850
 Alpha  occ. eigenvalues --   -0.49634  -0.49011  -0.48852  -0.48275  -0.48069
 Alpha  occ. eigenvalues --   -0.47937  -0.47558  -0.46918  -0.46711  -0.46063
 Alpha  occ. eigenvalues --   -0.45104  -0.44921  -0.44725  -0.44313  -0.43830
 Alpha  occ. eigenvalues --   -0.43656  -0.43557  -0.43351  -0.43174  -0.42607
 Alpha  occ. eigenvalues --   -0.42325  -0.41888  -0.41748  -0.41206  -0.41050
 Alpha  occ. eigenvalues --   -0.40562  -0.40463  -0.40239  -0.40031  -0.39766
 Alpha  occ. eigenvalues --   -0.39608  -0.39450  -0.39113  -0.38644  -0.38347
 Alpha  occ. eigenvalues --   -0.37968  -0.37574  -0.36855  -0.36563  -0.36036
 Alpha  occ. eigenvalues --   -0.35672  -0.35003  -0.34799  -0.34532  -0.33450
 Alpha  occ. eigenvalues --   -0.33331  -0.33133  -0.32420  -0.32005  -0.31453
 Alpha  occ. eigenvalues --   -0.30889  -0.30607  -0.30393  -0.29568  -0.29096
 Alpha  occ. eigenvalues --   -0.27998  -0.27609  -0.26550  -0.24398  -0.23577
 Alpha  occ. eigenvalues --   -0.22889  -0.22494  -0.22366  -0.22076  -0.17650
 Alpha virt. eigenvalues --   -0.14092  -0.09363  -0.03936  -0.02982  -0.01408
 Alpha virt. eigenvalues --   -0.00597   0.00581   0.01338   0.02784   0.03107
 Alpha virt. eigenvalues --    0.03411   0.03538   0.04272   0.04546   0.04976

 Mulliken charges:
               1
     1  O   -0.316753
     2  O   -0.175899
     3  O   -0.247071
     4  O   -0.233872
     5  O   -0.153557
     6  O   -0.280964
     7  N   -0.075830
     8  N   -0.183240
     9  N   -0.022241
    10  N   -0.302835
    11  C   -0.087612
    12  C    0.162973
    13  C   -0.003911
    14  C   -0.076284
    15  C   -0.148179
    16  C   -0.037134
    17  C   -0.141823
    18  C    0.087603
    19  C   -0.056100
    20  C   -0.060877
    21  C    0.082794
    22  C    0.135961
    23  C   -0.078962
    24  C    0.044928
    25  C    0.040074
    26  C   -0.067558
    27  C    0.049446
    28  C    0.051083
    29  C    0.057944
    30  C   -0.006585
    31  C    0.023991
    32  C   -0.024753
    33  C   -0.067365
    34  C    0.134577
    35  C    0.067708
    36  C   -0.069998
    37  C    0.137020
    38  C    0.128014
    39  C   -0.137817
    40  C    0.183957
    41  C   -0.108657
    42  C    0.132630
    43  C   -0.045170
    44  H    0.098870
    45  H   -0.012833
    46  H   -0.061422
    47  H    0.165612
    48  H    0.206183
    49  H   -0.002316
    50  H    0.025561
    51  H   -0.002302
    52  H   -0.001354
    53  H    0.025157
    54  H    0.068237
    55  H    0.023993
    56  H    0.077643
    57  H    0.012892
    58  H    0.001986
    59  H    0.061895
    60  H    0.159502
    61  H    0.030195
    62  H    0.029780
    63  H    0.051834
    64  H    0.042599
    65  H    0.028191
    66  H    0.058444
    67  H    0.058023
    68  H    0.036931
    69  H   -0.016691
    70  H    0.022151
    71  H    0.010744
    72  H    0.152104
    73  H    0.032388
    74  H   -0.012845
    75  H    0.025232
    76  H    0.017132
    77  H    0.180542
    78  H    0.071862
    79  H    0.024424
 Sum of Mulliken charges =  -0.00000

 Dipole moment (field-independent basis, Debye):
    X=              3.6671    Y=              4.3484    Z=             -0.4360  Tot=              5.7050
 Quadrupole moment (field-independent basis, Debye-Ang):
   XX=           -237.4097   YY=           -229.5672   ZZ=           -276.7870
   XY=              2.9528   XZ=            -25.9313   YZ=             -7.4797

 Normal termination of Gaussian 16 at Wed Jul 31 04:52:07 2019.
