 Gaussian 16, Revision A.03,
 Gaussian 16:  ES64L-G16RevA.03 25-Dec-2016

 --------------------------
 # td=(NStates=1) B3LYP/SVP
 --------------------------

 --
 TD
 --
 Symbolic Z-matrix:
 Charge =  0 Multiplicity = 1

                         Standard orientation:
 ---------------------------------------------------------------------
 Center     Atomic      Atomic             Coordinates (Angstroms)
 Number     Number       Type             X           Y           Z
 ---------------------------------------------------------------------
      1          8           0        5.391393    0.143664   -3.229245
      2          8           0       -3.130645   -2.858140    3.174422
      3          8           0       -3.371098   -0.624730    3.112121
      4          8           0       -1.369471    7.204391    1.523845
      5          8           0       -0.918859    7.183427   -0.723980
      6          8           0       -1.862789   -4.125373   -0.003277
      7          7           0        2.319912    0.795852    0.531419
      8          7           0        4.474020   -0.655433   -1.234544
      9          7           0       -1.902631    0.663311   -0.360596
     10          7           0       -2.525777   -2.013631   -0.595782
     11          6           0        4.908326   -1.261101    0.021663
     12          6           0        4.394970   -0.437166    1.244939
     13          6           0        2.990539   -0.097438    1.326035
     14          6           0        1.964041   -0.665633    2.073158
     15          6           0        0.680382   -0.136843    1.739739
     16          6           0        0.921094    0.894972    0.725402
     17          6           0        6.437024   -1.280886   -0.117772
     18          6           0       -0.607472   -0.294432    2.539147
     19          6           0        6.751531   -0.881835   -1.422974
     20          6           0        0.248043    1.957803    0.176037
     21          6           0       -1.103303    1.779030   -0.309520
     22          6           0        5.514766   -0.326230   -2.119217
     23          6           0       -1.955316    2.936706   -0.757964
     24          6           0        2.236983   -1.722041    3.100945
     25          6           0        7.212119   -1.966931    0.964123
     26          6           0       -3.189440    2.422497   -1.180304
     27          6           0       -1.295679   -1.675663    2.346275
     28          6           0       -3.126023    0.930508   -0.923391
     29          6           0       -1.583076    4.314381   -0.841705
     30          6           0        8.054520   -0.824564   -2.025551
     31          6           0       -1.584730    5.079567    0.521788
     32          6           0       -4.351313    3.050459   -1.826838
     33          6           0       -3.942329   -0.077801   -1.305151
     34          6           0       -2.670151   -1.625209    2.908814
     35          6           0       -3.658965   -1.494518   -1.234227
     36          6           0        9.242461   -0.851637   -1.374810
     37          6           0       -1.141887    6.584246    0.358932
     38          6           0       -4.565967   -2.593708   -1.582422
     39          6           0       -4.042766   -3.778940   -1.176294
     40          6           0       -2.637668   -3.349497   -0.543542
     41          6           0       -5.969738   -2.324071   -2.043579
     42          6           0       -4.444068   -5.236318   -1.080398
     43          6           0       -6.820161   -3.251244   -2.467848
     44          1           0        4.506311   -2.228571    0.251032
     45          1           0        4.918783    0.506058    1.100299
     46          1           0        4.891341   -0.966585    2.009797
     47          1           0        2.741738    1.540553   -0.054094
     48          1           0        3.426012   -0.480818   -1.481554
     49          1           0       -0.198633   -0.166920    3.603972
     50          1           0       -1.296616    0.621747    2.332100
     51          1           0        0.869689    2.770284   -0.027510
     52          1           0        3.224764   -1.943635    3.439557
     53          1           0        1.857598   -1.686679    4.004171
     54          1           0        1.959648   -2.743838    2.733725
     55          1           0        6.609194   -2.612927    1.655292
     56          1           0        7.732218   -1.237984    1.526963
     57          1           0        7.981020   -2.756443    0.333868
     58          1           0       -1.339849   -2.270193    1.451200
     59          1           0       -0.796229   -2.409843    3.089733
     60          1           0       -1.634329   -0.390256   -0.368291
     61          1           0       -2.163942    4.925036   -1.405039
     62          1           0       -0.520336    4.249757   -1.205179
     63          1           0        8.022473   -0.610893   -3.194673
     64          1           0       -1.030681    4.705331    1.368203
     65          1           0       -2.537883    5.312291    0.981250
     66          1           0       -4.278057    3.964521   -1.823528
     67          1           0       -5.219018    2.850757   -1.017090
     68          1           0       -4.495904    2.472612   -2.778958
     69          1           0       -4.784277    0.228755   -1.862239
     70          1           0        9.234922   -0.576772   -0.350761
     71          1           0       10.406484   -0.801032   -1.680331
     72          1           0       -4.084946   -2.840679    3.377758
     73          1           0       -6.629433   -1.336770   -1.806288
     74          1           0       -5.445141   -5.260012   -0.535617
     75          1           0       -4.576363   -5.480971   -2.066873
     76          1           0       -3.593286   -5.856076   -0.619997
     77          1           0       -1.293842    8.277276    1.199141
     78          1           0       -7.750454   -3.008056   -2.963245
     79          1           0       -6.380366   -4.454397   -2.712294
 ---------------------------------------------------------------------

 SCF Done:  E(RB3LYP) =  -1947.84286343     A.U. after   16 cycles

 Excitation energies and oscillator strengths:

 Excited State   1:      Singlet-A      2.0495 eV  604.96 nm  f=0.5197  <S**2>=0.000
     155 ->156         0.70630
     155 <-156        -0.13754
 This state for optimization and/or second-order correction.
 Total Energy, E(TD-HF/TD-DFT) =  -1947.76754701
 Copying the excited state density for this state as the 1-particle RhoCI density.

 The electronic state is 1-A.
 Alpha  occ. eigenvalues --  -19.20709 -19.16466 -19.13705 -19.10580 -19.10362
 Alpha  occ. eigenvalues --  -19.10121 -14.38620 -14.36970 -14.35609 -14.29335
 Alpha  occ. eigenvalues --  -10.33289 -10.30071 -10.29169 -10.26140 -10.25491
 Alpha  occ. eigenvalues --  -10.24861 -10.24625 -10.24557 -10.23553 -10.23088
 Alpha  occ. eigenvalues --  -10.22903 -10.22603 -10.21987 -10.21889 -10.21392
 Alpha  occ. eigenvalues --  -10.21353 -10.21254 -10.21244 -10.21205 -10.21065
 Alpha  occ. eigenvalues --  -10.20738 -10.20604 -10.20387 -10.20354 -10.20312
 Alpha  occ. eigenvalues --  -10.20203 -10.20116 -10.20078 -10.19270 -10.19248
 Alpha  occ. eigenvalues --  -10.19184 -10.18779 -10.17918  -1.09355  -1.07533
 Alpha  occ. eigenvalues --   -1.02628  -1.01034  -0.99296  -0.98300  -0.97704
 Alpha  occ. eigenvalues --   -0.97325  -0.93200  -0.91292  -0.83504  -0.82496
 Alpha  occ. eigenvalues --   -0.81786  -0.80778  -0.80149  -0.79891  -0.78341
 Alpha  occ. eigenvalues --   -0.77630  -0.76338  -0.75604  -0.74766  -0.73318
 Alpha  occ. eigenvalues --   -0.71970  -0.71062  -0.70527  -0.69453  -0.68724
 Alpha  occ. eigenvalues --   -0.67062  -0.66398  -0.63851  -0.60995  -0.60682
 Alpha  occ. eigenvalues --   -0.58773  -0.58558  -0.57921  -0.57710  -0.57046
 Alpha  occ. eigenvalues --   -0.56463  -0.55570  -0.54709  -0.53734  -0.52794
 Alpha  occ. eigenvalues --   -0.51684  -0.51471  -0.51158  -0.50852  -0.49426
 Alpha  occ. eigenvalues --   -0.49246  -0.48776  -0.48129  -0.47523  -0.47090
 Alpha  occ. eigenvalues --   -0.47059  -0.46779  -0.46398  -0.46088  -0.45576
 Alpha  occ. eigenvalues --   -0.45071  -0.44722  -0.44543  -0.44376  -0.44108
 Alpha  occ. eigenvalues --   -0.43769  -0.43580  -0.43487  -0.43287  -0.42568
 Alpha  occ. eigenvalues --   -0.42437  -0.42278  -0.41892  -0.41393  -0.41033
 Alpha  occ. eigenvalues --   -0.40814  -0.40644  -0.40415  -0.40220  -0.39946
 Alpha  occ. eigenvalues --   -0.39681  -0.39319  -0.39136  -0.38710  -0.38521
 Alpha  occ. eigenvalues --   -0.38246  -0.38048  -0.37753  -0.37430  -0.36978
 Alpha  occ. eigenvalues --   -0.36865  -0.36344  -0.35072  -0.34951  -0.34355
 Alpha  occ. eigenvalues --   -0.34057  -0.32809  -0.32747  -0.32269  -0.31181
 Alpha  occ. eigenvalues --   -0.30797  -0.30132  -0.28741  -0.28535  -0.27323
 Alpha  occ. eigenvalues --   -0.26501  -0.25998  -0.25942  -0.25363  -0.24772
 Alpha  occ. eigenvalues --   -0.24254  -0.23837  -0.23752  -0.22592  -0.18802
 Alpha virt. eigenvalues --   -0.11190  -0.06805  -0.06111  -0.01899  -0.01147
 Alpha virt. eigenvalues --    0.00242   0.00486   0.00963   0.01958   0.02821
 Alpha virt. eigenvalues --    0.03430   0.04160   0.04304   0.04622   0.05186

 Mulliken charges:
               1
     1  O   -0.207182
     2  O   -0.182080
     3  O   -0.265695
     4  O   -0.237141
     5  O   -0.278253
     6  O   -0.221323
     7  N   -0.122394
     8  N   -0.265092
     9  N   -0.103839
    10  N   -0.292487
    11  C    0.080716
    12  C    0.227022
    13  C   -0.019743
    14  C   -0.117566
    15  C   -0.069093
    16  C    0.068702
    17  C   -0.143484
    18  C    0.038462
    19  C   -0.075088
    20  C   -0.092132
    21  C    0.115929
    22  C    0.189215
    23  C   -0.090793
    24  C    0.148097
    25  C    0.033348
    26  C   -0.168278
    27  C    0.018604
    28  C    0.103768
    29  C    0.170521
    30  C   -0.019891
    31  C   -0.019512
    32  C    0.234259
    33  C   -0.073386
    34  C    0.115957
    35  C    0.095763
    36  C   -0.079154
    37  C    0.156216
    38  C    0.043410
    39  C   -0.227052
    40  C    0.135687
    41  C   -0.052333
    42  C    0.117418
    43  C   -0.106518
    44  H    0.014180
    45  H   -0.029745
    46  H   -0.027993
    47  H    0.116964
    48  H    0.156674
    49  H    0.024737
    50  H    0.052854
    51  H   -0.026608
    52  H   -0.034166
    53  H   -0.039063
    54  H    0.020200
    55  H    0.036737
    56  H    0.039137
    57  H    0.073656
    58  H    0.066018
    59  H    0.031155
    60  H    0.186605
    61  H   -0.021827
    62  H    0.025810
    63  H    0.044956
    64  H    0.029059
    65  H    0.033756
    66  H   -0.088743
    67  H    0.040561
    68  H    0.056019
    69  H   -0.046251
    70  H    0.008236
    71  H    0.056041
    72  H    0.180755
    73  H    0.043228
    74  H    0.044832
    75  H    0.015757
    76  H    0.052738
    77  H    0.240707
    78  H    0.026309
    79  H    0.033131
 Sum of Mulliken charges =  -0.00000

 Dipole moment (field-independent basis, Debye):
    X=              0.7964    Y=              2.7309    Z=              3.5126  Tot=              4.5200
 Quadrupole moment (field-independent basis, Debye-Ang):
   XX=           -219.3643   YY=           -245.6854   ZZ=           -266.2455
   XY=            -11.4937   XZ=             34.5011   YZ=              5.3167

 Normal termination of Gaussian 16 at Mon Sep 23 02:25:05 2019.
