 Gaussian 16, Revision A.03,
 Gaussian 16:  ES64L-G16RevA.03 25-Dec-2016

 --------------------------
 # td=(NStates=1) B3LYP/SVP
 --------------------------

 --
 TD
 --
 Symbolic Z-matrix:
 Charge =  0 Multiplicity = 1

                         Standard orientation:
 ---------------------------------------------------------------------
 Center     Atomic      Atomic             Coordinates (Angstroms)
 Number     Number       Type             X           Y           Z
 ---------------------------------------------------------------------
      1          8           0        5.502224    0.063938   -3.313074
      2          8           0       -3.125629   -3.134538    3.128538
      3          8           0       -3.468552   -0.832331    2.659398
      4          8           0       -1.462132    7.197790    1.615278
      5          8           0       -0.660909    6.999615   -0.460794
      6          8           0       -1.883171   -3.951468   -0.019974
      7          7           0        2.377593    0.802392    0.724649
      8          7           0        4.470390   -0.447103   -1.332863
      9          7           0       -1.933080    0.718840   -0.247343
     10          7           0       -2.588396   -1.872291   -0.374200
     11          6           0        4.728693   -1.227755   -0.126480
     12          6           0        4.376929   -0.465474    1.282340
     13          6           0        2.991390   -0.109304    1.463006
     14          6           0        1.929332   -0.752535    2.196439
     15          6           0        0.650364   -0.077029    1.818216
     16          6           0        0.974890    0.929162    0.882618
     17          6           0        6.294494   -1.422198   -0.230604
     18          6           0       -0.667247   -0.213445    2.557748
     19          6           0        6.718099   -0.879959   -1.394678
     20          6           0        0.159728    1.882273    0.290918
     21          6           0       -1.125588    1.812498   -0.279849
     22          6           0        5.577043   -0.283017   -2.104136
     23          6           0       -1.862903    2.952111   -0.876551
     24          6           0        2.018999   -1.889112    3.158818
     25          6           0        7.113433   -2.044583    0.957463
     26          6           0       -3.074743    2.419904   -1.278776
     27          6           0       -1.205638   -1.733606    2.562272
     28          6           0       -2.910260    0.916537   -1.106401
     29          6           0       -1.480628    4.400304   -0.820708
     30          6           0        8.039443   -0.835503   -2.065780
     31          6           0       -1.779957    5.131318    0.499977
     32          6           0       -4.182407    3.173569   -1.903338
     33          6           0       -3.853003    0.035666   -1.381027
     34          6           0       -2.714023   -1.810867    2.827974
     35          6           0       -3.638361   -1.424828   -1.209418
     36          6           0        9.272064   -0.749216   -1.339619
     37          6           0       -1.243163    6.522240    0.465047
     38          6           0       -4.565995   -2.552581   -1.604883
     39          6           0       -3.954501   -3.670727   -1.138209
     40          6           0       -2.804056   -3.253934   -0.425736
     41          6           0       -5.866334   -2.327676   -2.220785
     42          6           0       -4.399454   -5.078705   -1.095708
     43          6           0       -6.694513   -3.316243   -2.610756
     44          1           0        4.306439   -2.287973   -0.140117
     45          1           0        5.154082    0.499534    1.406488
     46          1           0        4.578134   -1.224264    2.036227
     47          1           0        2.906911    1.072420   -0.141449
     48          1           0        3.551727   -0.452293   -1.588209
     49          1           0       -0.773577    0.226343    3.617117
     50          1           0       -1.555560    0.390911    2.020556
     51          1           0        0.756075    2.791536   -0.019105
     52          1           0        3.216544   -1.934228    3.245075
     53          1           0        1.540712   -1.345570    4.009447
     54          1           0        1.398591   -2.967848    2.975267
     55          1           0        6.459476   -2.833093    1.565921
     56          1           0        7.281830   -1.417788    1.844663
     57          1           0        8.093342   -2.527823    0.587449
     58          1           0       -1.111340   -2.214173    1.718064
     59          1           0       -0.679161   -2.380380    3.338260
     60          1           0       -1.496106   -0.261968    0.073763
     61          1           0       -2.143025    5.004504   -1.580769
     62          1           0       -0.528009    4.393252   -1.180685
     63          1           0        8.003124   -0.592119   -3.132234
     64          1           0       -1.417377    4.664358    1.528881
     65          1           0       -2.876024    5.387514    0.662315
     66          1           0       -3.979676    4.071150   -2.125876
     67          1           0       -5.170483    3.248812   -1.495026
     68          1           0       -4.416979    2.742996   -2.886734
     69          1           0       -4.600670    0.212535   -2.069889
     70          1           0        9.348026   -1.055903   -0.263858
     71          1           0       10.157706   -0.520495   -2.036072
     72          1           0       -4.044637   -3.104801    2.993473
     73          1           0       -6.156433   -1.318635   -2.356937
     74          1           0       -5.411138   -5.072439   -0.731548
     75          1           0       -4.429822   -5.482904   -2.201581
     76          1           0       -3.670158   -5.807117   -0.527879
     77          1           0       -0.880301    8.041675    1.776791
     78          1           0       -7.407142   -3.089644   -3.239677
     79          1           0       -6.438056   -4.356696   -2.445145
 ---------------------------------------------------------------------

 SCF Done:  E(RB3LYP) =  -1947.82927936     A.U. after   17 cycles

 Excitation energies and oscillator strengths:

 Excited State   1:      Singlet-A      1.9154 eV  647.32 nm  f=0.3547  <S**2>=0.000
     155 ->156         0.69473
     155 <-156        -0.10676
 This state for optimization and/or second-order correction.
 Total Energy, E(TD-HF/TD-DFT) =  -1947.75889118
 Copying the excited state density for this state as the 1-particle RhoCI density.

 The electronic state is 1-A.
 Alpha  occ. eigenvalues --  -19.18114 -19.16835 -19.12462 -19.12088 -19.10064
 Alpha  occ. eigenvalues --  -19.09730 -14.38002 -14.36867 -14.36262 -14.29231
 Alpha  occ. eigenvalues --  -10.31893 -10.31380 -10.29191 -10.26622 -10.25283
 Alpha  occ. eigenvalues --  -10.24090 -10.23986 -10.23892 -10.23489 -10.23431
 Alpha  occ. eigenvalues --  -10.23157 -10.22800 -10.22736 -10.22403 -10.21702
 Alpha  occ. eigenvalues --  -10.21503 -10.21280 -10.21131 -10.21118 -10.21106
 Alpha  occ. eigenvalues --  -10.21067 -10.20909 -10.20898 -10.20636 -10.20537
 Alpha  occ. eigenvalues --  -10.20187 -10.19581 -10.19435 -10.19383 -10.18960
 Alpha  occ. eigenvalues --  -10.18504 -10.18400 -10.18090  -1.09154  -1.06377
 Alpha  occ. eigenvalues --   -1.01750  -1.01287  -1.00510  -0.99715  -0.98538
 Alpha  occ. eigenvalues --   -0.98394  -0.94205  -0.90445  -0.82823  -0.82285
 Alpha  occ. eigenvalues --   -0.82020  -0.81112  -0.79655  -0.79469  -0.78077
 Alpha  occ. eigenvalues --   -0.76939  -0.76007  -0.75317  -0.74277  -0.73249
 Alpha  occ. eigenvalues --   -0.71816  -0.70771  -0.70132  -0.69051  -0.68256
 Alpha  occ. eigenvalues --   -0.66536  -0.65936  -0.64177  -0.62432  -0.61272
 Alpha  occ. eigenvalues --   -0.60122  -0.59356  -0.58552  -0.57772  -0.57755
 Alpha  occ. eigenvalues --   -0.56021  -0.55221  -0.54709  -0.53656  -0.53359
 Alpha  occ. eigenvalues --   -0.52038  -0.51084  -0.50618  -0.49827  -0.49766
 Alpha  occ. eigenvalues --   -0.48774  -0.48429  -0.48080  -0.47827  -0.47617
 Alpha  occ. eigenvalues --   -0.47091  -0.46634  -0.46210  -0.46108  -0.45698
 Alpha  occ. eigenvalues --   -0.44998  -0.44640  -0.44566  -0.44265  -0.44113
 Alpha  occ. eigenvalues --   -0.43503  -0.42679  -0.42514  -0.42152  -0.42034
 Alpha  occ. eigenvalues --   -0.41733  -0.41386  -0.41356  -0.41066  -0.40862
 Alpha  occ. eigenvalues --   -0.40655  -0.40437  -0.40117  -0.39842  -0.39620
 Alpha  occ. eigenvalues --   -0.39310  -0.39044  -0.38764  -0.38488  -0.38333
 Alpha  occ. eigenvalues --   -0.38177  -0.37916  -0.37560  -0.37222  -0.36720
 Alpha  occ. eigenvalues --   -0.35846  -0.35791  -0.35556  -0.35379  -0.34851
 Alpha  occ. eigenvalues --   -0.34412  -0.34047  -0.32531  -0.31435  -0.31413
 Alpha  occ. eigenvalues --   -0.31328  -0.31046  -0.28327  -0.28150  -0.27981
 Alpha  occ. eigenvalues --   -0.27082  -0.26787  -0.25937  -0.25562  -0.24707
 Alpha  occ. eigenvalues --   -0.24221  -0.24109  -0.22932  -0.22133  -0.18404
 Alpha virt. eigenvalues --   -0.10799  -0.06791  -0.06350  -0.01680  -0.01264
 Alpha virt. eigenvalues --    0.00339   0.00486   0.00711   0.02142   0.02865
 Alpha virt. eigenvalues --    0.03069   0.04103   0.04516   0.04669   0.05506

 Mulliken charges:
               1
     1  O   -0.265070
     2  O   -0.200015
     3  O   -0.254516
     4  O   -0.244260
     5  O   -0.204828
     6  O   -0.208921
     7  N   -0.070927
     8  N   -0.127091
     9  N   -0.067657
    10  N   -0.302944
    11  C    0.034937
    12  C    0.115957
    13  C   -0.075677
    14  C   -0.153875
    15  C   -0.038292
    16  C    0.075266
    17  C   -0.142998
    18  C   -0.066063
    19  C   -0.044503
    20  C   -0.125913
    21  C    0.064208
    22  C    0.160622
    23  C   -0.094596
    24  C   -0.005998
    25  C    0.012095
    26  C   -0.135496
    27  C    0.081087
    28  C    0.162029
    29  C    0.149127
    30  C   -0.018387
    31  C   -0.033826
    32  C    0.225259
    33  C   -0.050590
    34  C    0.168322
    35  C    0.008275
    36  C   -0.059318
    37  C    0.117490
    38  C    0.067203
    39  C   -0.169676
    40  C    0.118639
    41  C   -0.032559
    42  C    0.045260
    43  C    0.067084
    44  H    0.054311
    45  H    0.044166
    46  H   -0.014583
    47  H    0.117879
    48  H    0.104198
    49  H    0.032673
    50  H    0.057585
    51  H   -0.004399
    52  H    0.016788
    53  H    0.040982
    54  H    0.085344
    55  H    0.026615
    56  H    0.042285
    57  H    0.063067
    58  H   -0.007638
    59  H    0.027460
    60  H    0.220984
    61  H    0.027609
    62  H   -0.003367
    63  H    0.027697
    64  H    0.068828
    65  H    0.048476
    66  H   -0.085415
    67  H    0.010318
    68  H    0.004968
    69  H   -0.055166
    70  H    0.042246
    71  H    0.053327
    72  H    0.154494
    73  H   -0.023023
    74  H    0.033657
    75  H    0.041654
    76  H    0.057303
    77  H    0.222748
    78  H   -0.020348
    79  H    0.007415
 Sum of Mulliken charges =  -0.00000

 Dipole moment (field-independent basis, Debye):
    X=             -0.2516    Y=              1.4362    Z=              2.3770  Tot=              2.7886
 Quadrupole moment (field-independent basis, Debye-Ang):
   XX=           -217.8146   YY=           -245.4024   ZZ=           -262.6523
   XY=             -8.0680   XZ=             37.0915   YZ=             10.6903

 Normal termination of Gaussian 16 at Mon Sep 16 23:38:41 2019.
