 Gaussian 16, Revision A.03,
 Gaussian 16:  ES64L-G16RevA.03 25-Dec-2016

 --------------------------
 # td=(NStates=1) B3LYP/SVP
 --------------------------

 --
 TD
 --
 Symbolic Z-matrix:
 Charge =  0 Multiplicity = 1

                         Standard orientation:
 ---------------------------------------------------------------------
 Center     Atomic      Atomic             Coordinates (Angstroms)
 Number     Number       Type             X           Y           Z
 ---------------------------------------------------------------------
      1          8           0       -3.289497   -1.357235   -2.964369
      2          8           0        2.827004    3.103330    3.146594
      3          8           0        3.789109    1.218245    4.272700
      4          8           0        7.753451   -1.581853   -0.779078
      5          8           0        6.457738   -3.071489   -2.014312
      6          8           0       -2.616389    1.508954    1.432241
      7          7           0       -0.305406   -2.479027    0.880785
      8          7           0       -2.664668   -1.254477   -0.704786
      9          7           0        1.113757    0.126648   -0.732991
     10          7           0       -1.048061    1.460518   -0.196966
     11          6           0       -3.228798   -1.424477    0.582595
     12          6           0       -2.644808   -2.395924    1.516026
     13          6           0       -1.225404   -2.128249    1.699551
     14          6           0       -0.641161   -1.404885    2.747701
     15          6           0        0.716570   -1.249411    2.420186
     16          6           0        0.955396   -1.992487    1.135876
     17          6           0       -4.685035   -1.918342    0.248061
     18          6           0        1.739935   -0.453803    3.136134
     19          6           0       -4.771050   -1.998267   -1.152172
     20          6           0        2.062740   -1.896238    0.268621
     21          6           0        2.096465   -0.850160   -0.679512
     22          6           0       -3.542967   -1.511263   -1.831143
     23          6           0        3.025286   -0.595186   -1.723349
     24          6           0       -1.312778   -0.695033    3.918070
     25          6           0       -5.763110   -2.102847    1.217302
     26          6           0        2.590987    0.565356   -2.401131
     27          6           0        1.811641    1.011028    2.741397
     28          6           0        1.415110    1.042618   -1.664450
     29          6           0        4.235385   -1.455494   -1.982090
     30          6           0       -5.869203   -2.336613   -2.056730
     31          6           0        5.546712   -0.940331   -1.306370
     32          6           0        3.362571    1.284418   -3.443926
     33          6           0        0.618050    2.108965   -1.832655
     34          6           0        2.979158    1.729246    3.517086
     35          6           0       -0.595501    2.328581   -1.086855
     36          6           0       -6.910825   -3.069811   -1.817284
     37          6           0        6.683004   -1.980597   -1.376992
     38          6           0       -1.356870    3.572747   -1.079262
     39          6           0       -2.355152    3.409817   -0.143894
     40          6           0       -2.040802    2.061760    0.502812
     41          6           0       -1.195054    4.721003   -1.942653
     42          6           0       -3.488137    4.216156    0.317555
     43          6           0       -1.849326    5.894558   -2.042046
     44          1           0       -3.496163   -0.386044    1.182714
     45          1           0       -2.736620   -3.287787    1.117245
     46          1           0       -2.972653   -2.322660    2.564206
     47          1           0       -0.515083   -2.781610   -0.080075
     48          1           0       -2.116270   -0.307664   -0.823453
     49          1           0        1.691235   -0.638706    4.312572
     50          1           0        2.666687   -1.105148    2.902639
     51          1           0        2.805755   -2.702101    0.351503
     52          1           0       -1.988373   -1.328682    4.196029
     53          1           0       -0.608866   -0.430102    4.542926
     54          1           0       -1.868247    0.208954    3.359598
     55          1           0       -5.582439   -1.359688    2.078697
     56          1           0       -5.391208   -3.189000    1.819441
     57          1           0       -6.783113   -2.076977    0.887764
     58          1           0        2.070059    1.357786    1.642076
     59          1           0        0.998047    1.742991    2.914963
     60          1           0        0.189812    0.180519   -0.289802
     61          1           0        4.218241   -1.776779   -3.273048
     62          1           0        3.884621   -2.572395   -1.722865
     63          1           0       -5.658876   -2.113207   -3.183101
     64          1           0        5.360729   -0.812187   -0.128728
     65          1           0        5.801946    0.082075   -1.560299
     66          1           0        4.131203    0.703997   -3.933431
     67          1           0        3.713215    2.308666   -3.020919
     68          1           0        2.399494    1.620299   -4.262775
     69          1           0        0.981057    2.838457   -2.602987
     70          1           0       -7.228986   -3.446032   -0.783238
     71          1           0       -7.371524   -3.445458   -2.908413
     72          1           0        3.410765    3.592402    3.712148
     73          1           0       -0.456432    4.601069   -2.898659
     74          1           0       -4.000453    4.682068   -0.612587
     75          1           0       -4.133365    3.617392    1.008619
     76          1           0       -2.972510    5.100981    0.910286
     77          1           0        8.299741   -2.429137   -1.023395
     78          1           0       -1.435482    6.625351   -2.904972
     79          1           0       -2.524799    6.432110   -1.401938
 ---------------------------------------------------------------------

 SCF Done:  E(RB3LYP) =  -1947.79617862     A.U. after   19 cycles

 Excitation energies and oscillator strengths:

 Excited State   1:      Singlet-A      0.7981 eV 1553.47 nm  f=0.0000  <S**2>=0.000
     155 ->156         0.70182
 This state for optimization and/or second-order correction.
 Total Energy, E(TD-HF/TD-DFT) =  -1947.76684857
 Copying the excited state density for this state as the 1-particle RhoCI density.

 The electronic state is 1-A.
 Alpha  occ. eigenvalues --  -19.22911 -19.17406 -19.13845 -19.13787 -19.12394
 Alpha  occ. eigenvalues --  -19.10294 -14.36442 -14.36430 -14.32427 -14.30766
 Alpha  occ. eigenvalues --  -10.34317 -10.32205 -10.28198 -10.27117 -10.25535
 Alpha  occ. eigenvalues --  -10.25385 -10.24920 -10.24028 -10.23600 -10.23328
 Alpha  occ. eigenvalues --  -10.22491 -10.22365 -10.22350 -10.22109 -10.22104
 Alpha  occ. eigenvalues --  -10.21638 -10.21499 -10.21476 -10.21339 -10.21266
 Alpha  occ. eigenvalues --  -10.20900 -10.20681 -10.20409 -10.19635 -10.19317
 Alpha  occ. eigenvalues --  -10.18772 -10.18419 -10.18175 -10.18154 -10.17626
 Alpha  occ. eigenvalues --  -10.16471 -10.15472 -10.15162  -1.13811  -1.07036
 Alpha  occ. eigenvalues --   -1.03952  -1.03599  -1.00593  -1.00051  -0.99674
 Alpha  occ. eigenvalues --   -0.98067  -0.94993  -0.91566  -0.83367  -0.82110
 Alpha  occ. eigenvalues --   -0.81825  -0.79734  -0.79551  -0.79311  -0.77991
 Alpha  occ. eigenvalues --   -0.76938  -0.75982  -0.75350  -0.74636  -0.72988
 Alpha  occ. eigenvalues --   -0.71188  -0.69962  -0.69350  -0.68869  -0.67663
 Alpha  occ. eigenvalues --   -0.66570  -0.65599  -0.63095  -0.61114  -0.60740
 Alpha  occ. eigenvalues --   -0.59682  -0.57675  -0.57511  -0.56685  -0.56188
 Alpha  occ. eigenvalues --   -0.55412  -0.54412  -0.54175  -0.53585  -0.53288
 Alpha  occ. eigenvalues --   -0.52406  -0.51762  -0.50924  -0.50796  -0.49802
 Alpha  occ. eigenvalues --   -0.49165  -0.48580  -0.48388  -0.48050  -0.47810
 Alpha  occ. eigenvalues --   -0.46721  -0.46552  -0.46272  -0.46113  -0.45657
 Alpha  occ. eigenvalues --   -0.45209  -0.45074  -0.44551  -0.44164  -0.43585
 Alpha  occ. eigenvalues --   -0.43501  -0.43077  -0.42929  -0.42558  -0.42389
 Alpha  occ. eigenvalues --   -0.42134  -0.41684  -0.41112  -0.40946  -0.40880
 Alpha  occ. eigenvalues --   -0.40741  -0.40429  -0.40232  -0.40154  -0.39941
 Alpha  occ. eigenvalues --   -0.39431  -0.39315  -0.39098  -0.38491  -0.38238
 Alpha  occ. eigenvalues --   -0.38011  -0.37507  -0.37245  -0.36838  -0.36715
 Alpha  occ. eigenvalues --   -0.35660  -0.35198  -0.34530  -0.34417  -0.33836
 Alpha  occ. eigenvalues --   -0.33184  -0.32710  -0.32550  -0.32140  -0.31542
 Alpha  occ. eigenvalues --   -0.30657  -0.30017  -0.29238  -0.29164  -0.28669
 Alpha  occ. eigenvalues --   -0.28015  -0.26302  -0.26205  -0.25682  -0.24478
 Alpha  occ. eigenvalues --   -0.23796  -0.22018  -0.21896  -0.21664  -0.18095
 Alpha virt. eigenvalues --   -0.12461  -0.07697  -0.04288  -0.02161  -0.01959
 Alpha virt. eigenvalues --    0.00032   0.01608   0.02189   0.02696   0.03101
 Alpha virt. eigenvalues --    0.03538   0.03791   0.04074   0.04509   0.05026

 Mulliken charges:
               1
     1  O   -0.159287
     2  O   -0.235343
     3  O   -0.212810
     4  O   -0.126600
     5  O   -0.300399
     6  O   -0.204536
     7  N    0.050441
     8  N   -0.282923
     9  N   -0.059392
    10  N   -0.269877
    11  C   -0.019503
    12  C    0.425837
    13  C   -0.243621
    14  C   -0.182012
    15  C   -0.116659
    16  C   -0.054945
    17  C   -0.161461
    18  C    0.067275
    19  C   -0.092899
    20  C   -0.115293
    21  C    0.133662
    22  C    0.151303
    23  C   -0.062382
    24  C    0.251423
    25  C    0.038334
    26  C   -0.099164
    27  C   -0.025648
    28  C    0.097424
    29  C   -0.035098
    30  C   -0.017153
    31  C   -0.006357
    32  C    0.010051
    33  C   -0.122146
    34  C    0.158242
    35  C    0.113098
    36  C   -0.096938
    37  C    0.169442
    38  C    0.074228
    39  C   -0.208405
    40  C    0.145277
    41  C   -0.042558
    42  C    0.043120
    43  C   -0.096530
    44  H    0.079991
    45  H   -0.100461
    46  H   -0.017752
    47  H    0.111141
    48  H    0.176690
    49  H    0.032924
    50  H    0.014849
    51  H    0.017414
    52  H   -0.054790
    53  H   -0.046680
    54  H    0.056573
    55  H    0.034118
    56  H    0.049119
    57  H    0.040629
    58  H    0.051588
    59  H    0.042116
    60  H    0.173226
    61  H    0.058025
    62  H    0.052145
    63  H    0.028611
    64  H    0.063330
    65  H    0.038265
    66  H    0.039828
    67  H    0.059566
    68  H    0.047134
    69  H   -0.019088
    70  H    0.028870
    71  H    0.042748
    72  H    0.160552
    73  H    0.031895
    74  H    0.054631
    75  H    0.048980
    76  H    0.056086
    77  H    0.208450
    78  H    0.041228
    79  H    0.018834
 Sum of Mulliken charges =  -0.00000

 Dipole moment (field-independent basis, Debye):
    X=              3.6225    Y=              3.6847    Z=             -0.4226  Tot=              5.1844
 Quadrupole moment (field-independent basis, Debye-Ang):
   XX=           -230.1112   YY=           -237.5542   ZZ=           -268.9949
   XY=              1.4988   XZ=            -22.3833   YZ=            -10.0883

 Normal termination of Gaussian 16 at Sat Jul 27 01:52:06 2019.
