 Gaussian 16, Revision A.03,
 Gaussian 16:  ES64L-G16RevA.03 25-Dec-2016

 --------------------------
 # td=(NStates=1) B3LYP/SVP
 --------------------------

 --
 TD
 --
 Symbolic Z-matrix:
 Charge =  0 Multiplicity = 1

                         Standard orientation:
 ---------------------------------------------------------------------
 Center     Atomic      Atomic             Coordinates (Angstroms)
 Number     Number       Type             X           Y           Z
 ---------------------------------------------------------------------
      1          8           0       -3.322391   -1.318445   -2.810321
      2          8           0        2.916308    3.247915    3.138829
      3          8           0        3.441323    1.611593    4.632146
      4          8           0        7.785952   -1.529541   -0.703661
      5          8           0        6.809321   -3.012730   -2.071113
      6          8           0       -2.624834    1.588621    1.305161
      7          7           0       -0.427129   -2.318324    1.002341
      8          7           0       -2.674715   -1.097895   -0.661607
      9          7           0        1.153335   -0.023496   -0.766302
     10          7           0       -0.975142    1.412395   -0.344310
     11          6           0       -3.444963   -1.321180    0.685630
     12          6           0       -2.730412   -2.300305    1.677759
     13          6           0       -1.278866   -1.896385    1.978263
     14          6           0       -0.665045   -0.995501    2.929667
     15          6           0        0.714163   -0.987802    2.584049
     16          6           0        0.891322   -1.745355    1.354323
     17          6           0       -4.793519   -1.898786    0.320566
     18          6           0        1.776669   -0.298078    3.263982
     19          6           0       -4.767166   -2.067347   -1.083154
     20          6           0        1.988784   -1.996914    0.293480
     21          6           0        2.124338   -0.981549   -0.606014
     22          6           0       -3.496752   -1.627921   -1.707478
     23          6           0        3.118827   -0.745681   -1.770625
     24          6           0       -1.255995   -0.325800    4.095944
     25          6           0       -5.913750   -2.047512    1.248984
     26          6           0        2.652745    0.315306   -2.466277
     27          6           0        1.832978    1.149878    2.790851
     28          6           0        1.467993    0.890058   -1.813322
     29          6           0        4.365700   -1.577881   -1.917623
     30          6           0       -5.751030   -2.532191   -2.005049
     31          6           0        5.543512   -1.251620   -1.045501
     32          6           0        3.165741    0.901670   -3.702394
     33          6           0        0.649851    1.950041   -2.076720
     34          6           0        2.777677    2.002229    3.759841
     35          6           0       -0.479519    2.245718   -1.341799
     36          6           0       -6.969736   -3.132772   -1.705455
     37          6           0        6.781170   -2.016572   -1.371909
     38          6           0       -1.294155    3.497215   -1.409678
     39          6           0       -2.211428    3.374837   -0.401819
     40          6           0       -1.960294    2.012085    0.305432
     41          6           0       -1.196934    4.473698   -2.392009
     42          6           0       -3.332798    4.204427    0.012775
     43          6           0       -1.910645    5.573078   -2.707179
     44          1           0       -3.561013   -0.262912    1.122137
     45          1           0       -2.924018   -3.373594    1.376327
     46          1           0       -3.385207   -2.242336    2.633695
     47          1           0       -0.721019   -2.775046    0.193031
     48          1           0       -2.063630   -0.284833   -0.607902
     49          1           0        1.766649   -0.170295    4.457124
     50          1           0        2.673631   -1.011009    2.836454
     51          1           0        2.890535   -2.714381    0.517024
     52          1           0       -1.946058   -1.057632    4.582912
     53          1           0       -0.500771   -0.039672    4.809922
     54          1           0       -1.781616    0.507448    3.627133
     55          1           0       -6.013242   -1.127793    2.052417
     56          1           0       -5.695589   -2.860495    1.821613
     57          1           0       -6.869835   -2.170799    0.781141
     58          1           0        2.303629    1.281083    1.729577
     59          1           0        0.757999    1.611098    2.944130
     60          1           0        0.155112    0.232211   -0.290639
     61          1           0        4.729693   -1.654811   -2.866069
     62          1           0        4.214080   -2.733808   -1.709035
     63          1           0       -5.440888   -2.406103   -3.005019
     64          1           0        5.251493   -1.506847    0.004527
     65          1           0        5.943076   -0.256235   -1.048097
     66          1           0        4.027857    0.367230   -4.287509
     67          1           0        3.540409    2.156349   -3.523887
     68          1           0        2.412595    0.873148   -4.250156
     69          1           0        0.929643    2.602738   -2.853945
     70          1           0       -7.415351   -3.521361   -0.687433
     71          1           0       -7.713270   -3.479898   -2.431635
     72          1           0        3.482233    3.685601    3.746350
     73          1           0       -0.306439    4.140736   -3.153004
     74          1           0       -4.095381    4.219025   -0.683907
     75          1           0       -3.598854    3.570098    0.966187
     76          1           0       -2.954894    5.173453    0.527760
     77          1           0        8.460323   -2.172076   -0.750023
     78          1           0       -1.632739    6.063791   -3.686961
     79          1           0       -2.889803    5.771320   -2.098676
 ---------------------------------------------------------------------

 SCF Done:  E(RB3LYP) =  -1947.82994753     A.U. after   17 cycles

 Excitation energies and oscillator strengths:

 Excited State   1:      Singlet-A      0.7118 eV 1741.91 nm  f=0.0003  <S**2>=0.000
     155 ->156         0.70454
 This state for optimization and/or second-order correction.
 Total Energy, E(TD-HF/TD-DFT) =  -1947.80379038
 Copying the excited state density for this state as the 1-particle RhoCI density.

 The electronic state is 1-A.
 Alpha  occ. eigenvalues --  -19.20507 -19.17112 -19.14192 -19.13636 -19.12233
 Alpha  occ. eigenvalues --  -19.08698 -14.36941 -14.35846 -14.32000 -14.31089
 Alpha  occ. eigenvalues --  -10.33088 -10.31744 -10.28489 -10.27189 -10.26417
 Alpha  occ. eigenvalues --  -10.26275 -10.25706 -10.23524 -10.23312 -10.22882
 Alpha  occ. eigenvalues --  -10.22082 -10.21867 -10.21601 -10.21600 -10.21548
 Alpha  occ. eigenvalues --  -10.21535 -10.21223 -10.21210 -10.21107 -10.21074
 Alpha  occ. eigenvalues --  -10.20790 -10.20724 -10.20538 -10.20187 -10.20096
 Alpha  occ. eigenvalues --  -10.19445 -10.19375 -10.19199 -10.18682 -10.18423
 Alpha  occ. eigenvalues --  -10.17814 -10.17230 -10.16865  -1.13851  -1.10317
 Alpha  occ. eigenvalues --   -1.03898  -1.02405  -1.02321  -1.01279  -0.98002
 Alpha  occ. eigenvalues --   -0.94238  -0.93908  -0.88305  -0.84037  -0.83184
 Alpha  occ. eigenvalues --   -0.82425  -0.80855  -0.80521  -0.79771  -0.77527
 Alpha  occ. eigenvalues --   -0.76392  -0.75849  -0.75501  -0.74259  -0.72896
 Alpha  occ. eigenvalues --   -0.71349  -0.70239  -0.70056  -0.69345  -0.67303
 Alpha  occ. eigenvalues --   -0.66292  -0.64998  -0.62399  -0.62271  -0.61263
 Alpha  occ. eigenvalues --   -0.60101  -0.58820  -0.57951  -0.57397  -0.56135
 Alpha  occ. eigenvalues --   -0.55203  -0.54679  -0.54434  -0.52489  -0.52048
 Alpha  occ. eigenvalues --   -0.51398  -0.51322  -0.51192  -0.50288  -0.49827
 Alpha  occ. eigenvalues --   -0.49544  -0.48820  -0.48486  -0.47927  -0.47852
 Alpha  occ. eigenvalues --   -0.47351  -0.46833  -0.46500  -0.46241  -0.45935
 Alpha  occ. eigenvalues --   -0.45476  -0.44938  -0.44584  -0.44419  -0.44183
 Alpha  occ. eigenvalues --   -0.43896  -0.43552  -0.42796  -0.42712  -0.42376
 Alpha  occ. eigenvalues --   -0.42149  -0.42002  -0.41580  -0.41504  -0.41037
 Alpha  occ. eigenvalues --   -0.40540  -0.40403  -0.40263  -0.39779  -0.39602
 Alpha  occ. eigenvalues --   -0.39406  -0.39074  -0.38495  -0.38390  -0.37995
 Alpha  occ. eigenvalues --   -0.37712  -0.37500  -0.37311  -0.36371  -0.36249
 Alpha  occ. eigenvalues --   -0.35895  -0.35581  -0.35220  -0.34929  -0.34173
 Alpha  occ. eigenvalues --   -0.33841  -0.33591  -0.33158  -0.32735  -0.32065
 Alpha  occ. eigenvalues --   -0.31064  -0.30050  -0.29484  -0.29390  -0.29021
 Alpha  occ. eigenvalues --   -0.28616  -0.27238  -0.26177  -0.24757  -0.23580
 Alpha  occ. eigenvalues --   -0.23417  -0.23246  -0.22332  -0.21201  -0.18307
 Alpha virt. eigenvalues --   -0.13147  -0.07430  -0.05000  -0.02421  -0.00961
 Alpha virt. eigenvalues --    0.00241   0.01387   0.01843   0.02295   0.02920
 Alpha virt. eigenvalues --    0.04392   0.04699   0.05101   0.05289   0.05347

 Mulliken charges:
               1
     1  O   -0.175853
     2  O   -0.197925
     3  O   -0.161867
     4  O   -0.103814
     5  O   -0.236647
     6  O   -0.271406
     7  N   -0.084163
     8  N   -0.289046
     9  N   -0.180355
    10  N   -0.311656
    11  C    0.034485
    12  C    0.090289
    13  C   -0.036965
    14  C   -0.146507
    15  C   -0.059189
    16  C   -0.018810
    17  C   -0.140604
    18  C   -0.002183
    19  C   -0.105650
    20  C   -0.128592
    21  C    0.140714
    22  C    0.178033
    23  C   -0.016661
    24  C    0.126429
    25  C    0.129005
    26  C   -0.089894
    27  C   -0.067574
    28  C    0.122707
    29  C    0.103145
    30  C    0.049786
    31  C    0.003825
    32  C    0.090383
    33  C   -0.080074
    34  C    0.126049
    35  C    0.149114
    36  C   -0.095780
    37  C    0.090910
    38  C    0.120863
    39  C   -0.257770
    40  C    0.205766
    41  C   -0.087285
    42  C    0.070426
    43  C   -0.053453
    44  H    0.071750
    45  H    0.000227
    46  H   -0.002158
    47  H    0.098495
    48  H    0.138080
    49  H    0.046576
    50  H    0.023190
    51  H    0.042063
    52  H    0.015551
    53  H   -0.009954
    54  H    0.041588
    55  H    0.039098
    56  H   -0.000147
    57  H    0.019286
    58  H    0.064384
    59  H    0.066533
    60  H    0.246234
    61  H   -0.028220
    62  H    0.035996
    63  H   -0.012413
    64  H    0.046352
    65  H    0.020676
    66  H    0.042967
    67  H    0.053309
    68  H   -0.024138
    69  H   -0.045229
    70  H    0.030466
    71  H    0.017303
    72  H    0.143586
    73  H    0.008924
    74  H    0.038472
    75  H    0.040841
    76  H    0.047403
    77  H    0.161176
    78  H    0.044207
    79  H    0.045318
 Sum of Mulliken charges =  -0.00000

 Dipole moment (field-independent basis, Debye):
    X=              4.0800    Y=              2.3996    Z=             -0.6172  Tot=              4.7734
 Quadrupole moment (field-independent basis, Debye-Ang):
   XX=           -228.6465   YY=           -243.6501   ZZ=           -264.2203
   XY=              4.0508   XZ=            -17.4107   YZ=            -13.3396

 Normal termination of Gaussian 16 at Sat Jul 27 18:48:57 2019.
