 Gaussian 16, Revision A.03,
 Gaussian 16:  ES64L-G16RevA.03 25-Dec-2016

 --------------------------
 # td=(NStates=1) B3LYP/SVP
 --------------------------

 --
 TD
 --
 Symbolic Z-matrix:
 Charge =  0 Multiplicity = 1

                         Standard orientation:
 ---------------------------------------------------------------------
 Center     Atomic      Atomic             Coordinates (Angstroms)
 Number     Number       Type             X           Y           Z
 ---------------------------------------------------------------------
      1          8           0       -3.349762   -1.286164   -2.862249
      2          8           0        2.978894    2.881055    3.257395
      3          8           0        3.842753    1.173056    4.296807
      4          8           0        7.827774   -1.576341   -0.804145
      5          8           0        6.583149   -2.971611   -2.113453
      6          8           0       -2.372952    1.436969    1.575497
      7          7           0       -0.319299   -2.334522    0.737792
      8          7           0       -2.688209   -1.237254   -0.599757
      9          7           0        1.196685    0.170960   -0.747808
     10          7           0       -0.883184    1.400723   -0.129609
     11          6           0       -3.393249   -1.389446    0.634086
     12          6           0       -2.675027   -2.302892    1.646161
     13          6           0       -1.222448   -2.011409    1.700886
     14          6           0       -0.517204   -1.271000    2.825700
     15          6           0        0.810353   -1.214687    2.423136
     16          6           0        0.947600   -1.884284    1.116307
     17          6           0       -4.792538   -1.944449    0.174789
     18          6           0        1.902719   -0.444851    3.102204
     19          6           0       -4.854601   -1.974402   -1.138507
     20          6           0        2.044253   -1.982774    0.139502
     21          6           0        2.070725   -0.787188   -0.782525
     22          6           0       -3.607038   -1.373363   -1.662651
     23          6           0        3.065864   -0.522753   -1.806131
     24          6           0       -1.362654   -0.593672    3.919694
     25          6           0       -5.858903   -2.242340    1.233628
     26          6           0        2.527204    0.615650   -2.465851
     27          6           0        1.831479    0.916820    2.815949
     28          6           0        1.472828    1.043945   -1.755701
     29          6           0        4.268167   -1.283397   -2.073163
     30          6           0       -5.924148   -2.252902   -2.094656
     31          6           0        5.466031   -1.035176   -1.166237
     32          6           0        3.186604    1.273326   -3.660591
     33          6           0        0.515853    2.104129   -1.976670
     34          6           0        2.939578    1.656754    3.604025
     35          6           0       -0.552933    2.325047   -1.139709
     36          6           0       -7.012003   -3.054717   -1.957147
     37          6           0        6.581819   -1.882600   -1.387523
     38          6           0       -1.476548    3.539969   -1.129275
     39          6           0       -2.336904    3.274575   -0.058178
     40          6           0       -1.834489    1.934695    0.573115
     41          6           0       -1.305043    4.674596   -2.000082
     42          6           0       -3.347268    4.278341    0.584481
     43          6           0       -2.172825    5.757282   -2.185267
     44          1           0       -3.440201   -0.460466    1.180168
     45          1           0       -2.821947   -3.417674    1.165835
     46          1           0       -3.051135   -2.018597    2.634273
     47          1           0       -0.252188   -3.015498   -0.140672
     48          1           0       -2.189096   -0.484289   -0.811804
     49          1           0        1.777659   -0.831919    4.200840
     50          1           0        2.809667   -1.004360    2.915181
     51          1           0        2.816090   -2.897255    0.187604
     52          1           0       -1.778533   -1.438891    4.342637
     53          1           0       -0.608569   -0.029931    4.677895
     54          1           0       -1.962248    0.001625    3.285605
     55          1           0       -5.695202   -1.931349    2.225424
     56          1           0       -5.650199   -3.404739    1.364722
     57          1           0       -6.867005   -2.145883    0.818360
     58          1           0        1.835713    1.224804    1.750237
     59          1           0        0.934270    1.409762    3.182705
     60          1           0        0.332095    0.233713   -0.244382
     61          1           0        4.522641   -1.240776   -3.146603
     62          1           0        4.089807   -2.433814   -1.971009
     63          1           0       -5.452909   -2.067524   -3.069606
     64          1           0        5.221380   -0.843776   -0.007237
     65          1           0        5.890844   -0.000019   -1.496903
     66          1           0        4.439608    0.730989   -3.585107
     67          1           0        3.236616    2.487524   -3.766851
     68          1           0        2.652447    0.758328   -4.719583
     69          1           0        0.641664    2.681067   -2.889527
     70          1           0       -7.210707   -2.960021   -0.858753
     71          1           0       -7.719922   -3.293408   -2.887297
     72          1           0        3.772995    3.215930    3.626142
     73          1           0       -0.410072    4.692836   -2.683001
     74          1           0       -4.389818    4.217492    0.131038
     75          1           0       -3.521024    3.892136    1.644393
     76          1           0       -3.038693    5.466000    0.780534
     77          1           0        8.441215   -2.222379   -1.181472
     78          1           0       -1.734451    6.474261   -2.953529
     79          1           0       -3.153121    5.720084   -1.646205
 ---------------------------------------------------------------------

 SCF Done:  E(RB3LYP) =  -1947.76214151     A.U. after   24 cycles

 Excitation energies and oscillator strengths:

 Excited State   1:      Singlet-A      0.2304 eV 5381.57 nm  f=0.0003  <S**2>=0.000
     155 ->156         0.70550
 This state for optimization and/or second-order correction.
 Total Energy, E(TD-HF/TD-DFT) =  -1947.75367495
 Copying the excited state density for this state as the 1-particle RhoCI density.

 The electronic state is 1-A.
 Alpha  occ. eigenvalues --  -19.19184 -19.18752 -19.13900 -19.11409 -19.10448
 Alpha  occ. eigenvalues --  -19.09118 -14.38195 -14.37442 -14.32189 -14.30667
 Alpha  occ. eigenvalues --  -10.34543 -10.31143 -10.27366 -10.26726 -10.26725
 Alpha  occ. eigenvalues --  -10.26587 -10.26430 -10.25854 -10.25591 -10.25173
 Alpha  occ. eigenvalues --  -10.23842 -10.23395 -10.22979 -10.21795 -10.21656
 Alpha  occ. eigenvalues --  -10.21654 -10.21601 -10.21591 -10.21432 -10.21369
 Alpha  occ. eigenvalues --  -10.20772 -10.20755 -10.20575 -10.20497 -10.20211
 Alpha  occ. eigenvalues --  -10.19506 -10.19283 -10.18267 -10.18051 -10.17865
 Alpha  occ. eigenvalues --  -10.17740 -10.17650 -10.17523  -1.13135  -1.08228
 Alpha  occ. eigenvalues --   -1.03334  -1.01473  -1.00947  -0.99000  -0.97648
 Alpha  occ. eigenvalues --   -0.95666  -0.93079  -0.92842  -0.85577  -0.83016
 Alpha  occ. eigenvalues --   -0.81839  -0.81409  -0.80823  -0.80654  -0.78507
 Alpha  occ. eigenvalues --   -0.76278  -0.75965  -0.74634  -0.74238  -0.73268
 Alpha  occ. eigenvalues --   -0.71075  -0.70786  -0.70392  -0.69635  -0.67569
 Alpha  occ. eigenvalues --   -0.66932  -0.65325  -0.62600  -0.61275  -0.60871
 Alpha  occ. eigenvalues --   -0.60306  -0.59542  -0.58750  -0.57576  -0.57382
 Alpha  occ. eigenvalues --   -0.56947  -0.55543  -0.54454  -0.52984  -0.52762
 Alpha  occ. eigenvalues --   -0.52629  -0.51473  -0.51014  -0.50202  -0.49525
 Alpha  occ. eigenvalues --   -0.49214  -0.49079  -0.48587  -0.48419  -0.48068
 Alpha  occ. eigenvalues --   -0.47768  -0.47387  -0.47046  -0.46322  -0.46007
 Alpha  occ. eigenvalues --   -0.45159  -0.44312  -0.44086  -0.43984  -0.43860
 Alpha  occ. eigenvalues --   -0.43807  -0.43589  -0.42962  -0.42432  -0.42353
 Alpha  occ. eigenvalues --   -0.42012  -0.41986  -0.41518  -0.40854  -0.40683
 Alpha  occ. eigenvalues --   -0.40638  -0.40383  -0.39911  -0.39708  -0.39642
 Alpha  occ. eigenvalues --   -0.39499  -0.39235  -0.38975  -0.38695  -0.38241
 Alpha  occ. eigenvalues --   -0.37889  -0.37598  -0.36926  -0.36445  -0.35807
 Alpha  occ. eigenvalues --   -0.35557  -0.35283  -0.35179  -0.34929  -0.34467
 Alpha  occ. eigenvalues --   -0.32715  -0.32023  -0.32004  -0.31641  -0.31441
 Alpha  occ. eigenvalues --   -0.30907  -0.30274  -0.29204  -0.28929  -0.28727
 Alpha  occ. eigenvalues --   -0.27435  -0.27208  -0.25437  -0.25154  -0.24381
 Alpha  occ. eigenvalues --   -0.23345  -0.23209  -0.22910  -0.22477  -0.17965
 Alpha virt. eigenvalues --   -0.14188  -0.08129  -0.04723  -0.04106  -0.02391
 Alpha virt. eigenvalues --   -0.00288   0.00609   0.00764   0.01387   0.02225
 Alpha virt. eigenvalues --    0.03710   0.03831   0.04537   0.04635   0.04968

 Mulliken charges:
               1
     1  O   -0.248739
     2  O   -0.076478
     3  O   -0.272606
     4  O   -0.212553
     5  O   -0.311798
     6  O   -0.252007
     7  N   -0.079296
     8  N   -0.129220
     9  N    0.040202
    10  N   -0.272729
    11  C    0.054421
    12  C    0.212078
    13  C   -0.152073
    14  C   -0.142596
    15  C   -0.146170
    16  C   -0.063368
    17  C   -0.179265
    18  C    0.123970
    19  C   -0.067128
    20  C   -0.113213
    21  C    0.019617
    22  C    0.118049
    23  C   -0.035626
    24  C    0.118138
    25  C    0.101414
    26  C   -0.069426
    27  C    0.056510
    28  C    0.093925
    29  C    0.027508
    30  C   -0.009841
    31  C   -0.015820
    32  C   -0.110862
    33  C   -0.101196
    34  C    0.083202
    35  C    0.112008
    36  C   -0.050773
    37  C    0.179452
    38  C    0.104347
    39  C   -0.182288
    40  C    0.145896
    41  C   -0.093414
    42  C   -0.024436
    43  C   -0.020208
    44  H    0.028531
    45  H   -0.001061
    46  H   -0.021729
    47  H    0.166631
    48  H    0.091802
    49  H    0.017958
    50  H   -0.021303
    51  H    0.072381
    52  H    0.012266
    53  H    0.025974
    54  H    0.056809
    55  H    0.008211
    56  H    0.038807
    57  H    0.050226
    58  H    0.032832
    59  H    0.027163
    60  H    0.170260
    61  H    0.032503
    62  H    0.051031
    63  H    0.007756
    64  H    0.099260
    65  H    0.059243
    66  H    0.049143
    67  H    0.081328
    68  H    0.079474
    69  H   -0.016667
    70  H    0.006314
    71  H    0.062020
    72  H    0.150708
    73  H    0.001706
    74  H    0.047073
    75  H    0.034807
    76  H    0.062077
    77  H    0.191083
    78  H    0.044601
    79  H    0.043176
 Sum of Mulliken charges =  -0.00000

 Dipole moment (field-independent basis, Debye):
    X=              3.1850    Y=              3.0562    Z=             -1.4110  Tot=              4.6342
 Quadrupole moment (field-independent basis, Debye-Ang):
   XX=           -243.5452   YY=           -241.4135   ZZ=           -269.2974
   XY=              7.0543   XZ=            -25.0074   YZ=            -12.8317

 Normal termination of Gaussian 16 at Wed Jul 24 07:07:17 2019.
