 Gaussian 16, Revision A.03,
 Gaussian 16:  ES64L-G16RevA.03 25-Dec-2016

 --------------------------
 # td=(NStates=1) B3LYP/SVP
 --------------------------

 --
 TD
 --
 Symbolic Z-matrix:
 Charge =  0 Multiplicity = 1

                         Standard orientation:
 ---------------------------------------------------------------------
 Center     Atomic      Atomic             Coordinates (Angstroms)
 Number     Number       Type             X           Y           Z
 ---------------------------------------------------------------------
      1          8           0       -3.407930   -0.913600   -2.985214
      2          8           0        3.235278    2.766981    3.432379
      3          8           0        3.898700    0.796552    4.294610
      4          8           0        7.572666   -1.680628   -0.733176
      5          8           0        6.597320   -2.687307   -2.469667
      6          8           0       -2.604661    1.441399    1.582160
      7          7           0       -0.230064   -2.441930    0.642753
      8          7           0       -2.706441   -1.181956   -0.777384
      9          7           0        1.171830    0.267472   -0.758790
     10          7           0       -1.000072    1.475090    0.039221
     11          6           0       -3.332657   -1.534735    0.518706
     12          6           0       -2.614615   -2.530036    1.352439
     13          6           0       -1.137391   -2.144129    1.539740
     14          6           0       -0.463224   -1.531556    2.613445
     15          6           0        0.923523   -1.353152    2.316152
     16          6           0        1.038734   -1.947423    1.033717
     17          6           0       -4.725564   -2.018663    0.127719
     18          6           0        1.926451   -0.741609    3.251613
     19          6           0       -4.794186   -2.005014   -1.173922
     20          6           0        2.110278   -1.882355    0.060326
     21          6           0        2.079374   -0.775797   -0.773728
     22          6           0       -3.553314   -1.334447   -1.847927
     23          6           0        3.054483   -0.324888   -1.860956
     24          6           0       -1.156409   -0.792929    3.773043
     25          6           0       -5.748746   -2.330844    1.266557
     26          6           0        2.470597    0.812817   -2.457507
     27          6           0        1.868776    0.797587    2.951233
     28          6           0        1.349188    1.130744   -1.796410
     29          6           0        4.220024   -1.221114   -2.264996
     30          6           0       -5.879847   -2.349289   -2.118684
     31          6           0        5.378779   -0.944215   -1.270181
     32          6           0        3.147277    1.547783   -3.593235
     33          6           0        0.403763    2.156027   -1.885178
     34          6           0        3.108353    1.392087    3.630831
     35          6           0       -0.653754    2.339149   -0.893842
     36          6           0       -6.992845   -3.103459   -1.770331
     37          6           0        6.587236   -1.811006   -1.693019
     38          6           0       -1.476370    3.542601   -0.931645
     39          6           0       -2.385506    3.491459    0.115346
     40          6           0       -2.085263    2.072680    0.667634
     41          6           0       -1.189045    4.852211   -1.643647
     42          6           0       -3.453731    4.305313    0.764889
     43          6           0       -2.194119    5.840213   -1.784990
     44          1           0       -3.385192   -0.679259    0.971488
     45          1           0       -2.430386   -3.582492    0.802178
     46          1           0       -3.186146   -2.904355    2.143714
     47          1           0       -0.330895   -2.876436   -0.147762
     48          1           0       -2.088940   -0.426094   -0.800795
     49          1           0        1.721905   -0.872336    4.360396
     50          1           0        2.846846   -1.378013    2.987171
     51          1           0        2.711900   -2.879048   -0.078906
     52          1           0       -1.837441   -1.471755    4.430796
     53          1           0       -0.321783   -0.318965    4.491745
     54          1           0       -1.639899   -0.065057    3.282378
     55          1           0       -5.544280   -1.767733    2.022684
     56          1           0       -5.479396   -3.455964    1.386016
     57          1           0       -6.795335   -2.110554    0.915012
     58          1           0        1.951377    1.162655    1.850348
     59          1           0        0.989429    1.251907    3.410415
     60          1           0        0.222301    0.645152   -0.109353
     61          1           0        4.385664   -1.211968   -3.287431
     62          1           0        4.123950   -2.226721   -2.084365
     63          1           0       -5.681594   -1.817260   -3.048018
     64          1           0        5.167691   -0.940447   -0.300893
     65          1           0        5.589760   -0.003661   -1.351196
     66          1           0        3.747963    0.873981   -4.327100
     67          1           0        3.978815    2.413504   -3.160930
     68          1           0        2.154785    1.961752   -4.276417
     69          1           0        0.462666    2.849572   -2.581372
     70          1           0       -7.099751   -3.253979   -0.630688
     71          1           0       -7.913225   -3.282484   -2.572048
     72          1           0        3.853123    3.318992    3.978342
     73          1           0        0.101048    5.072251   -1.848379
     74          1           0       -4.471823    3.959850    0.199022
     75          1           0       -3.557244    3.962476    1.818834
     76          1           0       -3.314466    5.625735    0.499791
     77          1           0        8.339373   -2.232064   -1.150842
     78          1           0       -1.710559    6.782269   -2.437104
     79          1           0       -3.519500    5.634584   -1.685242
 ---------------------------------------------------------------------

 SCF Done:  E(RB3LYP) =  -1947.68890092     A.U. after   17 cycles

 Excitation energies and oscillator strengths:

 Excited State   1:      Singlet-A      1.0132 eV 1223.66 nm  f=0.0040  <S**2>=0.000
     155 ->156         0.70329
 This state for optimization and/or second-order correction.
 Total Energy, E(TD-HF/TD-DFT) =  -1947.65166548
 Copying the excited state density for this state as the 1-particle RhoCI density.

 The electronic state is 1-A.
 Alpha  occ. eigenvalues --  -19.18618 -19.15998 -19.14902 -19.12549 -19.12028
 Alpha  occ. eigenvalues --  -19.09381 -14.35810 -14.35124 -14.32823 -14.32367
 Alpha  occ. eigenvalues --  -10.33085 -10.31247 -10.29305 -10.27281 -10.25601
 Alpha  occ. eigenvalues --  -10.25369 -10.24820 -10.24769 -10.24562 -10.24431
 Alpha  occ. eigenvalues --  -10.23834 -10.23181 -10.22895 -10.22764 -10.22481
 Alpha  occ. eigenvalues --  -10.21612 -10.21107 -10.20981 -10.20483 -10.20321
 Alpha  occ. eigenvalues --  -10.20269 -10.20212 -10.20035 -10.20027 -10.20001
 Alpha  occ. eigenvalues --  -10.19979 -10.19919 -10.19768 -10.18864 -10.18025
 Alpha  occ. eigenvalues --  -10.17359 -10.17171 -10.15863  -1.11091  -1.07258
 Alpha  occ. eigenvalues --   -1.03963  -1.01898  -1.01053  -0.99037  -0.98723
 Alpha  occ. eigenvalues --   -0.97748  -0.95191  -0.92524  -0.83344  -0.82113
 Alpha  occ. eigenvalues --   -0.81736  -0.80808  -0.80209  -0.79042  -0.78363
 Alpha  occ. eigenvalues --   -0.76514  -0.75696  -0.74768  -0.73497  -0.71983
 Alpha  occ. eigenvalues --   -0.70509  -0.70234  -0.69482  -0.68022  -0.67614
 Alpha  occ. eigenvalues --   -0.66980  -0.65874  -0.63297  -0.60843  -0.60006
 Alpha  occ. eigenvalues --   -0.59224  -0.59122  -0.58903  -0.57960  -0.57355
 Alpha  occ. eigenvalues --   -0.56039  -0.54844  -0.54174  -0.53078  -0.52402
 Alpha  occ. eigenvalues --   -0.51803  -0.51361  -0.50431  -0.50080  -0.49451
 Alpha  occ. eigenvalues --   -0.49323  -0.48953  -0.48190  -0.47598  -0.47175
 Alpha  occ. eigenvalues --   -0.46953  -0.46456  -0.45817  -0.45749  -0.45246
 Alpha  occ. eigenvalues --   -0.45037  -0.44838  -0.44421  -0.44087  -0.43626
 Alpha  occ. eigenvalues --   -0.43426  -0.42815  -0.42628  -0.42419  -0.41907
 Alpha  occ. eigenvalues --   -0.41707  -0.41620  -0.41251  -0.40957  -0.40803
 Alpha  occ. eigenvalues --   -0.40521  -0.40382  -0.40170  -0.39912  -0.39751
 Alpha  occ. eigenvalues --   -0.39387  -0.38931  -0.38821  -0.38531  -0.38261
 Alpha  occ. eigenvalues --   -0.38130  -0.37195  -0.36505  -0.36330  -0.35964
 Alpha  occ. eigenvalues --   -0.35819  -0.35450  -0.35063  -0.34811  -0.34348
 Alpha  occ. eigenvalues --   -0.34004  -0.33554  -0.32756  -0.31416  -0.31276
 Alpha  occ. eigenvalues --   -0.30672  -0.30442  -0.30160  -0.29857  -0.29340
 Alpha  occ. eigenvalues --   -0.27389  -0.26695  -0.25755  -0.25444  -0.24553
 Alpha  occ. eigenvalues --   -0.24422  -0.22788  -0.22548  -0.21906  -0.18853
 Alpha virt. eigenvalues --   -0.12570  -0.07874  -0.03532  -0.03239  -0.01144
 Alpha virt. eigenvalues --    0.01162   0.01338   0.01684   0.02057   0.02320
 Alpha virt. eigenvalues --    0.02566   0.03506   0.04037   0.04490   0.04806

 Mulliken charges:
               1
     1  O   -0.234728
     2  O   -0.264448
     3  O   -0.195765
     4  O   -0.236737
     5  O   -0.177265
     6  O   -0.197520
     7  N    0.052457
     8  N   -0.199941
     9  N   -0.212284
    10  N   -0.252612
    11  C    0.208937
    12  C    0.168986
    13  C   -0.083547
    14  C   -0.167512
    15  C   -0.063582
    16  C   -0.070450
    17  C   -0.232420
    18  C    0.076568
    19  C   -0.114078
    20  C   -0.152687
    21  C    0.169737
    22  C    0.163460
    23  C   -0.095944
    24  C    0.073126
    25  C    0.153379
    26  C   -0.110760
    27  C   -0.025510
    28  C    0.177942
    29  C    0.187001
    30  C    0.013720
    31  C    0.098963
    32  C   -0.053145
    33  C   -0.031431
    34  C    0.139525
    35  C    0.054260
    36  C   -0.084786
    37  C    0.143965
    38  C   -0.022698
    39  C   -0.118800
    40  C    0.133830
    41  C   -0.071195
    42  C   -0.031445
    43  C   -0.142964
    44  H   -0.040729
    45  H   -0.011265
    46  H   -0.022525
    47  H    0.042195
    48  H    0.111872
    49  H    0.031296
    50  H    0.032579
    51  H    0.051229
    52  H    0.013768
    53  H    0.003506
    54  H    0.010618
    55  H   -0.023338
    56  H    0.060736
    57  H    0.047121
    58  H    0.060585
    59  H    0.046583
    60  H    0.265941
    61  H   -0.007510
    62  H   -0.016795
    63  H    0.006105
    64  H   -0.000321
    65  H   -0.034389
    66  H    0.048733
    67  H    0.071453
    68  H    0.057611
    69  H   -0.102395
    70  H    0.024989
    71  H    0.055276
    72  H    0.194493
    73  H    0.076690
    74  H    0.071168
    75  H    0.057103
    76  H    0.076638
    77  H    0.198457
    78  H    0.067988
    79  H    0.102929
 Sum of Mulliken charges =  -0.00000

 Dipole moment (field-independent basis, Debye):
    X=              2.6195    Y=              3.4772    Z=             -0.1465  Tot=              4.3559
 Quadrupole moment (field-independent basis, Debye-Ang):
   XX=           -235.7121   YY=           -234.7323   ZZ=           -270.3261
   XY=              1.6015   XZ=            -25.3150   YZ=             -7.2032

 Normal termination of Gaussian 16 at Tue Jul 30 11:21:31 2019.
