 Gaussian 16, Revision A.03,
 Gaussian 16:  ES64L-G16RevA.03 25-Dec-2016

 --------------------------
 # td=(NStates=1) B3LYP/SVP
 --------------------------

 --
 TD
 --
 Symbolic Z-matrix:
 Charge =  0 Multiplicity = 1

                         Standard orientation:
 ---------------------------------------------------------------------
 Center     Atomic      Atomic             Coordinates (Angstroms)
 Number     Number       Type             X           Y           Z
 ---------------------------------------------------------------------
      1          8           0       -3.219484   -1.510117   -2.735831
      2          8           0        3.228630    3.321888    2.744477
      3          8           0        3.646392    1.931445    4.475508
      4          8           0        7.837778   -1.576624   -0.634354
      5          8           0        6.875960   -3.070336   -2.027717
      6          8           0       -2.644521    1.723212    1.457450
      7          7           0       -0.226668   -2.361332    1.069604
      8          7           0       -2.688904   -1.293529   -0.448991
      9          7           0        1.063402   -0.043352   -0.746518
     10          7           0       -0.980195    1.403768   -0.256766
     11          6           0       -3.435044   -1.289552    0.719534
     12          6           0       -2.709269   -2.246224    1.679280
     13          6           0       -1.288220   -1.842392    1.847952
     14          6           0       -0.740919   -0.933349    2.848709
     15          6           0        0.700428   -0.960539    2.541447
     16          6           0        0.902788   -1.763611    1.426395
     17          6           0       -4.833791   -1.854681    0.384957
     18          6           0        1.789842   -0.110757    3.250035
     19          6           0       -4.821403   -1.971977   -0.952790
     20          6           0        2.041228   -1.846036    0.503734
     21          6           0        2.134503   -0.950066   -0.559998
     22          6           0       -3.519345   -1.484832   -1.538271
     23          6           0        3.159670   -0.734855   -1.663336
     24          6           0       -1.401237   -0.130661    3.890155
     25          6           0       -5.800288   -2.185104    1.473822
     26          6           0        2.550726    0.275664   -2.350883
     27          6           0        1.940591    1.262491    2.785992
     28          6           0        1.368554    0.775393   -1.761002
     29          6           0        4.297019   -1.630810   -1.834197
     30          6           0       -5.788654   -2.443237   -1.924679
     31          6           0        5.554580   -1.207652   -1.049969
     32          6           0        3.185178    0.812301   -3.624965
     33          6           0        0.557115    1.749471   -2.055356
     34          6           0        3.037612    2.238848    3.472981
     35          6           0       -0.572416    2.095935   -1.225130
     36          6           0       -6.934257   -3.175110   -1.589670
     37          6           0        6.819796   -2.080479   -1.350505
     38          6           0       -1.484875    3.293745   -1.569479
     39          6           0       -2.380046    3.218045   -0.470898
     40          6           0       -2.151033    2.106690    0.342730
     41          6           0       -1.342215    4.197261   -2.679727
     42          6           0       -3.519389    4.153740   -0.143697
     43          6           0       -2.002081    5.393836   -2.922629
     44          1           0       -3.390830   -0.340769    1.288711
     45          1           0       -2.953837   -3.478007    1.383529
     46          1           0       -3.311511   -2.143769    2.681409
     47          1           0       -0.390105   -2.960794    0.395268
     48          1           0       -2.015049   -0.462063   -0.557848
     49          1           0        1.463125   -0.093266    4.333797
     50          1           0        2.723544   -0.730167    3.016600
     51          1           0        2.947078   -2.409149    0.752908
     52          1           0       -2.263661   -0.651005    4.209194
     53          1           0       -0.641658   -0.091750    4.830776
     54          1           0       -1.622146    1.064033    3.413729
     55          1           0       -5.555461   -1.665197    2.464588
     56          1           0       -6.162459   -3.414154    1.552936
     57          1           0       -6.701343   -1.697766    1.127926
     58          1           0        2.080109    1.281488    1.705016
     59          1           0        0.945938    1.953742    2.751933
     60          1           0        0.276616    0.394982   -0.225832
     61          1           0        4.465580   -1.743043   -2.839866
     62          1           0        4.183707   -2.696471   -1.738191
     63          1           0       -5.426974   -2.189956   -3.065445
     64          1           0        5.485107   -1.016326    0.020705
     65          1           0        5.989974   -0.143848   -1.287864
     66          1           0        3.813942    0.072263   -4.145081
     67          1           0        3.664679    1.711114   -3.407128
     68          1           0        2.440401    0.918676   -4.582357
     69          1           0        0.739150    2.293176   -3.025072
     70          1           0       -7.253349   -3.330459   -0.535389
     71          1           0       -7.589609   -3.700704   -2.343416
     72          1           0        3.871741    3.845982    3.240550
     73          1           0       -0.429789    3.868795   -3.290201
     74          1           0       -4.315057    4.243271   -0.920188
     75          1           0       -3.942528    3.699862    0.656895
     76          1           0       -3.172674    5.146499    0.175413
     77          1           0        8.709150   -2.038244   -0.936599
     78          1           0       -1.739699    5.935352   -3.982367
     79          1           0       -2.784467    5.684071   -2.079864
 ---------------------------------------------------------------------

 SCF Done:  E(RB3LYP) =  -1947.83790424     A.U. after   17 cycles

 Excitation energies and oscillator strengths:

 Excited State   1:      Singlet-A      0.8783 eV 1411.67 nm  f=0.0024  <S**2>=0.000
     155 ->156         0.70356
 This state for optimization and/or second-order correction.
 Total Energy, E(TD-HF/TD-DFT) =  -1947.80562801
 Copying the excited state density for this state as the 1-particle RhoCI density.

 The electronic state is 1-A.
 Alpha  occ. eigenvalues --  -19.19867 -19.19156 -19.14261 -19.13913 -19.12143
 Alpha  occ. eigenvalues --  -19.08646 -14.35550 -14.35455 -14.32921 -14.31927
 Alpha  occ. eigenvalues --  -10.33501 -10.31862 -10.29799 -10.26501 -10.25316
 Alpha  occ. eigenvalues --  -10.25193 -10.24445 -10.24013 -10.23381 -10.23205
 Alpha  occ. eigenvalues --  -10.23034 -10.22996 -10.22194 -10.21529 -10.21473
 Alpha  occ. eigenvalues --  -10.21472 -10.21354 -10.21267 -10.20951 -10.20445
 Alpha  occ. eigenvalues --  -10.20368 -10.20296 -10.20223 -10.20063 -10.19905
 Alpha  occ. eigenvalues --  -10.19760 -10.19233 -10.19086 -10.19061 -10.19051
 Alpha  occ. eigenvalues --  -10.18064 -10.17293 -10.16912  -1.10831  -1.10694
 Alpha  occ. eigenvalues --   -1.02117  -1.01925  -1.00584  -1.00221  -0.99712
 Alpha  occ. eigenvalues --   -0.96920  -0.95144  -0.93233  -0.84522  -0.82347
 Alpha  occ. eigenvalues --   -0.81770  -0.80263  -0.79511  -0.79223  -0.78041
 Alpha  occ. eigenvalues --   -0.77224  -0.75333  -0.75035  -0.73135  -0.72229
 Alpha  occ. eigenvalues --   -0.71238  -0.69896  -0.69759  -0.69142  -0.68032
 Alpha  occ. eigenvalues --   -0.66674  -0.65975  -0.62737  -0.61403  -0.60446
 Alpha  occ. eigenvalues --   -0.59864  -0.59327  -0.59182  -0.58650  -0.56404
 Alpha  occ. eigenvalues --   -0.55461  -0.55128  -0.54454  -0.53577  -0.52598
 Alpha  occ. eigenvalues --   -0.51661  -0.51358  -0.50248  -0.49635  -0.49578
 Alpha  occ. eigenvalues --   -0.49315  -0.48566  -0.48490  -0.48129  -0.47602
 Alpha  occ. eigenvalues --   -0.47443  -0.46896  -0.46567  -0.45694  -0.45494
 Alpha  occ. eigenvalues --   -0.45176  -0.44868  -0.44617  -0.44203  -0.44102
 Alpha  occ. eigenvalues --   -0.43808  -0.43489  -0.43031  -0.42484  -0.42299
 Alpha  occ. eigenvalues --   -0.41689  -0.41578  -0.41322  -0.41180  -0.40688
 Alpha  occ. eigenvalues --   -0.40485  -0.40286  -0.40080  -0.39959  -0.39680
 Alpha  occ. eigenvalues --   -0.39080  -0.38386  -0.38295  -0.38028  -0.37465
 Alpha  occ. eigenvalues --   -0.37064  -0.36982  -0.36730  -0.36243  -0.36114
 Alpha  occ. eigenvalues --   -0.35772  -0.35427  -0.34896  -0.34353  -0.33840
 Alpha  occ. eigenvalues --   -0.33747  -0.32961  -0.32919  -0.32463  -0.31912
 Alpha  occ. eigenvalues --   -0.30784  -0.30067  -0.29867  -0.29769  -0.29498
 Alpha  occ. eigenvalues --   -0.27539  -0.27038  -0.26953  -0.24999  -0.24664
 Alpha  occ. eigenvalues --   -0.23741  -0.22073  -0.21987  -0.21821  -0.18681
 Alpha virt. eigenvalues --   -0.13252  -0.08001  -0.04319  -0.02417  -0.00550
 Alpha virt. eigenvalues --    0.01324   0.01787   0.02107   0.02576   0.03231
 Alpha virt. eigenvalues --    0.03659   0.03894   0.04161   0.04317   0.04657

 Mulliken charges:
               1
     1  O   -0.251635
     2  O   -0.139836
     3  O   -0.226188
     4  O   -0.211733
     5  O   -0.207808
     6  O   -0.241586
     7  N    0.037094
     8  N   -0.186101
     9  N   -0.090629
    10  N   -0.298853
    11  C    0.020301
    12  C    0.040919
    13  C   -0.076867
    14  C   -0.094152
    15  C   -0.147531
    16  C    0.010240
    17  C   -0.099254
    18  C    0.169195
    19  C   -0.090316
    20  C   -0.127703
    21  C    0.094098
    22  C    0.147772
    23  C   -0.000485
    24  C    0.024432
    25  C    0.028353
    26  C   -0.141943
    27  C   -0.063567
    28  C    0.140212
    29  C    0.195047
    30  C   -0.035554
    31  C   -0.064143
    32  C    0.062504
    33  C   -0.148943
    34  C    0.122567
    35  C    0.061080
    36  C   -0.073373
    37  C    0.141457
    38  C    0.052635
    39  C   -0.223834
    40  C    0.225061
    41  C   -0.033626
    42  C    0.146432
    43  C   -0.062024
    44  H    0.044570
    45  H    0.012190
    46  H    0.001195
    47  H    0.053611
    48  H    0.170648
    49  H    0.012275
    50  H    0.006948
    51  H    0.004177
    52  H   -0.006583
    53  H    0.022721
    54  H    0.085954
    55  H    0.039363
    56  H    0.070218
    57  H    0.031472
    58  H    0.006772
    59  H    0.042583
    60  H    0.185868
    61  H   -0.033991
    62  H    0.016655
    63  H    0.055685
    64  H    0.040641
    65  H    0.040576
    66  H    0.018663
    67  H    0.027516
    68  H    0.035956
    69  H   -0.009668
    70  H    0.013149
    71  H    0.035113
    72  H    0.171497
    73  H    0.015187
    74  H    0.038445
    75  H   -0.020157
    76  H    0.032716
    77  H    0.211930
    78  H    0.079177
    79  H    0.065218
 Sum of Mulliken charges =  -0.00000

 Dipole moment (field-independent basis, Debye):
    X=              3.6556    Y=              4.4956    Z=             -2.4229  Tot=              6.2805
 Quadrupole moment (field-independent basis, Debye-Ang):
   XX=           -225.5874   YY=           -235.3598   ZZ=           -271.0815
   XY=              0.7735   XZ=            -23.0261   YZ=            -17.7925

 Normal termination of Gaussian 16 at Wed Jul 24 09:39:49 2019.
