 Gaussian 16, Revision A.03,
 Gaussian 16:  ES64L-G16RevA.03 25-Dec-2016

 --------------------------
 # td=(NStates=1) B3LYP/SVP
 --------------------------

 --
 TD
 --
 Symbolic Z-matrix:
 Charge =  0 Multiplicity = 1

                         Standard orientation:
 ---------------------------------------------------------------------
 Center     Atomic      Atomic             Coordinates (Angstroms)
 Number     Number       Type             X           Y           Z
 ---------------------------------------------------------------------
      1          8           0        5.280043    0.010578   -3.266079
      2          8           0       -2.942526   -2.972649    3.159210
      3          8           0       -3.336033   -0.708700    3.206501
      4          8           0       -1.453197    7.242765    1.429006
      5          8           0       -0.577838    6.972113   -0.582690
      6          8           0       -1.848452   -4.025707    0.053871
      7          7           0        2.361766    0.923002    0.630805
      8          7           0        4.346798   -0.445499   -1.227461
      9          7           0       -1.909957    0.696049   -0.396427
     10          7           0       -2.569970   -1.902469   -0.607569
     11          6           0        4.757062   -1.106647    0.006712
     12          6           0        4.380949   -0.231165    1.282627
     13          6           0        2.978743   -0.072020    1.383458
     14          6           0        1.918644   -0.604137    2.214165
     15          6           0        0.709800    0.053479    1.884232
     16          6           0        0.927831    0.995022    0.814801
     17          6           0        6.220622   -1.394341   -0.160405
     18          6           0       -0.568184   -0.096174    2.583296
     19          6           0        6.594297   -0.928135   -1.412674
     20          6           0        0.146579    1.881572    0.140961
     21          6           0       -1.140468    1.848200   -0.306002
     22          6           0        5.370146   -0.413533   -2.148357
     23          6           0       -2.010182    2.856853   -0.801353
     24          6           0        2.096211   -1.638544    3.181944
     25          6           0        7.176724   -2.124379    0.867795
     26          6           0       -3.138416    2.262607   -1.271903
     27          6           0       -1.139298   -1.496870    2.567016
     28          6           0       -3.110567    0.890937   -1.051813
     29          6           0       -1.558715    4.372529   -0.880880
     30          6           0        7.923787   -0.896654   -2.093107
     31          6           0       -1.627894    5.114168    0.478374
     32          6           0       -4.267993    2.922089   -2.133403
     33          6           0       -3.946690   -0.188570   -1.408958
     34          6           0       -2.610760   -1.692820    3.014233
     35          6           0       -3.684499   -1.514511   -1.157007
     36          6           0        9.095663   -1.028519   -1.521289
     37          6           0       -1.210976    6.532298    0.345776
     38          6           0       -4.584750   -2.561544   -1.323748
     39          6           0       -3.923849   -3.720460   -0.940926
     40          6           0       -2.659381   -3.244095   -0.399834
     41          6           0       -5.807032   -2.384633   -2.120365
     42          6           0       -4.323718   -5.170147   -1.003446
     43          6           0       -6.491626   -3.465412   -2.784263
     44          1           0        4.032558   -1.953109    0.156505
     45          1           0        4.740462    0.880988    1.330180
     46          1           0        4.939429   -0.893657    2.153298
     47          1           0        2.981951    1.495334   -0.184743
     48          1           0        3.472252   -0.500276   -1.630777
     49          1           0       -0.568065    0.255340    3.568430
     50          1           0       -1.373080    0.508523    1.959553
     51          1           0        0.781242    2.922807   -0.049239
     52          1           0        3.128708   -1.971135    3.114868
     53          1           0        1.711125   -1.483516    4.257358
     54          1           0        1.469757   -2.539550    2.853908
     55          1           0        6.646207   -2.740391    1.530988
     56          1           0        7.707335   -1.369656    1.549369
     57          1           0        7.762529   -2.682430    0.204856
     58          1           0       -0.942638   -2.038468    1.702981
     59          1           0       -0.551334   -2.037264    3.204907
     60          1           0       -1.892503   -0.280312   -0.011972
     61          1           0       -2.017611    4.777975   -1.618439
     62          1           0       -0.575342    4.423396   -0.998814
     63          1           0        7.869710   -0.616722   -3.137081
     64          1           0       -0.921744    4.505322    1.317995
     65          1           0       -2.662588    5.237103    0.837221
     66          1           0       -4.094113    4.081051   -1.785754
     67          1           0       -5.257307    2.540652   -1.821128
     68          1           0       -4.042732    2.699298   -3.334041
     69          1           0       -4.973748    0.149790   -1.966093
     70          1           0        9.091079   -1.185721   -0.343668
     71          1           0       10.078847   -1.100035   -2.149199
     72          1           0       -3.868681   -3.097199    3.427299
     73          1           0       -6.269481   -1.486750   -2.128664
     74          1           0       -5.119059   -5.368510   -0.517666
     75          1           0       -4.285035   -5.596537   -2.051233
     76          1           0       -3.486617   -5.657695   -0.552069
     77          1           0       -1.079409    8.140309    1.183114
     78          1           0       -7.733102   -3.240852   -3.079634
     79          1           0       -6.227806   -4.361551   -2.860553
 ---------------------------------------------------------------------

 SCF Done:  E(RB3LYP) =  -1947.80698670     A.U. after   20 cycles

 Excitation energies and oscillator strengths:

 Excited State   1:      Singlet-A      1.9853 eV  624.52 nm  f=0.4156  <S**2>=0.000
     154 ->156         0.28762
     155 ->156         0.64295
     155 <-156        -0.11587
 This state for optimization and/or second-order correction.
 Total Energy, E(TD-HF/TD-DFT) =  -1947.73402965
 Copying the excited state density for this state as the 1-particle RhoCI density.

 The electronic state is 1-A.
 Alpha  occ. eigenvalues --  -19.19534 -19.18372 -19.12912 -19.11259 -19.10850
 Alpha  occ. eigenvalues --  -19.09261 -14.39682 -14.35445 -14.35201 -14.27379
 Alpha  occ. eigenvalues --  -10.32198 -10.31434 -10.28903 -10.26488 -10.24676
 Alpha  occ. eigenvalues --  -10.24293 -10.24141 -10.24037 -10.23828 -10.23602
 Alpha  occ. eigenvalues --  -10.23583 -10.23055 -10.22451 -10.22405 -10.21903
 Alpha  occ. eigenvalues --  -10.21485 -10.21310 -10.21061 -10.20920 -10.20263
 Alpha  occ. eigenvalues --  -10.20165 -10.20039 -10.20035 -10.19879 -10.19776
 Alpha  occ. eigenvalues --  -10.19775 -10.19594 -10.19180 -10.18889 -10.18430
 Alpha  occ. eigenvalues --  -10.18350 -10.17514 -10.16625  -1.11809  -1.08798
 Alpha  occ. eigenvalues --   -1.04234  -1.01352  -1.01138  -0.98830  -0.98155
 Alpha  occ. eigenvalues --   -0.96965  -0.95049  -0.93618  -0.83167  -0.82579
 Alpha  occ. eigenvalues --   -0.82297  -0.81735  -0.80023  -0.79247  -0.78156
 Alpha  occ. eigenvalues --   -0.77706  -0.76927  -0.76161  -0.74176  -0.72643
 Alpha  occ. eigenvalues --   -0.72385  -0.71207  -0.69822  -0.69239  -0.68337
 Alpha  occ. eigenvalues --   -0.67154  -0.66973  -0.64264  -0.61241  -0.60762
 Alpha  occ. eigenvalues --   -0.60442  -0.59631  -0.59240  -0.58507  -0.56801
 Alpha  occ. eigenvalues --   -0.56512  -0.55375  -0.54848  -0.53966  -0.53378
 Alpha  occ. eigenvalues --   -0.52430  -0.51549  -0.51377  -0.50516  -0.50093
 Alpha  occ. eigenvalues --   -0.49394  -0.49221  -0.49022  -0.48630  -0.47985
 Alpha  occ. eigenvalues --   -0.47629  -0.46899  -0.46818  -0.46348  -0.45996
 Alpha  occ. eigenvalues --   -0.45271  -0.45161  -0.44715  -0.44117  -0.43815
 Alpha  occ. eigenvalues --   -0.43471  -0.43385  -0.43056  -0.42710  -0.42532
 Alpha  occ. eigenvalues --   -0.42289  -0.41747  -0.41677  -0.41413  -0.41259
 Alpha  occ. eigenvalues --   -0.41038  -0.40725  -0.40421  -0.40149  -0.40014
 Alpha  occ. eigenvalues --   -0.39632  -0.39450  -0.39155  -0.38754  -0.38591
 Alpha  occ. eigenvalues --   -0.38047  -0.37903  -0.37644  -0.37554  -0.36894
 Alpha  occ. eigenvalues --   -0.36775  -0.36012  -0.35876  -0.34944  -0.34856
 Alpha  occ. eigenvalues --   -0.34365  -0.34217  -0.33173  -0.32590  -0.32052
 Alpha  occ. eigenvalues --   -0.31286  -0.30553  -0.28739  -0.28034  -0.27396
 Alpha  occ. eigenvalues --   -0.26662  -0.26576  -0.26484  -0.25370  -0.25209
 Alpha  occ. eigenvalues --   -0.24764  -0.23723  -0.23065  -0.21316  -0.18902
 Alpha virt. eigenvalues --   -0.11204  -0.06784  -0.06439  -0.01611  -0.00896
 Alpha virt. eigenvalues --   -0.00078   0.00753   0.01592   0.01941   0.02458
 Alpha virt. eigenvalues --    0.03130   0.03528   0.04260   0.04822   0.05187

 Mulliken charges:
               1
     1  O   -0.193693
     2  O   -0.155676
     3  O   -0.257544
     4  O   -0.162237
     5  O   -0.237602
     6  O   -0.212228
     7  N   -0.210298
     8  N   -0.175537
     9  N   -0.118809
    10  N   -0.235954
    11  C    0.082015
    12  C    0.033792
    13  C   -0.004314
    14  C   -0.113650
    15  C   -0.073517
    16  C    0.129640
    17  C   -0.144568
    18  C    0.103200
    19  C   -0.095480
    20  C   -0.147646
    21  C    0.118321
    22  C    0.128025
    23  C   -0.093643
    24  C    0.068475
    25  C    0.117560
    26  C   -0.147580
    27  C    0.023431
    28  C    0.076527
    29  C    0.308703
    30  C    0.021889
    31  C   -0.074061
    32  C    0.004361
    33  C   -0.138608
    34  C    0.149742
    35  C    0.090505
    36  C   -0.076031
    37  C    0.113060
    38  C    0.027027
    39  C   -0.234468
    40  C    0.114653
    41  C    0.008610
    42  C    0.211272
    43  C    0.009874
    44  H    0.028127
    45  H    0.038500
    46  H    0.037771
    47  H    0.177954
    48  H    0.108804
    49  H   -0.005897
    50  H    0.024422
    51  H    0.033833
    52  H   -0.014987
    53  H    0.036644
    54  H    0.045140
    55  H    0.001669
    56  H    0.058861
    57  H    0.041167
    58  H    0.023931
    59  H   -0.025129
    60  H    0.157891
    61  H   -0.053432
    62  H   -0.047192
    63  H    0.006610
    64  H    0.086765
    65  H    0.032580
    66  H    0.040907
    67  H    0.041283
    68  H    0.071096
    69  H    0.015015
    70  H    0.034032
    71  H    0.052950
    72  H    0.186827
    73  H   -0.039172
    74  H   -0.029843
    75  H    0.030483
    76  H   -0.005163
    77  H    0.191812
    78  H    0.039136
    79  H   -0.060931
 Sum of Mulliken charges =  -0.00000

 Dipole moment (field-independent basis, Debye):
    X=              2.7874    Y=              1.7009    Z=              4.1445  Tot=              5.2764
 Quadrupole moment (field-independent basis, Debye-Ang):
   XX=           -221.4763   YY=           -244.6444   ZZ=           -263.3122
   XY=            -12.1265   XZ=             24.7396   YZ=              0.5150

 Normal termination of Gaussian 16 at Sun Sep 29 23:34:48 2019.
