 Gaussian 16, Revision A.03,
 Gaussian 16:  ES64L-G16RevA.03 25-Dec-2016

 --------------------------
 # td=(NStates=1) B3LYP/SVP
 --------------------------

 --
 TD
 --
 Symbolic Z-matrix:
 Charge =  0 Multiplicity = 1

                         Standard orientation:
 ---------------------------------------------------------------------
 Center     Atomic      Atomic             Coordinates (Angstroms)
 Number     Number       Type             X           Y           Z
 ---------------------------------------------------------------------
      1          8           0       -3.231998   -1.408452   -2.907710
      2          8           0        3.009013    3.401315    2.681578
      3          8           0        3.619136    1.810785    4.171113
      4          8           0        7.806858   -1.733347   -0.666077
      5          8           0        6.616361   -3.074492   -1.923322
      6          8           0       -2.641222    1.714278    1.462889
      7          7           0       -0.292989   -2.398673    1.129418
      8          7           0       -2.544852   -1.320629   -0.598225
      9          7           0        1.201715    0.180011   -0.664176
     10          7           0       -1.010994    1.368146   -0.266929
     11          6           0       -3.373744   -1.342071    0.620787
     12          6           0       -2.641122   -2.189207    1.766584
     13          6           0       -1.342213   -1.872711    1.913767
     14          6           0       -0.613040   -1.098631    2.935609
     15          6           0        0.726469   -0.944251    2.634862
     16          6           0        0.938493   -1.834285    1.461881
     17          6           0       -4.679435   -1.985933    0.161968
     18          6           0        1.864615   -0.171171    3.165580
     19          6           0       -4.664839   -2.133559   -1.125732
     20          6           0        2.119456   -1.889896    0.424740
     21          6           0        2.036876   -0.979519   -0.545009
     22          6           0       -3.491786   -1.575011   -1.726323
     23          6           0        3.058988   -0.804599   -1.679646
     24          6           0       -1.360143   -0.344667    4.021078
     25          6           0       -5.685382   -2.179864    1.340966
     26          6           0        2.650185    0.349007   -2.355613
     27          6           0        1.775722    1.277659    2.709753
     28          6           0        1.364636    0.983757   -1.747778
     29          6           0        4.247273   -1.670220   -1.890490
     30          6           0       -5.789546   -2.684359   -1.939067
     31          6           0        5.433338   -1.233857   -1.048798
     32          6           0        3.260506    0.854465   -3.533456
     33          6           0        0.560887    1.969277   -2.104997
     34          6           0        2.845599    2.221157    3.251123
     35          6           0       -0.592363    2.239453   -1.311767
     36          6           0       -6.834619   -3.470826   -1.541996
     37          6           0        6.621573   -2.080781   -1.273831
     38          6           0       -1.469810    3.541825   -1.382593
     39          6           0       -2.310265    3.366997   -0.325250
     40          6           0       -2.116215    2.075850    0.324332
     41          6           0       -1.248400    4.570131   -2.349324
     42          6           0       -3.446878    4.233330    0.129893
     43          6           0       -2.151491    5.542432   -2.652837
     44          1           0       -3.646555   -0.407866    0.949044
     45          1           0       -2.657042   -3.327318    1.291810
     46          1           0       -3.411807   -1.963766    2.749893
     47          1           0       -0.470640   -2.670897    0.236023
     48          1           0       -1.945675   -0.529569   -0.810931
     49          1           0        2.004484   -0.163269    4.217954
     50          1           0        2.861949   -0.586090    2.932956
     51          1           0        2.919688   -2.651966    0.172326
     52          1           0       -2.190302   -1.128341    4.286581
     53          1           0       -0.531082   -0.175112    4.625061
     54          1           0       -1.918303    0.613279    3.567645
     55          1           0       -5.329063   -1.627877    2.219550
     56          1           0       -5.867308   -3.376671    1.749799
     57          1           0       -6.758711   -2.089488    1.134322
     58          1           0        1.921850    1.305213    1.691595
     59          1           0        0.789348    1.787674    2.928862
     60          1           0        0.464634    0.188994    0.012814
     61          1           0        4.439524   -1.732037   -2.820113
     62          1           0        4.051354   -2.667188   -1.696747
     63          1           0       -5.742947   -2.042409   -3.003289
     64          1           0        5.260949   -1.250740    0.078316
     65          1           0        5.830953   -0.155756   -1.210688
     66          1           0        4.089240    0.328500   -3.874287
     67          1           0        3.293331    1.947025   -3.324194
     68          1           0        2.577490    0.875286   -4.488169
     69          1           0        1.100213    2.768117   -2.757043
     70          1           0       -6.767460   -3.944753   -0.488091
     71          1           0       -7.397987   -3.608738   -2.460514
     72          1           0        3.721171    3.839638    3.066204
     73          1           0       -0.086313    4.398508   -2.860549
     74          1           0       -4.423555    4.547500   -0.519509
     75          1           0       -3.700093    3.811495    1.121790
     76          1           0       -3.006234    5.242053   -0.009681
     77          1           0        8.529156   -2.363917   -0.760547
     78          1           0       -1.945466    6.120044   -3.481025
     79          1           0       -3.114091    5.768229   -2.186030
 ---------------------------------------------------------------------

 SCF Done:  E(RB3LYP) =  -1947.76024622     A.U. after   17 cycles

 Excitation energies and oscillator strengths:

 Excited State   1:      Singlet-A      0.8469 eV 1463.99 nm  f=0.0023  <S**2>=0.000
     155 ->156         0.70481
 This state for optimization and/or second-order correction.
 Total Energy, E(TD-HF/TD-DFT) =  -1947.72912340
 Copying the excited state density for this state as the 1-particle RhoCI density.

 The electronic state is 1-A.
 Alpha  occ. eigenvalues --  -19.19150 -19.17541 -19.13029 -19.12827 -19.11171
 Alpha  occ. eigenvalues --  -19.10137 -14.37639 -14.36109 -14.32360 -14.32271
 Alpha  occ. eigenvalues --  -10.32657 -10.31869 -10.29084 -10.27505 -10.27408
 Alpha  occ. eigenvalues --  -10.27090 -10.25191 -10.23941 -10.23352 -10.22851
 Alpha  occ. eigenvalues --  -10.22846 -10.22576 -10.22457 -10.22197 -10.21922
 Alpha  occ. eigenvalues --  -10.21780 -10.21651 -10.21475 -10.21450 -10.21331
 Alpha  occ. eigenvalues --  -10.21067 -10.20947 -10.20746 -10.20460 -10.20417
 Alpha  occ. eigenvalues --  -10.19737 -10.19548 -10.19426 -10.18407 -10.18351
 Alpha  occ. eigenvalues --  -10.17952 -10.17598 -10.17115  -1.10968  -1.10122
 Alpha  occ. eigenvalues --   -1.01255  -1.00909  -0.99642  -0.98548  -0.97731
 Alpha  occ. eigenvalues --   -0.95496  -0.91383  -0.91099  -0.84801  -0.83045
 Alpha  occ. eigenvalues --   -0.82000  -0.80846  -0.80635  -0.80098  -0.78845
 Alpha  occ. eigenvalues --   -0.77381  -0.76378  -0.76123  -0.74424  -0.73405
 Alpha  occ. eigenvalues --   -0.71328  -0.70943  -0.70236  -0.69918  -0.67478
 Alpha  occ. eigenvalues --   -0.66891  -0.66177  -0.63282  -0.61958  -0.61431
 Alpha  occ. eigenvalues --   -0.61163  -0.59866  -0.58218  -0.57961  -0.57442
 Alpha  occ. eigenvalues --   -0.56749  -0.56054  -0.55592  -0.52688  -0.52189
 Alpha  occ. eigenvalues --   -0.51966  -0.51183  -0.50552  -0.50446  -0.49260
 Alpha  occ. eigenvalues --   -0.48744  -0.48490  -0.48218  -0.48063  -0.48045
 Alpha  occ. eigenvalues --   -0.47825  -0.47584  -0.46512  -0.46310  -0.45881
 Alpha  occ. eigenvalues --   -0.45530  -0.45356  -0.44894  -0.44485  -0.43828
 Alpha  occ. eigenvalues --   -0.43611  -0.43158  -0.43058  -0.42668  -0.42466
 Alpha  occ. eigenvalues --   -0.42367  -0.42202  -0.41567  -0.41419  -0.40765
 Alpha  occ. eigenvalues --   -0.40432  -0.40311  -0.40273  -0.39484  -0.39130
 Alpha  occ. eigenvalues --   -0.38862  -0.38628  -0.38341  -0.37955  -0.37731
 Alpha  occ. eigenvalues --   -0.37374  -0.37086  -0.37016  -0.36746  -0.36316
 Alpha  occ. eigenvalues --   -0.36241  -0.36011  -0.35413  -0.35270  -0.34492
 Alpha  occ. eigenvalues --   -0.33485  -0.32877  -0.32432  -0.32035  -0.31349
 Alpha  occ. eigenvalues --   -0.31095  -0.29720  -0.29663  -0.29181  -0.28639
 Alpha  occ. eigenvalues --   -0.26635  -0.26440  -0.26083  -0.25979  -0.24636
 Alpha  occ. eigenvalues --   -0.24458  -0.23924  -0.23244  -0.23026  -0.18159
 Alpha virt. eigenvalues --   -0.12802  -0.07600  -0.04542  -0.03155  -0.00352
 Alpha virt. eigenvalues --   -0.00172   0.00221   0.00792   0.01290   0.02535
 Alpha virt. eigenvalues --    0.03169   0.03343   0.04125   0.04421   0.05006

 Mulliken charges:
               1
     1  O   -0.215446
     2  O   -0.113594
     3  O   -0.299087
     4  O   -0.217337
     5  O   -0.204639
     6  O   -0.282112
     7  N   -0.030551
     8  N   -0.274515
     9  N   -0.108406
    10  N   -0.351795
    11  C    0.096342
    12  C    0.032812
    13  C    0.011220
    14  C   -0.143040
    15  C   -0.079363
    16  C   -0.049094
    17  C   -0.114407
    18  C    0.143868
    19  C   -0.057716
    20  C   -0.072753
    21  C    0.092968
    22  C    0.148879
    23  C   -0.105285
    24  C    0.042237
    25  C    0.023277
    26  C   -0.129998
    27  C    0.025783
    28  C    0.165286
    29  C    0.294933
    30  C   -0.078997
    31  C   -0.039486
    32  C    0.088126
    33  C   -0.127550
    34  C    0.114088
    35  C    0.092423
    36  C   -0.022748
    37  C    0.117439
    38  C    0.075478
    39  C   -0.169728
    40  C    0.241150
    41  C   -0.063374
    42  C    0.016348
    43  C    0.005729
    44  H    0.009467
    45  H    0.012386
    46  H    0.028452
    47  H    0.079150
    48  H    0.134827
    49  H   -0.005707
    50  H   -0.008335
    51  H    0.015496
    52  H    0.020460
    53  H    0.002742
    54  H    0.075242
    55  H    0.038335
    56  H    0.041969
    57  H    0.031203
    58  H   -0.008966
    59  H    0.057209
    60  H    0.179214
    61  H   -0.069077
    62  H   -0.015513
    63  H    0.045820
    64  H    0.060708
    65  H    0.051360
    66  H    0.004504
    67  H    0.022247
    68  H    0.040281
    69  H    0.021573
    70  H    0.044107
    71  H    0.039162
    72  H    0.158532
    73  H    0.050038
    74  H    0.054826
    75  H    0.053277
    76  H    0.021958
    77  H    0.187389
    78  H    0.012753
    79  H    0.035543
 Sum of Mulliken charges =  -0.00000

 Dipole moment (field-independent basis, Debye):
    X=              2.4844    Y=              4.1194    Z=             -2.6044  Tot=              5.4703
 Quadrupole moment (field-independent basis, Debye-Ang):
   XX=           -230.9006   YY=           -235.1971   ZZ=           -273.5377
   XY=              1.3587   XZ=            -19.7250   YZ=            -18.1837

 Normal termination of Gaussian 16 at Sat Jul 27 23:09:50 2019.
