 Gaussian 16, Revision A.03,
 Gaussian 16:  ES64L-G16RevA.03 25-Dec-2016

 --------------------------
 # td=(NStates=1) B3LYP/SVP
 --------------------------

 --
 TD
 --
 Symbolic Z-matrix:
 Charge =  0 Multiplicity = 1

                         Standard orientation:
 ---------------------------------------------------------------------
 Center     Atomic      Atomic             Coordinates (Angstroms)
 Number     Number       Type             X           Y           Z
 ---------------------------------------------------------------------
      1          8           0        5.565914   -0.147134   -3.317729
      2          8           0       -3.241690   -2.871238    3.283815
      3          8           0       -3.388208   -0.634972    2.965180
      4          8           0       -1.126737    7.151185    1.584566
      5          8           0       -0.264602    6.972277   -0.608337
      6          8           0       -1.914055   -3.887636    0.139526
      7          7           0        2.343307    0.966847    0.571920
      8          7           0        4.334322   -0.582315   -1.340590
      9          7           0       -1.884973    0.674040   -0.239447
     10          7           0       -2.602410   -1.810301   -0.523433
     11          6           0        4.763974   -1.217585   -0.000421
     12          6           0        4.388815   -0.333001    1.155132
     13          6           0        2.933745   -0.075110    1.385201
     14          6           0        1.891354   -0.702927    2.062192
     15          6           0        0.711821   -0.094634    1.819747
     16          6           0        0.963361    0.981873    0.773404
     17          6           0        6.234555   -1.505095   -0.175518
     18          6           0       -0.528845   -0.307267    2.625850
     19          6           0        6.659022   -1.018958   -1.326871
     20          6           0        0.237686    2.040474    0.128464
     21          6           0       -1.147336    1.860546   -0.267559
     22          6           0        5.532915   -0.550390   -2.075438
     23          6           0       -2.026603    2.924270   -0.808643
     24          6           0        1.991257   -1.795864    3.113602
     25          6           0        7.061076   -2.106666    0.906905
     26          6           0       -3.178879    2.378982   -1.346420
     27          6           0       -1.232386   -1.638320    2.512646
     28          6           0       -3.169006    0.988760   -0.851068
     29          6           0       -1.528461    4.334173   -0.905599
     30          6           0        7.892457   -0.867801   -1.978938
     31          6           0       -1.445490    5.127314    0.408442
     32          6           0       -4.299995    3.130280   -2.008441
     33          6           0       -4.098386   -0.018636   -1.236052
     34          6           0       -2.703212   -1.673152    2.897272
     35          6           0       -3.808097   -1.394774   -0.962259
     36          6           0        9.100176   -1.223715   -1.398387
     37          6           0       -0.872225    6.586844    0.335362
     38          6           0       -4.603231   -2.613724   -1.421397
     39          6           0       -3.904968   -3.694879   -1.065149
     40          6           0       -2.742915   -3.128335   -0.378408
     41          6           0       -5.875688   -2.361747   -2.151632
     42          6           0       -4.400562   -5.091517   -1.274967
     43          6           0       -6.736593   -3.253580   -2.718012
     44          1           0        4.012829   -2.362453    0.031613
     45          1           0        4.949631    0.654970    1.352441
     46          1           0        4.602972   -1.024377    2.008586
     47          1           0        2.707080    1.492541   -0.119904
     48          1           0        3.428248   -0.614252   -1.749006
     49          1           0       -0.520222    0.136713    3.570965
     50          1           0       -1.125616    0.402430    2.060161
     51          1           0        0.768146    2.808240   -0.341646
     52          1           0        3.123153   -1.955266    3.186911
     53          1           0        1.806634   -1.422318    4.177940
     54          1           0        1.419579   -2.714142    2.783715
     55          1           0        6.431331   -2.768195    1.636402
     56          1           0        7.768164   -1.382526    1.661996
     57          1           0        7.692538   -2.775724    0.714489
     58          1           0       -1.278573   -1.970265    1.474646
     59          1           0       -0.519030   -2.344844    3.157353
     60          1           0       -1.689826   -0.358999   -0.328275
     61          1           0       -2.061765    4.885372   -1.632070
     62          1           0       -0.502143    4.174019   -1.262653
     63          1           0        7.623378   -0.639714   -3.058694
     64          1           0       -0.642901    4.758860    1.276346
     65          1           0       -2.429326    5.083985    0.985369
     66          1           0       -4.045466    4.331590   -1.905215
     67          1           0       -5.339525    2.757307   -1.657999
     68          1           0       -4.237700    2.859424   -3.117973
     69          1           0       -4.983738    0.439631   -2.057035
     70          1           0        9.141776   -1.257676   -0.413139
     71          1           0       10.064177   -1.123662   -1.926550
     72          1           0       -4.199095   -2.564760    3.624197
     73          1           0       -6.321391   -1.316592   -2.314596
     74          1           0       -5.407530   -5.288619   -0.699008
     75          1           0       -4.464386   -5.346090   -2.194908
     76          1           0       -3.750727   -5.717351   -0.822202
     77          1           0       -0.663774    7.944051    1.289747
     78          1           0       -7.688626   -2.905195   -3.088823
     79          1           0       -6.401000   -4.388884   -2.596733
 ---------------------------------------------------------------------

 SCF Done:  E(RB3LYP) =  -1947.77186411     A.U. after   20 cycles

 Excitation energies and oscillator strengths:

 Excited State   1:      Singlet-A      1.9618 eV  631.98 nm  f=0.4870  <S**2>=0.000
     155 ->156         0.71141
     155 <-156        -0.15100
 This state for optimization and/or second-order correction.
 Total Energy, E(TD-HF/TD-DFT) =  -1947.69976791
 Copying the excited state density for this state as the 1-particle RhoCI density.

 The electronic state is 1-A.
 Alpha  occ. eigenvalues --  -19.19989 -19.17353 -19.15640 -19.10794 -19.09755
 Alpha  occ. eigenvalues --  -19.09096 -14.38181 -14.36221 -14.36074 -14.29715
 Alpha  occ. eigenvalues --  -10.33838 -10.30767 -10.28693 -10.28121 -10.25715
 Alpha  occ. eigenvalues --  -10.25193 -10.24957 -10.24159 -10.24104 -10.24055
 Alpha  occ. eigenvalues --  -10.23032 -10.22948 -10.22844 -10.22606 -10.22283
 Alpha  occ. eigenvalues --  -10.21855 -10.21416 -10.21350 -10.21293 -10.20932
 Alpha  occ. eigenvalues --  -10.20919 -10.20526 -10.20361 -10.20255 -10.19929
 Alpha  occ. eigenvalues --  -10.19925 -10.19864 -10.19727 -10.19300 -10.19278
 Alpha  occ. eigenvalues --  -10.18799 -10.17632 -10.17290  -1.11515  -1.06354
 Alpha  occ. eigenvalues --   -1.04247  -1.00769  -0.99289  -0.97568  -0.96753
 Alpha  occ. eigenvalues --   -0.95684  -0.92827  -0.92112  -0.84213  -0.82876
 Alpha  occ. eigenvalues --   -0.82432  -0.81199  -0.80548  -0.79524  -0.77561
 Alpha  occ. eigenvalues --   -0.76800  -0.76177  -0.75707  -0.74504  -0.73408
 Alpha  occ. eigenvalues --   -0.71698  -0.70818  -0.70307  -0.69016  -0.68161
 Alpha  occ. eigenvalues --   -0.66861  -0.65987  -0.63829  -0.62013  -0.60572
 Alpha  occ. eigenvalues --   -0.59539  -0.58842  -0.58674  -0.57263  -0.56253
 Alpha  occ. eigenvalues --   -0.55251  -0.54690  -0.54457  -0.53703  -0.53071
 Alpha  occ. eigenvalues --   -0.51485  -0.51398  -0.51205  -0.50792  -0.50079
 Alpha  occ. eigenvalues --   -0.49886  -0.48779  -0.48336  -0.48133  -0.47609
 Alpha  occ. eigenvalues --   -0.46959  -0.46420  -0.46360  -0.46142  -0.45866
 Alpha  occ. eigenvalues --   -0.45376  -0.45101  -0.44684  -0.44256  -0.44065
 Alpha  occ. eigenvalues --   -0.43704  -0.43615  -0.43180  -0.42569  -0.42291
 Alpha  occ. eigenvalues --   -0.41815  -0.41642  -0.41461  -0.41271  -0.40787
 Alpha  occ. eigenvalues --   -0.40528  -0.40215  -0.40082  -0.39805  -0.39314
 Alpha  occ. eigenvalues --   -0.39183  -0.39032  -0.38921  -0.38513  -0.38253
 Alpha  occ. eigenvalues --   -0.38024  -0.37845  -0.37280  -0.36971  -0.36514
 Alpha  occ. eigenvalues --   -0.35878  -0.35792  -0.35289  -0.35262  -0.34848
 Alpha  occ. eigenvalues --   -0.34784  -0.33894  -0.33168  -0.32319  -0.31096
 Alpha  occ. eigenvalues --   -0.30575  -0.30001  -0.29692  -0.28743  -0.27951
 Alpha  occ. eigenvalues --   -0.26596  -0.26107  -0.25878  -0.25646  -0.25089
 Alpha  occ. eigenvalues --   -0.24591  -0.24147  -0.23609  -0.22780  -0.18491
 Alpha virt. eigenvalues --   -0.11264  -0.07892  -0.06510  -0.01250  -0.00758
 Alpha virt. eigenvalues --   -0.00734   0.00728   0.00964   0.01357   0.01928
 Alpha virt. eigenvalues --    0.03148   0.03620   0.04221   0.04588   0.04984

 Mulliken charges:
               1
     1  O   -0.317037
     2  O   -0.230457
     3  O   -0.275876
     4  O   -0.180689
     5  O   -0.183679
     6  O   -0.238353
     7  N   -0.086686
     8  N   -0.209580
     9  N   -0.154409
    10  N   -0.258214
    11  C   -0.000820
    12  C    0.207817
    13  C   -0.079509
    14  C   -0.115873
    15  C   -0.130672
    16  C    0.044319
    17  C   -0.113926
    18  C    0.175383
    19  C    0.004271
    20  C   -0.045473
    21  C    0.091640
    22  C    0.175490
    23  C   -0.100291
    24  C    0.070853
    25  C    0.088710
    26  C   -0.120347
    27  C    0.002806
    28  C    0.095923
    29  C    0.177106
    30  C   -0.034629
    31  C   -0.106288
    32  C    0.011236
    33  C   -0.146474
    34  C    0.156694
    35  C    0.092978
    36  C    0.035398
    37  C    0.148872
    38  C    0.077562
    39  C   -0.205676
    40  C    0.115020
    41  C   -0.070437
    42  C    0.216605
    43  C   -0.048441
    44  H    0.060207
    45  H    0.036164
    46  H   -0.005302
    47  H    0.077899
    48  H    0.131310
    49  H   -0.006949
    50  H   -0.014959
    51  H   -0.025538
    52  H   -0.009659
    53  H    0.040375
    54  H    0.075294
    55  H    0.017612
    56  H    0.057818
    57  H   -0.038347
    58  H    0.055530
    59  H    0.039479
    60  H    0.176254
    61  H   -0.007859
    62  H    0.011582
    63  H    0.043095
    64  H    0.067118
    65  H    0.049169
    66  H    0.053915
    67  H    0.057745
    68  H    0.043547
    69  H    0.050567
    70  H   -0.023380
    71  H    0.035325
    72  H    0.214525
    73  H    0.007074
    74  H    0.036843
    75  H   -0.018764
    76  H   -0.028835
    77  H    0.150699
    78  H    0.022177
    79  H    0.033420
 Sum of Mulliken charges =  -0.00000

 Dipole moment (field-independent basis, Debye):
    X=              1.0358    Y=              2.6150    Z=              2.8300  Tot=              3.9899
 Quadrupole moment (field-independent basis, Debye-Ang):
   XX=           -222.3812   YY=           -246.8455   ZZ=           -264.6931
   XY=            -11.8176   XZ=             39.0620   YZ=              1.0315

 Normal termination of Gaussian 16 at Thu Sep 26 00:11:12 2019.
