 Gaussian 16, Revision A.03,
 Gaussian 16:  ES64L-G16RevA.03 25-Dec-2016

 --------------------------
 # td=(NStates=1) B3LYP/SVP
 --------------------------

 --
 TD
 --
 Symbolic Z-matrix:
 Charge =  0 Multiplicity = 1

                         Standard orientation:
 ---------------------------------------------------------------------
 Center     Atomic      Atomic             Coordinates (Angstroms)
 Number     Number       Type             X           Y           Z
 ---------------------------------------------------------------------
      1          8           0        5.374729    0.118410   -3.207879
      2          8           0       -3.050544   -3.038386    2.897826
      3          8           0       -3.350776   -0.807267    2.863737
      4          8           0       -1.742582    7.158282    1.494522
      5          8           0       -0.536028    6.965544   -0.312968
      6          8           0       -1.608214   -3.836414    0.111385
      7          7           0        2.350691    1.009033    0.638644
      8          7           0        4.330718   -0.600350   -1.150669
      9          7           0       -1.797045    0.733313   -0.497193
     10          7           0       -2.479237   -1.799408   -0.593005
     11          6           0        4.810752   -1.185834    0.032360
     12          6           0        4.251937   -0.372478    1.308861
     13          6           0        2.823607   -0.063266    1.343422
     14          6           0        1.825656   -0.664110    1.974873
     15          6           0        0.584236   -0.001869    1.716506
     16          6           0        0.930358    0.973699    0.763815
     17          6           0        6.250183   -1.368871   -0.107671
     18          6           0       -0.646184   -0.316175    2.526359
     19          6           0        6.610564   -0.901063   -1.337911
     20          6           0        0.180365    2.025482    0.136998
     21          6           0       -1.137115    1.859144   -0.331041
     22          6           0        5.399149   -0.423538   -2.081186
     23          6           0       -1.935398    2.975795   -0.865652
     24          6           0        1.981298   -1.659277    3.102261
     25          6           0        7.106078   -1.887860    1.011965
     26          6           0       -3.073867    2.296746   -1.267525
     27          6           0       -1.142979   -1.730549    2.512884
     28          6           0       -3.012319    0.921872   -1.042073
     29          6           0       -1.512342    4.415596   -0.851585
     30          6           0        7.931334   -0.732573   -1.970308
     31          6           0       -1.874529    5.090375    0.393777
     32          6           0       -4.298501    2.899282   -1.920601
     33          6           0       -3.885764   -0.073887   -1.360366
     34          6           0       -2.677396   -1.807427    2.714058
     35          6           0       -3.630998   -1.467134   -1.054244
     36          6           0        9.149158   -0.813846   -1.476457
     37          6           0       -1.323562    6.417981    0.434147
     38          6           0       -4.459501   -2.686811   -1.420224
     39          6           0       -3.796951   -3.746644   -1.024072
     40          6           0       -2.534523   -3.245596   -0.376568
     41          6           0       -5.796264   -2.579352   -2.141232
     42          6           0       -4.050299   -5.213873   -1.057217
     43          6           0       -6.726970   -3.442476   -2.365427
     44          1           0        4.350922   -2.267796    0.089919
     45          1           0        4.772413    0.619278    1.137221
     46          1           0        4.671965   -0.772860    2.241665
     47          1           0        2.763004    1.578232   -0.099876
     48          1           0        3.399213   -0.263409   -1.685447
     49          1           0       -0.258066    0.036649    3.506961
     50          1           0       -1.473358    0.234417    2.280011
     51          1           0        0.730351    2.999621    0.159151
     52          1           0        3.151660   -1.733829    3.271471
     53          1           0        1.680145   -1.325805    4.121790
     54          1           0        1.568017   -2.658535    2.780093
     55          1           0        6.450610   -2.432960    1.682190
     56          1           0        7.624631   -1.154227    1.744445
     57          1           0        8.016210   -2.896468    0.607860
     58          1           0       -0.722729   -2.257797    1.611265
     59          1           0       -0.578438   -2.402079    3.316283
     60          1           0       -1.396011   -0.158855   -0.278412
     61          1           0       -1.955377    4.990137   -1.705636
     62          1           0       -0.388404    4.503099   -1.159337
     63          1           0        7.824678   -0.361422   -3.154299
     64          1           0       -1.518285    4.608860    1.269534
     65          1           0       -2.834257    5.180797    0.499450
     66          1           0       -4.182870    4.081193   -1.759321
     67          1           0       -5.331206    2.582709   -1.459946
     68          1           0       -4.460680    2.631447   -2.986026
     69          1           0       -4.910939    0.034887   -1.854858
     70          1           0        9.288781   -0.754206   -0.419257
     71          1           0       10.105496   -0.759631   -2.113683
     72          1           0       -3.941646   -2.884747    2.729291
     73          1           0       -5.907596   -1.553242   -2.497947
     74          1           0       -4.962567   -5.348401   -0.389450
     75          1           0       -4.243364   -5.508620   -1.992961
     76          1           0       -3.176715   -5.871786   -0.688855
     77          1           0       -1.442829    8.058154    1.247462
     78          1           0       -7.578739   -3.080607   -2.991448
     79          1           0       -6.577852   -4.520453   -2.142297
 ---------------------------------------------------------------------

 SCF Done:  E(RB3LYP) =  -1947.88344540     A.U. after   16 cycles

 Excitation energies and oscillator strengths:

 Excited State   1:      Singlet-A      2.0694 eV  599.13 nm  f=0.4211  <S**2>=0.000
     155 ->156         0.70305
     155 <-156        -0.11766
 This state for optimization and/or second-order correction.
 Total Energy, E(TD-HF/TD-DFT) =  -1947.80739595
 Copying the excited state density for this state as the 1-particle RhoCI density.

 The electronic state is 1-A.
 Alpha  occ. eigenvalues --  -19.18756 -19.17832 -19.13017 -19.12248 -19.11986
 Alpha  occ. eigenvalues --  -19.10450 -14.37747 -14.36355 -14.36177 -14.28919
 Alpha  occ. eigenvalues --  -10.32144 -10.31534 -10.28650 -10.27324 -10.25907
 Alpha  occ. eigenvalues --  -10.23761 -10.23758 -10.23683 -10.23132 -10.22530
 Alpha  occ. eigenvalues --  -10.22321 -10.22163 -10.22000 -10.21736 -10.21538
 Alpha  occ. eigenvalues --  -10.21173 -10.21130 -10.20741 -10.20532 -10.20465
 Alpha  occ. eigenvalues --  -10.20405 -10.20281 -10.20261 -10.20056 -10.19890
 Alpha  occ. eigenvalues --  -10.19877 -10.19451 -10.19386 -10.19214 -10.19102
 Alpha  occ. eigenvalues --  -10.19057 -10.17957 -10.17797  -1.12954  -1.10446
 Alpha  occ. eigenvalues --   -1.03366  -1.01144  -1.00898  -1.00806  -0.99956
 Alpha  occ. eigenvalues --   -0.98032  -0.94328  -0.93066  -0.84541  -0.82016
 Alpha  occ. eigenvalues --   -0.81743  -0.81581  -0.81321  -0.80079  -0.79101
 Alpha  occ. eigenvalues --   -0.77330  -0.76802  -0.75982  -0.74515  -0.72051
 Alpha  occ. eigenvalues --   -0.70944  -0.70704  -0.70384  -0.68889  -0.68714
 Alpha  occ. eigenvalues --   -0.67530  -0.66762  -0.63864  -0.61098  -0.60017
 Alpha  occ. eigenvalues --   -0.59609  -0.59200  -0.58022  -0.57296  -0.57156
 Alpha  occ. eigenvalues --   -0.56738  -0.56227  -0.55723  -0.54387  -0.53271
 Alpha  occ. eigenvalues --   -0.52442  -0.52046  -0.51541  -0.51218  -0.50406
 Alpha  occ. eigenvalues --   -0.50108  -0.49883  -0.48884  -0.48581  -0.47570
 Alpha  occ. eigenvalues --   -0.47390  -0.47080  -0.46476  -0.45978  -0.45739
 Alpha  occ. eigenvalues --   -0.45568  -0.45024  -0.44892  -0.44479  -0.44099
 Alpha  occ. eigenvalues --   -0.43605  -0.43534  -0.43303  -0.42769  -0.42436
 Alpha  occ. eigenvalues --   -0.42321  -0.42182  -0.42055  -0.41614  -0.41503
 Alpha  occ. eigenvalues --   -0.41127  -0.40839  -0.40451  -0.40004  -0.39811
 Alpha  occ. eigenvalues --   -0.39535  -0.39253  -0.39051  -0.38888  -0.38508
 Alpha  occ. eigenvalues --   -0.38257  -0.37619  -0.37301  -0.37068  -0.36450
 Alpha  occ. eigenvalues --   -0.36171  -0.36029  -0.35563  -0.34917  -0.34780
 Alpha  occ. eigenvalues --   -0.33720  -0.33378  -0.32469  -0.32401  -0.32080
 Alpha  occ. eigenvalues --   -0.31709  -0.30928  -0.29401  -0.28786  -0.28225
 Alpha  occ. eigenvalues --   -0.27933  -0.26103  -0.26059  -0.25771  -0.25225
 Alpha  occ. eigenvalues --   -0.24737  -0.24506  -0.23996  -0.23333  -0.18581
 Alpha virt. eigenvalues --   -0.10557  -0.06417  -0.06105  -0.00475   0.00002
 Alpha virt. eigenvalues --    0.00727   0.00991   0.01223   0.01899   0.03046
 Alpha virt. eigenvalues --    0.03458   0.04166   0.05048   0.05128   0.05545

 Mulliken charges:
               1
     1  O   -0.256490
     2  O   -0.083709
     3  O   -0.236124
     4  O   -0.197062
     5  O   -0.238670
     6  O   -0.164395
     7  N   -0.105938
     8  N   -0.278015
     9  N    0.039370
    10  N   -0.280537
    11  C    0.114213
    12  C    0.152903
    13  C   -0.014821
    14  C   -0.161432
    15  C   -0.104180
    16  C    0.003410
    17  C   -0.126577
    18  C    0.209288
    19  C   -0.038295
    20  C   -0.130067
    21  C    0.036024
    22  C    0.161522
    23  C   -0.067607
    24  C    0.051120
    25  C   -0.023019
    26  C   -0.130798
    27  C   -0.102272
    28  C    0.199746
    29  C    0.026845
    30  C   -0.039711
    31  C    0.207021
    32  C    0.026101
    33  C   -0.163197
    34  C    0.146039
    35  C    0.020804
    36  C   -0.049282
    37  C    0.079077
    38  C    0.039364
    39  C   -0.247774
    40  C    0.139881
    41  C    0.004995
    42  C    0.125882
    43  C   -0.020002
    44  H    0.037678
    45  H   -0.009615
    46  H    0.001670
    47  H    0.118340
    48  H    0.184864
    49  H    0.011111
    50  H   -0.023762
    51  H    0.013377
    52  H   -0.007784
    53  H    0.032253
    54  H    0.049560
    55  H    0.015341
    56  H    0.065259
    57  H    0.064968
    58  H    0.076069
    59  H    0.034866
    60  H    0.130293
    61  H    0.015337
    62  H    0.043717
    63  H    0.052787
    64  H    0.028537
    65  H   -0.028001
    66  H    0.025577
    67  H    0.034850
    68  H    0.032779
    69  H   -0.007882
    70  H    0.009303
    71  H    0.043815
    72  H    0.134529
    73  H   -0.016571
    74  H    0.038156
    75  H   -0.001374
    76  H    0.042077
    77  H    0.181600
    78  H    0.032588
    79  H    0.020053
 Sum of Mulliken charges =  -0.00000

 Dipole moment (field-independent basis, Debye):
    X=             -1.5091    Y=              0.4374    Z=              2.5466  Tot=              2.9923
 Quadrupole moment (field-independent basis, Debye-Ang):
   XX=           -227.5586   YY=           -245.9108   ZZ=           -264.6039
   XY=             -4.2027   XZ=             36.6708   YZ=              3.2915

 Normal termination of Gaussian 16 at Wed Oct  2 19:32:33 2019.
