 Gaussian 16, Revision A.03,
 Gaussian 16:  ES64L-G16RevA.03 25-Dec-2016

 --------------------------
 # td=(NStates=1) B3LYP/SVP
 --------------------------

 --
 TD
 --
 Symbolic Z-matrix:
 Charge =  0 Multiplicity = 1

                         Standard orientation:
 ---------------------------------------------------------------------
 Center     Atomic      Atomic             Coordinates (Angstroms)
 Number     Number       Type             X           Y           Z
 ---------------------------------------------------------------------
      1          8           0       -3.307709   -1.524783   -2.890283
      2          8           0        3.253058    3.132407    3.220536
      3          8           0        3.874016    1.332241    4.360607
      4          8           0        7.739832   -1.520827   -0.767063
      5          8           0        6.604463   -3.183465   -1.903826
      6          8           0       -2.579988    1.758878    1.328035
      7          7           0       -0.255610   -2.227265    0.957492
      8          7           0       -2.712100   -1.253728   -0.642222
      9          7           0        1.064438   -0.027361   -0.861318
     10          7           0       -0.937425    1.426800   -0.335623
     11          6           0       -3.387811   -1.301526    0.707126
     12          6           0       -2.650208   -2.201770    1.760976
     13          6           0       -1.228107   -1.812493    1.833430
     14          6           0       -0.548778   -1.025813    2.700344
     15          6           0        0.770133   -0.930608    2.523668
     16          6           0        0.925571   -1.690475    1.263629
     17          6           0       -4.716146   -1.919578    0.385190
     18          6           0        1.886986   -0.226480    3.126159
     19          6           0       -4.857171   -2.084821   -0.951241
     20          6           0        2.060031   -1.786918    0.339539
     21          6           0        2.030770   -0.939906   -0.701893
     22          6           0       -3.566896   -1.700743   -1.726327
     23          6           0        3.042200   -0.658867   -1.774973
     24          6           0       -1.400791   -0.425385    3.871353
     25          6           0       -5.721064   -2.279812    1.466956
     26          6           0        2.568987    0.425682   -2.530539
     27          6           0        1.864004    1.180329    2.859509
     28          6           0        1.256655    0.831337   -2.003165
     29          6           0        4.293973   -1.507478   -2.027258
     30          6           0       -5.862311   -2.527457   -1.821395
     31          6           0        5.497772   -1.176556   -1.091947
     32          6           0        3.213150    0.943391   -3.797591
     33          6           0        0.400940    1.954309   -2.216371
     34          6           0        3.125311    1.833529    3.553641
     35          6           0       -0.620822    2.232198   -1.294491
     36          6           0       -6.947436   -3.269793   -1.489135
     37          6           0        6.606466   -2.099924   -1.324470
     38          6           0       -1.444246    3.536317   -1.366558
     39          6           0       -2.269266    3.446925   -0.243129
     40          6           0       -2.017343    2.158421    0.366022
     41          6           0       -1.268655    4.553656   -2.269602
     42          6           0       -3.363680    4.342186    0.289516
     43          6           0       -2.112531    5.610700   -2.441955
     44          1           0       -3.200298   -0.250218    1.254461
     45          1           0       -2.714589   -3.300343    1.361384
     46          1           0       -3.020448   -2.078599    2.882439
     47          1           0       -0.646901   -2.572757    0.031832
     48          1           0       -2.121583   -0.493325   -0.853050
     49          1           0        1.777029   -0.481586    4.089429
     50          1           0        2.774624   -0.655620    3.072330
     51          1           0        2.780160   -2.706737    0.618958
     52          1           0       -2.147218   -1.073607    4.366485
     53          1           0       -0.893713    0.011552    4.686954
     54          1           0       -2.017618    0.421972    3.348270
     55          1           0       -5.339787   -1.617401    2.314046
     56          1           0       -5.890600   -3.415476    1.624396
     57          1           0       -6.704523   -2.004949    1.213625
     58          1           0        2.067733    1.573511    1.757358
     59          1           0        0.964081    1.642220    3.200915
     60          1           0        0.314302    0.317437   -0.236772
     61          1           0        4.459815   -1.546248   -3.177962
     62          1           0        4.129987   -2.500981   -1.694693
     63          1           0       -5.580483   -2.487306   -2.985234
     64          1           0        5.159962   -1.365219   -0.010287
     65          1           0        5.750593   -0.089173   -1.155551
     66          1           0        4.511512    0.611325   -3.789039
     67          1           0        3.040217    2.179524   -3.892139
     68          1           0        2.600098    0.553718   -4.988023
     69          1           0        0.472177    2.532423   -3.105997
     70          1           0       -7.163326   -3.337436   -0.348536
     71          1           0       -7.753683   -3.646146   -2.194088
     72          1           0        3.879719    3.533932    3.792474
     73          1           0       -0.430044    4.643193   -2.984434
     74          1           0       -3.993874    4.234824   -0.536246
     75          1           0       -3.883653    3.880954    1.318259
     76          1           0       -2.946423    5.265014    0.439722
     77          1           0        8.467959   -2.349207   -0.757567
     78          1           0       -1.798989    6.499055   -3.134987
     79          1           0       -3.044835    5.791484   -1.991203
 ---------------------------------------------------------------------

 SCF Done:  E(RB3LYP) =  -1947.80243937     A.U. after   18 cycles

 Excitation energies and oscillator strengths:

 Excited State   1:      Singlet-A      1.0331 eV 1200.11 nm  f=0.0043  <S**2>=0.000
     155 ->156         0.70247
 This state for optimization and/or second-order correction.
 Total Energy, E(TD-HF/TD-DFT) =  -1947.76447353
 Copying the excited state density for this state as the 1-particle RhoCI density.

 The electronic state is 1-A.
 Alpha  occ. eigenvalues --  -19.19335 -19.17476 -19.14300 -19.13294 -19.12412
 Alpha  occ. eigenvalues --  -19.10571 -14.36203 -14.35923 -14.32568 -14.31203
 Alpha  occ. eigenvalues --  -10.33196 -10.31553 -10.28521 -10.27904 -10.26735
 Alpha  occ. eigenvalues --  -10.26230 -10.24715 -10.24669 -10.23202 -10.22929
 Alpha  occ. eigenvalues --  -10.22796 -10.22633 -10.22075 -10.22042 -10.21841
 Alpha  occ. eigenvalues --  -10.21625 -10.21504 -10.21277 -10.20888 -10.20584
 Alpha  occ. eigenvalues --  -10.20347 -10.20316 -10.20314 -10.20190 -10.20035
 Alpha  occ. eigenvalues --  -10.19474 -10.19299 -10.18849 -10.18036 -10.17301
 Alpha  occ. eigenvalues --  -10.16360 -10.15958 -10.15790  -1.09859  -1.08174
 Alpha  occ. eigenvalues --   -1.06007  -1.02268  -1.00253  -1.00011  -0.98437
 Alpha  occ. eigenvalues --   -0.96977  -0.94236  -0.90490  -0.83334  -0.82430
 Alpha  occ. eigenvalues --   -0.82239  -0.81592  -0.80738  -0.78623  -0.78364
 Alpha  occ. eigenvalues --   -0.77245  -0.76279  -0.75623  -0.74033  -0.71488
 Alpha  occ. eigenvalues --   -0.70907  -0.69770  -0.69597  -0.67605  -0.67241
 Alpha  occ. eigenvalues --   -0.66692  -0.65628  -0.63380  -0.61428  -0.60375
 Alpha  occ. eigenvalues --   -0.59192  -0.58569  -0.58212  -0.56985  -0.56521
 Alpha  occ. eigenvalues --   -0.56026  -0.55367  -0.54791  -0.53175  -0.52600
 Alpha  occ. eigenvalues --   -0.51598  -0.51146  -0.50749  -0.49978  -0.49607
 Alpha  occ. eigenvalues --   -0.49189  -0.48573  -0.48317  -0.48070  -0.47764
 Alpha  occ. eigenvalues --   -0.47159  -0.46947  -0.46769  -0.46413  -0.46044
 Alpha  occ. eigenvalues --   -0.44957  -0.44438  -0.44310  -0.44009  -0.43601
 Alpha  occ. eigenvalues --   -0.43117  -0.43074  -0.42714  -0.42336  -0.42081
 Alpha  occ. eigenvalues --   -0.41882  -0.41803  -0.41512  -0.41386  -0.40612
 Alpha  occ. eigenvalues --   -0.40160  -0.40055  -0.39695  -0.39644  -0.39328
 Alpha  occ. eigenvalues --   -0.38949  -0.38569  -0.38088  -0.37938  -0.37709
 Alpha  occ. eigenvalues --   -0.37667  -0.37383  -0.37231  -0.36929  -0.36731
 Alpha  occ. eigenvalues --   -0.36407  -0.36270  -0.35399  -0.35141  -0.34225
 Alpha  occ. eigenvalues --   -0.34109  -0.33123  -0.32983  -0.32801  -0.32324
 Alpha  occ. eigenvalues --   -0.31345  -0.31240  -0.30615  -0.29666  -0.29002
 Alpha  occ. eigenvalues --   -0.27624  -0.26575  -0.26015  -0.25516  -0.24487
 Alpha  occ. eigenvalues --   -0.23901  -0.23409  -0.22525  -0.21830  -0.18192
 Alpha virt. eigenvalues --   -0.11996  -0.08025  -0.05181  -0.01905  -0.01821
 Alpha virt. eigenvalues --    0.00726   0.00758   0.01497   0.01758   0.02242
 Alpha virt. eigenvalues --    0.02481   0.04232   0.04665   0.05020   0.05636

 Mulliken charges:
               1
     1  O   -0.203283
     2  O   -0.161608
     3  O   -0.228655
     4  O   -0.272337
     5  O   -0.231518
     6  O   -0.158139
     7  N   -0.024902
     8  N   -0.259238
     9  N   -0.119866
    10  N   -0.316348
    11  C   -0.007567
    12  C    0.154754
    13  C   -0.141674
    14  C   -0.105888
    15  C   -0.108544
    16  C   -0.118304
    17  C   -0.120244
    18  C    0.330571
    19  C   -0.055369
    20  C   -0.179659
    21  C    0.193133
    22  C    0.182278
    23  C   -0.081334
    24  C    0.033265
    25  C    0.083842
    26  C   -0.065774
    27  C   -0.014391
    28  C    0.144835
    29  C    0.092613
    30  C   -0.040755
    31  C   -0.030160
    32  C   -0.130274
    33  C   -0.089324
    34  C    0.109943
    35  C    0.087331
    36  C   -0.078167
    37  C    0.175460
    38  C    0.120049
    39  C   -0.218765
    40  C    0.174157
    41  C   -0.073399
    42  C    0.109361
    43  C   -0.057171
    44  H    0.094157
    45  H   -0.008385
    46  H    0.027332
    47  H    0.134993
    48  H    0.118163
    49  H   -0.049192
    50  H   -0.077988
    51  H    0.059804
    52  H    0.006900
    53  H   -0.019822
    54  H    0.039230
    55  H    0.035348
    56  H    0.052856
    57  H    0.016957
    58  H    0.047185
    59  H    0.033385
    60  H    0.187463
    61  H    0.052286
    62  H    0.001439
    63  H    0.040164
    64  H    0.067562
    65  H    0.050553
    66  H    0.069565
    67  H    0.057731
    68  H    0.071337
    69  H   -0.027182
    70  H    0.010373
    71  H    0.039811
    72  H    0.159079
    73  H    0.005048
    74  H    0.039622
    75  H    0.064613
    76  H    0.018277
    77  H    0.232165
    78  H    0.042277
    79  H    0.007959
 Sum of Mulliken charges =  -0.00000

 Dipole moment (field-independent basis, Debye):
    X=              1.4903    Y=              3.8684    Z=             -0.1924  Tot=              4.1500
 Quadrupole moment (field-independent basis, Debye-Ang):
   XX=           -236.8650   YY=           -236.0039   ZZ=           -264.8716
   XY=              0.3901   XZ=            -14.8841   YZ=            -13.9806

 Normal termination of Gaussian 16 at Wed Jul 24 08:03:14 2019.
