 Gaussian 16, Revision A.03,
 Gaussian 16:  ES64L-G16RevA.03 25-Dec-2016

 --------------------------
 # td=(NStates=1) B3LYP/SVP
 --------------------------

 --
 TD
 --
 Symbolic Z-matrix:
 Charge =  0 Multiplicity = 1

                         Standard orientation:
 ---------------------------------------------------------------------
 Center     Atomic      Atomic             Coordinates (Angstroms)
 Number     Number       Type             X           Y           Z
 ---------------------------------------------------------------------
      1          8           0       -3.344660   -1.602177   -2.840473
      2          8           0        3.129239    3.354325    2.795694
      3          8           0        3.784404    1.646362    4.174884
      4          8           0        7.741027   -2.014320   -0.766118
      5          8           0        6.442299   -3.498773   -1.742717
      6          8           0       -2.576129    1.774970    1.266019
      7          7           0       -0.345300   -2.319812    1.070282
      8          7           0       -2.762494   -1.206261   -0.631396
      9          7           0        1.211067    0.138702   -0.729932
     10          7           0       -0.841220    1.578570   -0.184814
     11          6           0       -3.408364   -1.248452    0.656267
     12          6           0       -2.658300   -2.147570    1.712118
     13          6           0       -1.300364   -1.843936    1.971284
     14          6           0       -0.642799   -1.005167    2.864734
     15          6           0        0.689791   -0.893541    2.474455
     16          6           0        0.936796   -1.745385    1.374367
     17          6           0       -4.743083   -1.834338    0.296266
     18          6           0        1.775335   -0.066627    3.148180
     19          6           0       -4.856668   -2.210211   -1.015979
     20          6           0        2.019815   -1.828537    0.402525
     21          6           0        2.162520   -0.919499   -0.489757
     22          6           0       -3.561659   -1.642794   -1.648183
     23          6           0        3.034707   -0.694676   -1.618545
     24          6           0       -1.343499   -0.393484    3.970170
     25          6           0       -5.831526   -2.210320    1.358519
     26          6           0        2.654726    0.375758   -2.360623
     27          6           0        1.782294    1.368260    2.803634
     28          6           0        1.456780    0.897898   -1.776182
     29          6           0        4.217755   -1.685588   -1.945738
     30          6           0       -5.861232   -2.814291   -1.813545
     31          6           0        5.498492   -1.287543   -1.173610
     32          6           0        3.257254    0.893520   -3.585611
     33          6           0        0.642284    2.063238   -2.036416
     34          6           0        2.997243    2.097976    3.343641
     35          6           0       -0.428194    2.329468   -1.227879
     36          6           0       -6.953610   -3.501404   -1.436527
     37          6           0        6.500829   -2.304215   -1.311217
     38          6           0       -1.318809    3.526610   -1.375723
     39          6           0       -2.191189    3.455000   -0.434267
     40          6           0       -1.986462    2.194657    0.359117
     41          6           0       -1.100207    4.549489   -2.372976
     42          6           0       -3.418455    4.488824   -0.166388
     43          6           0       -1.920348    5.562615   -2.705092
     44          1           0       -3.441875   -0.225801    1.086282
     45          1           0       -2.789562   -3.224596    1.196552
     46          1           0       -3.085800   -2.028482    2.772669
     47          1           0       -0.611148   -2.743379    0.380443
     48          1           0       -2.105472   -0.491098   -0.769423
     49          1           0        1.693845   -0.192643    4.351181
     50          1           0        2.878552   -0.444936    3.030428
     51          1           0        2.928005   -2.504254    0.730033
     52          1           0       -2.191128   -1.110367    4.470533
     53          1           0       -0.793620    0.331459    4.707200
     54          1           0       -2.076312    0.464594    3.490514
     55          1           0       -5.629942   -1.608171    2.387297
     56          1           0       -5.819993   -3.145278    1.843640
     57          1           0       -6.778988   -1.830681    0.878324
     58          1           0        1.700839    1.389647    1.571519
     59          1           0        0.762424    1.736711    3.315233
     60          1           0        0.413064    0.441735   -0.200836
     61          1           0        4.501123   -1.704055   -2.890343
     62          1           0        3.850925   -2.662644   -1.644662
     63          1           0       -5.545609   -2.650330   -2.927466
     64          1           0        5.179052   -0.992601   -0.190401
     65          1           0        6.124581   -0.392745   -1.534552
     66          1           0        4.036958    0.447185   -3.874733
     67          1           0        3.454987    2.079053   -3.481488
     68          1           0        2.472286    0.678717   -4.265743
     69          1           0        0.842467    2.762331   -2.818570
     70          1           0       -7.314908   -3.712231   -0.357286
     71          1           0       -7.473132   -3.955336   -2.425541
     72          1           0        3.952369    3.935005    3.293699
     73          1           0       -0.084300    4.236021   -2.801106
     74          1           0       -4.154501    4.365192   -0.985397
     75          1           0       -4.147664    4.259143    0.711815
     76          1           0       -3.056861    5.515724   -0.149626
     77          1           0        8.138907   -2.870288   -0.619140
     78          1           0       -1.735003    6.333843   -3.354156
     79          1           0       -2.949492    5.737650   -2.140294
 ---------------------------------------------------------------------

 SCF Done:  E(RB3LYP) =  -1947.80124171     A.U. after   16 cycles

 Excitation energies and oscillator strengths:

 Excited State   1:      Singlet-A      1.3790 eV  899.06 nm  f=0.0001  <S**2>=0.000
     155 ->156         0.70373
 This state for optimization and/or second-order correction.
 Total Energy, E(TD-HF/TD-DFT) =  -1947.75056259
 Copying the excited state density for this state as the 1-particle RhoCI density.

 The electronic state is 1-A.
 Alpha  occ. eigenvalues --  -19.18689 -19.17780 -19.13355 -19.12839 -19.12358
 Alpha  occ. eigenvalues --  -19.08871 -14.36887 -14.35312 -14.33599 -14.30025
 Alpha  occ. eigenvalues --  -10.33480 -10.32354 -10.27851 -10.27151 -10.26860
 Alpha  occ. eigenvalues --  -10.25692 -10.24308 -10.23340 -10.23278 -10.22833
 Alpha  occ. eigenvalues --  -10.22724 -10.22396 -10.21911 -10.21841 -10.21687
 Alpha  occ. eigenvalues --  -10.21606 -10.20903 -10.20768 -10.20767 -10.20743
 Alpha  occ. eigenvalues --  -10.20736 -10.20587 -10.20311 -10.20287 -10.20214
 Alpha  occ. eigenvalues --  -10.20172 -10.20130 -10.20115 -10.19913 -10.19350
 Alpha  occ. eigenvalues --  -10.18555 -10.18351 -10.17263  -1.09123  -1.06911
 Alpha  occ. eigenvalues --   -1.06425  -1.01539  -1.01009  -0.98647  -0.98055
 Alpha  occ. eigenvalues --   -0.96818  -0.93779  -0.93324  -0.85093  -0.84133
 Alpha  occ. eigenvalues --   -0.81930  -0.81513  -0.81228  -0.80611  -0.79354
 Alpha  occ. eigenvalues --   -0.77868  -0.76881  -0.75241  -0.74594  -0.74131
 Alpha  occ. eigenvalues --   -0.71160  -0.70903  -0.70060  -0.69371  -0.67942
 Alpha  occ. eigenvalues --   -0.67090  -0.65895  -0.63950  -0.61879  -0.60479
 Alpha  occ. eigenvalues --   -0.60390  -0.59680  -0.58860  -0.58378  -0.57699
 Alpha  occ. eigenvalues --   -0.56383  -0.55759  -0.54807  -0.53545  -0.53228
 Alpha  occ. eigenvalues --   -0.52722  -0.52066  -0.51481  -0.50547  -0.49924
 Alpha  occ. eigenvalues --   -0.49328  -0.48968  -0.48643  -0.48378  -0.47914
 Alpha  occ. eigenvalues --   -0.47322  -0.47157  -0.46794  -0.46595  -0.46303
 Alpha  occ. eigenvalues --   -0.46179  -0.45332  -0.45052  -0.44885  -0.44545
 Alpha  occ. eigenvalues --   -0.43895  -0.43726  -0.43568  -0.43391  -0.43026
 Alpha  occ. eigenvalues --   -0.42500  -0.41936  -0.41838  -0.41552  -0.41199
 Alpha  occ. eigenvalues --   -0.40729  -0.40342  -0.40012  -0.39806  -0.39642
 Alpha  occ. eigenvalues --   -0.39417  -0.38759  -0.38689  -0.38251  -0.37820
 Alpha  occ. eigenvalues --   -0.37506  -0.37206  -0.37047  -0.36710  -0.36379
 Alpha  occ. eigenvalues --   -0.36177  -0.36146  -0.35645  -0.35066  -0.34481
 Alpha  occ. eigenvalues --   -0.33824  -0.33013  -0.32772  -0.31973  -0.31923
 Alpha  occ. eigenvalues --   -0.31169  -0.30955  -0.30295  -0.29207  -0.28434
 Alpha  occ. eigenvalues --   -0.28135  -0.27413  -0.25817  -0.25522  -0.24937
 Alpha  occ. eigenvalues --   -0.24145  -0.23617  -0.22838  -0.22775  -0.19698
 Alpha virt. eigenvalues --   -0.12027  -0.06913  -0.04630  -0.03475  -0.01200
 Alpha virt. eigenvalues --   -0.01007   0.00138   0.00885   0.02480   0.02919
 Alpha virt. eigenvalues --    0.03550   0.03995   0.04665   0.05166   0.05545

 Mulliken charges:
               1
     1  O   -0.227323
     2  O   -0.276781
     3  O   -0.238755
     4  O   -0.202863
     5  O   -0.283383
     6  O   -0.129693
     7  N    0.001107
     8  N   -0.159446
     9  N   -0.071568
    10  N   -0.336028
    11  C    0.104991
    12  C    0.129330
    13  C   -0.093790
    14  C   -0.014628
    15  C   -0.056706
    16  C    0.002916
    17  C   -0.185320
    18  C   -0.019811
    19  C   -0.048446
    20  C   -0.172373
    21  C    0.247562
    22  C    0.125230
    23  C   -0.126361
    24  C   -0.061426
    25  C    0.032535
    26  C   -0.144024
    27  C   -0.066799
    28  C    0.073892
    29  C    0.198732
    30  C   -0.032522
    31  C   -0.005981
    32  C    0.216844
    33  C   -0.094516
    34  C    0.184522
    35  C    0.099534
    36  C   -0.081856
    37  C    0.159251
    38  C    0.053063
    39  C   -0.232715
    40  C    0.144767
    41  C    0.021998
    42  C    0.040227
    43  C   -0.023719
    44  H    0.047251
    45  H    0.004919
    46  H    0.001952
    47  H   -0.000595
    48  H    0.113976
    49  H    0.029050
    50  H    0.010762
    51  H    0.052867
    52  H    0.038887
    53  H    0.027056
    54  H    0.046564
    55  H    0.008049
    56  H    0.028656
    57  H    0.056512
    58  H    0.063684
    59  H    0.072678
    60  H    0.152245
    61  H   -0.034979
    62  H    0.031989
    63  H    0.036291
    64  H    0.052887
    65  H    0.056969
    66  H   -0.061546
    67  H    0.050776
    68  H    0.028941
    69  H   -0.036018
    70  H    0.050098
    71  H    0.046847
    72  H    0.244905
    73  H   -0.004762
    74  H    0.037356
    75  H    0.035369
    76  H    0.040167
    77  H    0.178150
    78  H    0.001812
    79  H    0.040566
 Sum of Mulliken charges =  -0.00000

 Dipole moment (field-independent basis, Debye):
    X=              2.5707    Y=              3.7548    Z=             -0.5758  Tot=              4.5868
 Quadrupole moment (field-independent basis, Debye-Ang):
   XX=           -245.4917   YY=           -240.9810   ZZ=           -265.4876
   XY=              7.1659   XZ=            -19.8116   YZ=            -14.7180

 Normal termination of Gaussian 16 at Mon Jul 29 12:32:22 2019.
