 Gaussian 16, Revision A.03,
 Gaussian 16:  ES64L-G16RevA.03 25-Dec-2016

 --------------------------
 # td=(NStates=1) B3LYP/SVP
 --------------------------

 --
 TD
 --
 Symbolic Z-matrix:
 Charge =  0 Multiplicity = 1

                         Standard orientation:
 ---------------------------------------------------------------------
 Center     Atomic      Atomic             Coordinates (Angstroms)
 Number     Number       Type             X           Y           Z
 ---------------------------------------------------------------------
      1          8           0       -3.029712   -1.139592   -2.795320
      2          8           0        2.952297    3.122465    3.247563
      3          8           0        3.662435    1.356967    4.333197
      4          8           0        7.623489   -1.661659   -0.484712
      5          8           0        6.813288   -2.758075   -2.266241
      6          8           0       -2.663618    1.586085    1.442620
      7          7           0       -0.342911   -2.451852    0.853191
      8          7           0       -2.689372   -1.124899   -0.521336
      9          7           0        1.165094    0.104734   -0.678530
     10          7           0       -1.102893    1.471543   -0.172924
     11          6           0       -3.421227   -1.340748    0.647889
     12          6           0       -2.702703   -2.394632    1.551119
     13          6           0       -1.353494   -2.122620    1.710560
     14          6           0       -0.699428   -1.304347    2.785603
     15          6           0        0.763680   -1.290684    2.555518
     16          6           0        0.870683   -1.979287    1.278138
     17          6           0       -4.749221   -1.888912    0.161041
     18          6           0        1.826739   -0.412833    3.145601
     19          6           0       -4.728724   -1.907708   -1.120620
     20          6           0        2.027767   -1.865008    0.362997
     21          6           0        2.037399   -0.950564   -0.591858
     22          6           0       -3.384080   -1.399756   -1.640210
     23          6           0        3.064661   -0.659810   -1.689803
     24          6           0       -1.484130   -0.490820    3.867760
     25          6           0       -5.917156   -2.212057    1.189743
     26          6           0        2.602951    0.378931   -2.400324
     27          6           0        1.830006    1.067482    2.799252
     28          6           0        1.456484    0.886505   -1.730390
     29          6           0        4.236095   -1.565759   -1.955276
     30          6           0       -5.679779   -2.575241   -2.131096
     31          6           0        5.400885   -1.100108   -1.247972
     32          6           0        3.192503    1.136675   -3.556006
     33          6           0        0.619387    2.090186   -1.944573
     34          6           0        2.922451    1.873888    3.576566
     35          6           0       -0.604186    2.344856   -1.106257
     36          6           0       -6.637851   -3.384566   -1.922899
     37          6           0        6.732820   -1.921638   -1.392508
     38          6           0       -1.464939    3.507095   -1.250181
     39          6           0       -2.324399    3.409436   -0.208398
     40          6           0       -2.008397    2.164227    0.548130
     41          6           0       -1.259064    4.587575   -2.246027
     42          6           0       -3.401483    4.394091    0.241580
     43          6           0       -1.949714    5.759188   -2.412794
     44          1           0       -3.564832   -0.461993    1.291436
     45          1           0       -2.665559   -3.450079    1.134571
     46          1           0       -3.157434   -2.389591    2.551870
     47          1           0       -0.546449   -2.914622    0.075476
     48          1           0       -1.837341   -0.581550   -0.552855
     49          1           0        1.715205   -0.429719    4.225437
     50          1           0        2.793488   -0.735361    2.747003
     51          1           0        2.715715   -2.620921    0.205184
     52          1           0       -2.331275   -0.960798    4.181858
     53          1           0       -0.801726   -0.196445    4.903328
     54          1           0       -1.852242    0.392397    3.275375
     55          1           0       -5.571543   -1.699655    2.130848
     56          1           0       -5.837604   -3.560996    1.455954
     57          1           0       -6.803286   -2.014548    0.638020
     58          1           0        2.302208    1.178198    1.693046
     59          1           0        0.866442    1.525263    2.783815
     60          1           0        0.520752    0.395097   -0.271880
     61          1           0        4.433992   -1.680675   -3.131628
     62          1           0        3.883436   -2.650332   -1.775174
     63          1           0       -5.481985   -2.077356   -3.108450
     64          1           0        5.352340   -0.986950   -0.020373
     65          1           0        5.850972   -0.073700   -1.664317
     66          1           0        3.916340    0.392686   -3.905869
     67          1           0        3.697852    2.230207   -3.185946
     68          1           0        2.629362    1.252436   -4.721902
     69          1           0        0.942125    2.924839   -2.776472
     70          1           0       -6.777810   -3.928966   -0.982786
     71          1           0       -7.109420   -3.872986   -2.924204
     72          1           0        3.375830    3.672983    3.871587
     73          1           0       -0.535514    4.497988   -2.795183
     74          1           0       -4.094935    4.475127   -0.511199
     75          1           0       -3.822055    3.848920    0.994466
     76          1           0       -3.012176    5.459511    0.470872
     77          1           0        8.409121   -2.148269   -0.725046
     78          1           0       -1.699046    6.408475   -3.182178
     79          1           0       -2.865018    5.736957   -1.820170
 ---------------------------------------------------------------------

 SCF Done:  E(RB3LYP) =  -1947.71841760     A.U. after   19 cycles

 Excitation energies and oscillator strengths:

 Excited State   1:      Singlet-A      0.9041 eV 1371.29 nm  f=0.0007  <S**2>=0.000
     155 ->156         0.70494
 This state for optimization and/or second-order correction.
 Total Energy, E(TD-HF/TD-DFT) =  -1947.68519105
 Copying the excited state density for this state as the 1-particle RhoCI density.

 The electronic state is 1-A.
 Alpha  occ. eigenvalues --  -19.21157 -19.18198 -19.13388 -19.11580 -19.11408
 Alpha  occ. eigenvalues --  -19.07620 -14.36943 -14.36829 -14.32597 -14.29819
 Alpha  occ. eigenvalues --  -10.33392 -10.31196 -10.27357 -10.27075 -10.26190
 Alpha  occ. eigenvalues --  -10.25939 -10.25748 -10.24306 -10.24194 -10.24103
 Alpha  occ. eigenvalues --  -10.23639 -10.23173 -10.22857 -10.22125 -10.21574
 Alpha  occ. eigenvalues --  -10.21551 -10.21429 -10.20752 -10.20687 -10.20057
 Alpha  occ. eigenvalues --  -10.19908 -10.19784 -10.19563 -10.19182 -10.19087
 Alpha  occ. eigenvalues --  -10.18604 -10.18473 -10.18236 -10.18197 -10.18173
 Alpha  occ. eigenvalues --  -10.18055 -10.18036 -10.17482  -1.13651  -1.12067
 Alpha  occ. eigenvalues --   -1.02928  -1.02497  -1.02023  -1.01571  -0.99972
 Alpha  occ. eigenvalues --   -0.97390  -0.93164  -0.93000  -0.86202  -0.83122
 Alpha  occ. eigenvalues --   -0.81330  -0.80425  -0.80282  -0.79479  -0.78817
 Alpha  occ. eigenvalues --   -0.77002  -0.75419  -0.75125  -0.74465  -0.72814
 Alpha  occ. eigenvalues --   -0.71318  -0.71100  -0.70048  -0.68987  -0.68038
 Alpha  occ. eigenvalues --   -0.67017  -0.66400  -0.64372  -0.63131  -0.61803
 Alpha  occ. eigenvalues --   -0.61361  -0.60481  -0.59023  -0.58603  -0.56858
 Alpha  occ. eigenvalues --   -0.56340  -0.55839  -0.55655  -0.53719  -0.52877
 Alpha  occ. eigenvalues --   -0.52225  -0.51489  -0.51334  -0.50532  -0.49876
 Alpha  occ. eigenvalues --   -0.49778  -0.49345  -0.48737  -0.48587  -0.48308
 Alpha  occ. eigenvalues --   -0.47860  -0.47451  -0.46825  -0.46171  -0.45870
 Alpha  occ. eigenvalues --   -0.45645  -0.44866  -0.44701  -0.44507  -0.44005
 Alpha  occ. eigenvalues --   -0.43639  -0.43573  -0.42989  -0.42882  -0.42825
 Alpha  occ. eigenvalues --   -0.41905  -0.41713  -0.41671  -0.41341  -0.40871
 Alpha  occ. eigenvalues --   -0.40651  -0.40432  -0.40165  -0.39701  -0.39204
 Alpha  occ. eigenvalues --   -0.38334  -0.38180  -0.38009  -0.37966  -0.37783
 Alpha  occ. eigenvalues --   -0.37102  -0.37020  -0.36590  -0.36405  -0.35864
 Alpha  occ. eigenvalues --   -0.35762  -0.35566  -0.34964  -0.34720  -0.34498
 Alpha  occ. eigenvalues --   -0.34078  -0.33358  -0.32717  -0.32380  -0.31442
 Alpha  occ. eigenvalues --   -0.31195  -0.29872  -0.29609  -0.29159  -0.28157
 Alpha  occ. eigenvalues --   -0.28079  -0.27240  -0.25761  -0.24217  -0.24110
 Alpha  occ. eigenvalues --   -0.23611  -0.23126  -0.22317  -0.22032  -0.18309
 Alpha virt. eigenvalues --   -0.12557  -0.07680  -0.02581  -0.02015  -0.00089
 Alpha virt. eigenvalues --    0.01252   0.01678   0.02090   0.02688   0.03004
 Alpha virt. eigenvalues --    0.03419   0.03723   0.04166   0.04544   0.04861

 Mulliken charges:
               1
     1  O   -0.262275
     2  O   -0.115153
     3  O   -0.192987
     4  O   -0.110409
     5  O   -0.233024
     6  O   -0.242225
     7  N    0.018840
     8  N   -0.143474
     9  N    0.184545
    10  N   -0.282427
    11  C    0.074398
    12  C    0.213277
    13  C   -0.150530
    14  C   -0.149289
    15  C   -0.086369
    16  C   -0.005738
    17  C   -0.178083
    18  C    0.156259
    19  C   -0.091536
    20  C   -0.054351
    21  C    0.115958
    22  C    0.124376
    23  C   -0.055086
    24  C    0.062781
    25  C    0.035637
    26  C   -0.080396
    27  C   -0.075647
    28  C    0.029346
    29  C    0.041755
    30  C    0.031709
    31  C   -0.081476
    32  C   -0.036048
    33  C   -0.104768
    34  C    0.082050
    35  C    0.069985
    36  C   -0.061693
    37  C    0.098730
    38  C    0.086746
    39  C   -0.274976
    40  C    0.183205
    41  C    0.065300
    42  C    0.175613
    43  C    0.052832
    44  H    0.039745
    45  H   -0.015930
    46  H   -0.012216
    47  H    0.059075
    48  H    0.136849
    49  H    0.009872
    50  H   -0.005227
    51  H   -0.038407
    52  H   -0.029751
    53  H    0.027420
    54  H    0.057629
    55  H    0.045484
    56  H    0.044967
    57  H    0.048288
    58  H    0.034447
    59  H    0.036034
    60  H   -0.050911
    61  H    0.056784
    62  H    0.045439
    63  H    0.016385
    64  H    0.073202
    65  H    0.060230
    66  H    0.013495
    67  H    0.079591
    68  H    0.071867
    69  H    0.051153
    70  H    0.014552
    71  H    0.039922
    72  H    0.163581
    73  H   -0.153804
    74  H    0.010263
    75  H   -0.011031
    76  H    0.050036
    77  H    0.177764
    78  H    0.010361
    79  H    0.007460
 Sum of Mulliken charges =  -0.00000

 Dipole moment (field-independent basis, Debye):
    X=              5.0819    Y=              3.0331    Z=             -0.9910  Tot=              6.0006
 Quadrupole moment (field-independent basis, Debye-Ang):
   XX=           -232.7318   YY=           -232.4285   ZZ=           -268.5381
   XY=              5.8870   XZ=            -19.4584   YZ=             -7.7336

 Normal termination of Gaussian 16 at Wed Jul 24 16:57:06 2019.
