 Gaussian 16, Revision A.03,
 Gaussian 16:  ES64L-G16RevA.03 25-Dec-2016

 --------------------------
 # td=(NStates=1) B3LYP/SVP
 --------------------------

 --
 TD
 --
 Symbolic Z-matrix:
 Charge =  0 Multiplicity = 1

                         Standard orientation:
 ---------------------------------------------------------------------
 Center     Atomic      Atomic             Coordinates (Angstroms)
 Number     Number       Type             X           Y           Z
 ---------------------------------------------------------------------
      1          8           0       -3.250351   -1.277359   -2.879837
      2          8           0        3.066853    3.077348    3.364684
      3          8           0        3.796286    1.196178    4.379559
      4          8           0        7.807561   -1.424527   -0.789194
      5          8           0        6.796984   -2.764703   -2.227175
      6          8           0       -2.709622    1.681100    1.358397
      7          7           0       -0.336058   -2.520245    0.990389
      8          7           0       -2.639700   -1.030561   -0.608736
      9          7           0        1.126444    0.025878   -0.659833
     10          7           0       -0.911589    1.528406   -0.063584
     11          6           0       -3.392815   -1.156653    0.593803
     12          6           0       -2.761264   -2.257573    1.659293
     13          6           0       -1.247524   -1.928951    1.880589
     14          6           0       -0.637591   -1.182038    2.901572
     15          6           0        0.678132   -1.159634    2.544994
     16          6           0        0.881273   -1.896554    1.340753
     17          6           0       -4.739885   -1.801372    0.190848
     18          6           0        1.858325   -0.431759    3.232819
     19          6           0       -4.806960   -2.024217   -1.127098
     20          6           0        2.007144   -1.999243    0.260566
     21          6           0        2.044300   -1.031816   -0.697565
     22          6           0       -3.415333   -1.502680   -1.701299
     23          6           0        3.013270   -0.707216   -1.723526
     24          6           0       -1.347573   -0.427967    3.901224
     25          6           0       -5.863918   -2.208172    1.206448
     26          6           0        2.514660    0.336870   -2.534536
     27          6           0        1.958603    0.995462    2.899156
     28          6           0        1.322700    0.886097   -1.824029
     29          6           0        4.233570   -1.534300   -2.059810
     30          6           0       -5.836441   -2.471088   -2.026367
     31          6           0        5.382293   -1.095494   -1.096876
     32          6           0        3.075774    1.035574   -3.731483
     33          6           0        0.472481    1.940122   -1.988893
     34          6           0        3.056574    1.736258    3.570891
     35          6           0       -0.616716    2.289707   -1.186880
     36          6           0       -6.871633   -3.187295   -1.701913
     37          6           0        6.667920   -1.875482   -1.451522
     38          6           0       -1.319949    3.509561   -1.229937
     39          6           0       -2.281427    3.392957   -0.192119
     40          6           0       -2.047746    2.108737    0.508981
     41          6           0       -1.190151    4.469711   -2.378897
     42          6           0       -3.333437    4.338631    0.231182
     43          6           0       -1.872607    5.641091   -2.305858
     44          1           0       -3.575353   -0.155542    1.148582
     45          1           0       -2.685625   -3.302109    1.154563
     46          1           0       -3.405586   -2.391855    2.589377
     47          1           0       -0.747331   -2.704627   -0.006877
     48          1           0       -2.081446   -0.279155   -0.730608
     49          1           0        1.726041   -0.721835    4.450677
     50          1           0        2.973847   -0.897607    3.018619
     51          1           0        2.916343   -2.832085    0.270654
     52          1           0       -2.240339   -1.023818    4.223851
     53          1           0       -0.731911    0.144215    4.751915
     54          1           0       -1.759165    0.414333    3.087412
     55          1           0       -5.935947   -1.553954    2.143430
     56          1           0       -5.617350   -3.132410    1.475028
     57          1           0       -6.877452   -2.069519    0.869567
     58          1           0        2.189950    0.906963    1.809844
     59          1           0        0.933160    1.483344    3.023210
     60          1           0        0.249240    0.084482   -0.199111
     61          1           0        4.686801   -1.428442   -3.251933
     62          1           0        4.145546   -2.625598   -2.168895
     63          1           0       -5.640175   -2.328361   -3.162844
     64          1           0        5.211521   -1.223636   -0.166692
     65          1           0        5.718334   -0.052105   -1.391796
     66          1           0        3.800548    0.494874   -4.059420
     67          1           0        3.540139    1.997309   -3.073078
     68          1           0        2.348181    1.498324   -4.440042
     69          1           0        0.738293    2.481381   -2.862119
     70          1           0       -7.077491   -3.627045   -0.727483
     71          1           0       -7.457007   -3.422634   -2.542216
     72          1           0        3.843543    3.363250    3.936966
     73          1           0       -0.722106    4.153625   -3.505182
     74          1           0       -4.008378    4.729973   -0.699345
     75          1           0       -4.073363    3.713741    0.845508
     76          1           0       -2.819974    5.140214    0.747422
     77          1           0        8.488793   -2.124632   -1.148424
     78          1           0       -1.934996    6.597862   -3.076510
     79          1           0       -2.358959    5.956804   -1.380261
 ---------------------------------------------------------------------

 SCF Done:  E(RB3LYP) =  -1947.79108685     A.U. after   19 cycles

 Excitation energies and oscillator strengths:

 Excited State   1:      Singlet-A      0.8092 eV 1532.23 nm  f=0.0027  <S**2>=0.000
     155 ->156         0.70452
 This state for optimization and/or second-order correction.
 Total Energy, E(TD-HF/TD-DFT) =  -1947.76135019
 Copying the excited state density for this state as the 1-particle RhoCI density.

 The electronic state is 1-A.
 Alpha  occ. eigenvalues --  -19.18414 -19.18293 -19.14363 -19.13317 -19.12018
 Alpha  occ. eigenvalues --  -19.09940 -14.36646 -14.36204 -14.33605 -14.29934
 Alpha  occ. eigenvalues --  -10.32990 -10.31378 -10.28018 -10.27951 -10.26584
 Alpha  occ. eigenvalues --  -10.25132 -10.24856 -10.24010 -10.23685 -10.23628
 Alpha  occ. eigenvalues --  -10.23549 -10.23444 -10.23289 -10.22465 -10.22231
 Alpha  occ. eigenvalues --  -10.21944 -10.21805 -10.21477 -10.21396 -10.20992
 Alpha  occ. eigenvalues --  -10.20792 -10.20494 -10.20428 -10.20406 -10.20008
 Alpha  occ. eigenvalues --  -10.19723 -10.19367 -10.18918 -10.18697 -10.18400
 Alpha  occ. eigenvalues --  -10.17656 -10.17184 -10.16742  -1.10385  -1.08918
 Alpha  occ. eigenvalues --   -1.07509  -1.01884  -1.00595  -0.99482  -0.97215
 Alpha  occ. eigenvalues --   -0.94849  -0.93345  -0.92721  -0.83600  -0.82293
 Alpha  occ. eigenvalues --   -0.81055  -0.80853  -0.80572  -0.79372  -0.77763
 Alpha  occ. eigenvalues --   -0.76777  -0.76128  -0.75380  -0.74262  -0.72775
 Alpha  occ. eigenvalues --   -0.71121  -0.70347  -0.69623  -0.68892  -0.66332
 Alpha  occ. eigenvalues --   -0.65483  -0.65008  -0.62254  -0.60046  -0.59780
 Alpha  occ. eigenvalues --   -0.58663  -0.58428  -0.57658  -0.57173  -0.56705
 Alpha  occ. eigenvalues --   -0.56289  -0.54985  -0.53758  -0.52691  -0.52029
 Alpha  occ. eigenvalues --   -0.51644  -0.50951  -0.50485  -0.50109  -0.49525
 Alpha  occ. eigenvalues --   -0.49129  -0.49055  -0.48895  -0.48682  -0.47936
 Alpha  occ. eigenvalues --   -0.47644  -0.47547  -0.46762  -0.46445  -0.45690
 Alpha  occ. eigenvalues --   -0.45516  -0.45362  -0.44922  -0.44499  -0.43773
 Alpha  occ. eigenvalues --   -0.43556  -0.43180  -0.42849  -0.42745  -0.42509
 Alpha  occ. eigenvalues --   -0.42233  -0.41844  -0.41290  -0.41212  -0.40749
 Alpha  occ. eigenvalues --   -0.40638  -0.40489  -0.40340  -0.39948  -0.39800
 Alpha  occ. eigenvalues --   -0.39589  -0.39233  -0.38439  -0.38213  -0.37771
 Alpha  occ. eigenvalues --   -0.37575  -0.37539  -0.37320  -0.37019  -0.36659
 Alpha  occ. eigenvalues --   -0.35781  -0.35539  -0.35123  -0.34686  -0.34680
 Alpha  occ. eigenvalues --   -0.33610  -0.32988  -0.31945  -0.31834  -0.31795
 Alpha  occ. eigenvalues --   -0.31274  -0.30637  -0.29987  -0.29677  -0.28938
 Alpha  occ. eigenvalues --   -0.27572  -0.26553  -0.26085  -0.25720  -0.24379
 Alpha  occ. eigenvalues --   -0.23422  -0.23357  -0.22932  -0.22288  -0.18340
 Alpha virt. eigenvalues --   -0.12960  -0.07579  -0.03163  -0.02285  -0.00346
 Alpha virt. eigenvalues --    0.00053   0.00743   0.01247   0.01845   0.02251
 Alpha virt. eigenvalues --    0.03722   0.03926   0.04339   0.04999   0.05106

 Mulliken charges:
               1
     1  O   -0.218184
     2  O   -0.197942
     3  O   -0.241325
     4  O   -0.251634
     5  O   -0.205741
     6  O   -0.140359
     7  N   -0.130869
     8  N   -0.164077
     9  N   -0.131120
    10  N   -0.361574
    11  C    0.041196
    12  C    0.083406
    13  C   -0.105095
    14  C   -0.054521
    15  C   -0.075094
    16  C   -0.014781
    17  C   -0.189146
    18  C   -0.050430
    19  C   -0.028804
    20  C   -0.139702
    21  C    0.158966
    22  C    0.142600
    23  C   -0.025501
    24  C   -0.014417
    25  C    0.112610
    26  C   -0.116219
    27  C    0.033279
    28  C    0.101360
    29  C   -0.063964
    30  C   -0.048119
    31  C    0.109099
    32  C    0.146815
    33  C   -0.064863
    34  C    0.141488
    35  C    0.140230
    36  C    0.000915
    37  C    0.110646
    38  C    0.047789
    39  C   -0.208716
    40  C    0.164906
    41  C   -0.043965
    42  C    0.032985
    43  C   -0.084967
    44  H    0.083769
    45  H   -0.000080
    46  H    0.020831
    47  H    0.165076
    48  H    0.099753
    49  H    0.031582
    50  H    0.022186
    51  H    0.049553
    52  H    0.016686
    53  H    0.041012
    54  H    0.080285
    55  H    0.012154
    56  H    0.007511
    57  H    0.027864
    58  H    0.040625
    59  H    0.054950
    60  H    0.155704
    61  H    0.046293
    62  H    0.044862
    63  H    0.028930
    64  H   -0.006527
    65  H    0.054807
    66  H   -0.038107
    67  H    0.058898
    68  H    0.057552
    69  H   -0.062868
    70  H    0.013040
    71  H    0.001990
    72  H    0.191048
    73  H    0.067008
    74  H    0.053528
    75  H    0.043460
    76  H    0.055147
    77  H    0.206468
    78  H    0.055458
    79  H    0.022390
 Sum of Mulliken charges =  -0.00000

 Dipole moment (field-independent basis, Debye):
    X=              1.6569    Y=              3.3669    Z=             -2.2100  Tot=              4.3549
 Quadrupole moment (field-independent basis, Debye-Ang):
   XX=           -240.5671   YY=           -237.7803   ZZ=           -265.0573
   XY=              3.6749   XZ=            -22.6499   YZ=             -9.4743

 Normal termination of Gaussian 16 at Fri Jul 26 02:06:46 2019.
