 Gaussian 16, Revision A.03,
 Gaussian 16:  ES64L-G16RevA.03 25-Dec-2016

 --------------------------
 # td=(NStates=1) B3LYP/SVP
 --------------------------

 --
 TD
 --
 Symbolic Z-matrix:
 Charge =  0 Multiplicity = 1

                         Standard orientation:
 ---------------------------------------------------------------------
 Center     Atomic      Atomic             Coordinates (Angstroms)
 Number     Number       Type             X           Y           Z
 ---------------------------------------------------------------------
      1          8           0       -3.306006   -1.511639   -2.824232
      2          8           0        2.917892    3.387374    3.005578
      3          8           0        3.618217    1.902656    4.416778
      4          8           0        7.836435   -1.450883   -0.825119
      5          8           0        6.665857   -3.039219   -1.975613
      6          8           0       -2.695621    1.716161    1.318783
      7          7           0       -0.143083   -2.449530    1.158030
      8          7           0       -2.537701   -1.349724   -0.546994
      9          7           0        1.148688    0.102252   -0.664411
     10          7           0       -0.926901    1.534555   -0.202439
     11          6           0       -3.292313   -1.360504    0.728340
     12          6           0       -2.558267   -2.257705    1.786893
     13          6           0       -1.160165   -1.993900    2.054931
     14          6           0       -0.585372   -1.151399    2.961953
     15          6           0        0.805947   -0.929120    2.664607
     16          6           0        0.963396   -1.652016    1.381617
     17          6           0       -4.598227   -1.944249    0.379777
     18          6           0        1.832358   -0.080017    3.341358
     19          6           0       -4.727221   -2.029155   -0.950440
     20          6           0        2.093281   -1.825888    0.557168
     21          6           0        2.225455   -0.921231   -0.575160
     22          6           0       -3.407847   -1.510262   -1.526915
     23          6           0        3.027603   -0.802579   -1.707123
     24          6           0       -1.305753   -0.266193    3.817276
     25          6           0       -5.650195   -2.121628    1.437785
     26          6           0        2.615372    0.279483   -2.455101
     27          6           0        1.780996    1.421640    2.787795
     28          6           0        1.329208    0.771248   -1.840655
     29          6           0        4.243988   -1.662725   -1.950487
     30          6           0       -5.756049   -2.583012   -1.861777
     31          6           0        5.453400   -1.066916   -1.145247
     32          6           0        3.163958    0.743015   -3.704990
     33          6           0        0.500460    1.832948   -2.168839
     34          6           0        2.987884    2.226968    3.447043
     35          6           0       -0.607704    2.245777   -1.294164
     36          6           0       -6.740847   -3.528439   -1.525205
     37          6           0        6.654138   -1.997448   -1.348300
     38          6           0       -1.546122    3.350656   -1.543235
     39          6           0       -2.489759    3.266984   -0.528068
     40          6           0       -2.045247    2.002221    0.287145
     41          6           0       -1.478796    4.265243   -2.632730
     42          6           0       -3.573956    4.239482   -0.130010
     43          6           0       -2.224086    5.388155   -2.848051
     44          1           0       -3.451395   -0.301335    1.263047
     45          1           0       -2.596406   -3.371558    1.434140
     46          1           0       -3.265537   -2.113575    2.688017
     47          1           0       -0.233595   -2.823870    0.194499
     48          1           0       -1.817377   -0.572867   -0.771677
     49          1           0        1.514717   -0.203484    4.300646
     50          1           0        2.869936   -0.480123    3.124104
     51          1           0        2.916615   -2.657124    0.757716
     52          1           0       -1.985257   -0.724210    4.577675
     53          1           0       -0.697815    0.455602    4.552806
     54          1           0       -1.872383    0.502376    3.286996
     55          1           0       -5.771797   -1.180709    2.211443
     56          1           0       -5.543493   -3.218207    1.893026
     57          1           0       -6.660917   -2.377163    0.976210
     58          1           0        1.964244    1.354072    1.600559
     59          1           0        0.835569    2.162321    3.002560
     60          1           0        0.520116    0.327837    0.039248
     61          1           0        4.494551   -1.932092   -2.961320
     62          1           0        4.059919   -2.759508   -1.804723
     63          1           0       -5.746235   -2.065775   -2.909791
     64          1           0        5.307887   -1.000760    0.066841
     65          1           0        5.755564   -0.076504   -1.491798
     66          1           0        4.063638    0.326096   -4.061976
     67          1           0        3.204539    1.921855   -3.605707
     68          1           0        2.475185    0.623898   -4.513916
     69          1           0        0.663052    2.443443   -3.242253
     70          1           0       -6.893947   -3.944400   -0.432547
     71          1           0       -7.473841   -3.886207   -2.225173
     72          1           0        3.516400    3.908754    3.472853
     73          1           0       -0.738171    3.982708   -3.322268
     74          1           0       -4.245220    4.354218   -0.996579
     75          1           0       -4.186687    3.721123    0.724927
     76          1           0       -3.270937    5.109085    0.170828
     77          1           0        8.456114   -2.187685   -0.933876
     78          1           0       -1.824787    6.036377   -3.556365
     79          1           0       -3.000583    5.652319   -2.030021
 ---------------------------------------------------------------------

 SCF Done:  E(RB3LYP) =  -1947.84324101     A.U. after   20 cycles

 Excitation energies and oscillator strengths:

 Excited State   1:      Singlet-A      1.0534 eV 1177.03 nm  f=0.0011  <S**2>=0.000
     155 ->156         0.70143
 This state for optimization and/or second-order correction.
 Total Energy, E(TD-HF/TD-DFT) =  -1947.80453066
 Copying the excited state density for this state as the 1-particle RhoCI density.

 The electronic state is 1-A.
 Alpha  occ. eigenvalues --  -19.19289 -19.19087 -19.15145 -19.11941 -19.11665
 Alpha  occ. eigenvalues --  -19.07477 -14.37535 -14.36990 -14.35151 -14.31180
 Alpha  occ. eigenvalues --  -10.34064 -10.31169 -10.28157 -10.27364 -10.26546
 Alpha  occ. eigenvalues --  -10.26484 -10.26441 -10.24498 -10.24125 -10.23656
 Alpha  occ. eigenvalues --  -10.23098 -10.22976 -10.22680 -10.22630 -10.22049
 Alpha  occ. eigenvalues --  -10.21692 -10.21308 -10.21186 -10.21169 -10.20475
 Alpha  occ. eigenvalues --  -10.20368 -10.20321 -10.20257 -10.20155 -10.20017
 Alpha  occ. eigenvalues --  -10.19822 -10.19462 -10.19241 -10.19200 -10.18315
 Alpha  occ. eigenvalues --  -10.18296 -10.17442 -10.16910  -1.15023  -1.09999
 Alpha  occ. eigenvalues --   -1.02023  -1.01729  -1.01254  -0.98759  -0.98332
 Alpha  occ. eigenvalues --   -0.95677  -0.94909  -0.91447  -0.85004  -0.82018
 Alpha  occ. eigenvalues --   -0.81847  -0.80803  -0.80247  -0.79417  -0.78446
 Alpha  occ. eigenvalues --   -0.76148  -0.75401  -0.75168  -0.74638  -0.72793
 Alpha  occ. eigenvalues --   -0.71370  -0.70676  -0.70193  -0.68753  -0.67802
 Alpha  occ. eigenvalues --   -0.67569  -0.66064  -0.63126  -0.61515  -0.61279
 Alpha  occ. eigenvalues --   -0.59981  -0.59071  -0.58876  -0.58272  -0.57241
 Alpha  occ. eigenvalues --   -0.55382  -0.54691  -0.54501  -0.53554  -0.53289
 Alpha  occ. eigenvalues --   -0.52457  -0.51642  -0.51199  -0.50153  -0.49759
 Alpha  occ. eigenvalues --   -0.49453  -0.49045  -0.48908  -0.48869  -0.48084
 Alpha  occ. eigenvalues --   -0.47302  -0.46992  -0.46487  -0.46115  -0.45834
 Alpha  occ. eigenvalues --   -0.45255  -0.45161  -0.44894  -0.44852  -0.43788
 Alpha  occ. eigenvalues --   -0.43448  -0.43391  -0.42518  -0.42336  -0.42172
 Alpha  occ. eigenvalues --   -0.41983  -0.41687  -0.41429  -0.41262  -0.41036
 Alpha  occ. eigenvalues --   -0.40882  -0.40573  -0.40355  -0.40156  -0.39975
 Alpha  occ. eigenvalues --   -0.39668  -0.38960  -0.38293  -0.38187  -0.37929
 Alpha  occ. eigenvalues --   -0.37878  -0.37609  -0.36955  -0.36318  -0.35854
 Alpha  occ. eigenvalues --   -0.35774  -0.35475  -0.35284  -0.34815  -0.34410
 Alpha  occ. eigenvalues --   -0.33990  -0.33768  -0.32877  -0.32617  -0.32074
 Alpha  occ. eigenvalues --   -0.31718  -0.30411  -0.29638  -0.29084  -0.29042
 Alpha  occ. eigenvalues --   -0.27643  -0.27106  -0.25526  -0.25078  -0.23254
 Alpha  occ. eigenvalues --   -0.23078  -0.22821  -0.22360  -0.21852  -0.19352
 Alpha virt. eigenvalues --   -0.12806  -0.08165  -0.04001  -0.02727  -0.02293
 Alpha virt. eigenvalues --   -0.00246   0.01075   0.01295   0.02402   0.02819
 Alpha virt. eigenvalues --    0.03873   0.04190   0.04495   0.05245   0.05619

 Mulliken charges:
               1
     1  O   -0.327671
     2  O   -0.037298
     3  O   -0.235476
     4  O   -0.215265
     5  O   -0.224803
     6  O   -0.247795
     7  N   -0.101675
     8  N   -0.171506
     9  N   -0.116550
    10  N   -0.225366
    11  C    0.012855
    12  C    0.122125
    13  C   -0.008301
    14  C   -0.067268
    15  C   -0.120297
    16  C   -0.038148
    17  C   -0.146009
    18  C    0.207602
    19  C   -0.035234
    20  C   -0.128824
    21  C    0.095327
    22  C    0.127245
    23  C   -0.039838
    24  C    0.009034
    25  C    0.010179
    26  C   -0.118080
    27  C   -0.142879
    28  C    0.143950
    29  C    0.076837
    30  C   -0.015378
    31  C   -0.021664
    32  C    0.107558
    33  C   -0.152776
    34  C    0.084925
    35  C    0.073714
    36  C   -0.068887
    37  C    0.153588
    38  C    0.059748
    39  C   -0.233241
    40  C    0.148772
    41  C   -0.025399
    42  C    0.124362
    43  C    0.009797
    44  H    0.095301
    45  H   -0.000967
    46  H    0.013008
    47  H    0.133136
    48  H    0.169537
    49  H   -0.006837
    50  H    0.011983
    51  H    0.047944
    52  H    0.002464
    53  H   -0.000896
    54  H    0.037127
    55  H    0.068145
    56  H    0.039235
    57  H    0.019130
    58  H    0.045944
    59  H    0.082294
    60  H    0.164260
    61  H    0.006293
    62  H    0.024607
    63  H    0.047497
    64  H    0.082097
    65  H    0.049257
    66  H    0.013765
    67  H    0.037300
    68  H    0.030515
    69  H    0.044939
    70  H    0.032098
    71  H    0.024176
    72  H    0.138373
    73  H   -0.049526
    74  H    0.036784
    75  H    0.041083
    76  H    0.001005
    77  H    0.178235
    78  H    0.010631
    79  H    0.028073
 Sum of Mulliken charges =  -0.00000

 Dipole moment (field-independent basis, Debye):
    X=              4.5385    Y=              3.2253    Z=             -1.1547  Tot=              5.6863
 Quadrupole moment (field-independent basis, Debye-Ang):
   XX=           -239.4305   YY=           -239.1610   ZZ=           -269.2777
   XY=              1.3916   XZ=            -25.6219   YZ=            -11.7444

 Normal termination of Gaussian 16 at Thu Jul 25 10:20:30 2019.
