 Gaussian 16, Revision A.03,
 Gaussian 16:  ES64L-G16RevA.03 25-Dec-2016

 --------------------------
 # td=(NStates=1) B3LYP/SVP
 --------------------------

 --
 TD
 --
 Symbolic Z-matrix:
 Charge =  0 Multiplicity = 1

                         Standard orientation:
 ---------------------------------------------------------------------
 Center     Atomic      Atomic             Coordinates (Angstroms)
 Number     Number       Type             X           Y           Z
 ---------------------------------------------------------------------
      1          8           0       -3.221077   -1.293461   -2.830472
      2          8           0        3.031023    3.243933    2.959570
      3          8           0        3.635886    1.595285    4.276045
      4          8           0        7.668947   -1.816220   -0.412799
      5          8           0        6.722700   -2.895517   -2.179064
      6          8           0       -2.615035    1.797290    1.387353
      7          7           0       -0.322513   -2.314523    0.962923
      8          7           0       -2.776802   -1.108572   -0.578755
      9          7           0        1.155375   -0.015217   -0.745385
     10          7           0       -0.981506    1.411390   -0.282441
     11          6           0       -3.424466   -1.292346    0.691070
     12          6           0       -2.684491   -2.279570    1.736329
     13          6           0       -1.255457   -1.964542    1.860508
     14          6           0       -0.663264   -1.042165    2.842236
     15          6           0        0.711601   -1.033001    2.467869
     16          6           0        0.971848   -1.886913    1.316511
     17          6           0       -4.865088   -1.780593    0.309524
     18          6           0        1.778438   -0.306436    3.229009
     19          6           0       -4.829314   -2.037430   -1.054294
     20          6           0        2.032581   -2.004283    0.360536
     21          6           0        2.105257   -0.948353   -0.593235
     22          6           0       -3.503879   -1.540590   -1.666576
     23          6           0        3.069569   -0.788893   -1.693674
     24          6           0       -1.414522   -0.364378    3.880517
     25          6           0       -5.886828   -2.141271    1.314295
     26          6           0        2.694198    0.397224   -2.357146
     27          6           0        1.858492    1.179144    2.562404
     28          6           0        1.407806    0.798537   -1.772480
     29          6           0        4.291187   -1.686165   -1.788761
     30          6           0       -5.783889   -2.596448   -2.024957
     31          6           0        5.436186   -1.160686   -1.030633
     32          6           0        3.340286    0.951687   -3.558417
     33          6           0        0.611198    1.857839   -2.081055
     34          6           0        2.960051    1.945746    3.327388
     35          6           0       -0.576699    2.244661   -1.285281
     36          6           0       -6.892142   -3.414635   -1.733520
     37          6           0        6.682767   -2.011860   -1.241704
     38          6           0       -1.331310    3.535087   -1.376585
     39          6           0       -2.278362    3.454773   -0.350741
     40          6           0       -2.059646    2.197080    0.308127
     41          6           0       -1.092664    4.552896   -2.397000
     42          6           0       -3.339393    4.413976    0.249286
     43          6           0       -1.928011    5.617149   -2.525443
     44          1           0       -3.615272   -0.479056    1.244280
     45          1           0       -2.962808   -3.375751    1.406764
     46          1           0       -3.264842   -2.340826    2.487210
     47          1           0       -0.431232   -2.946708    0.288469
     48          1           0       -2.249450   -0.226414   -0.616721
     49          1           0        1.406791   -0.267089    4.269195
     50          1           0        2.768211   -0.857284    3.245512
     51          1           0        2.902086   -2.816700    0.539470
     52          1           0       -2.177469   -0.899931    4.192503
     53          1           0       -0.773413   -0.018387    4.745758
     54          1           0       -1.824667    0.671017    3.589827
     55          1           0       -5.895299   -1.602220    2.305515
     56          1           0       -5.754649   -3.145000    1.720825
     57          1           0       -6.994610   -2.299808    0.960986
     58          1           0        2.131629    1.139615    1.560826
     59          1           0        0.897984    1.855951    2.751383
     60          1           0        0.411692    0.038407   -0.079656
     61          1           0        4.591935   -1.845027   -2.934347
     62          1           0        4.181209   -2.706451   -1.637344
     63          1           0       -5.578262   -2.628288   -2.973124
     64          1           0        5.208482   -0.850573    0.048473
     65          1           0        5.727736   -0.136039   -1.313846
     66          1           0        4.346731    0.446476   -3.710883
     67          1           0        3.285306    2.107960   -3.738156
     68          1           0        2.652744    0.791097   -4.539911
     69          1           0        0.887299    2.480392   -2.789779
     70          1           0       -7.261393   -3.635322   -0.792661
     71          1           0       -7.336603   -3.845861   -2.586767
     72          1           0        3.636075    3.796277    3.397272
     73          1           0       -0.347527    3.975812   -3.267703
     74          1           0       -4.242202    4.822234   -0.527110
     75          1           0       -3.582356    3.923872    1.124881
     76          1           0       -2.781501    5.314378    0.679863
     77          1           0        8.273239   -2.521097   -0.449525
     78          1           0       -1.726368    6.210706   -3.410064
     79          1           0       -2.662911    5.816166   -1.835523
 ---------------------------------------------------------------------

 SCF Done:  E(RB3LYP) =  -1947.82338361     A.U. after   17 cycles

 Excitation energies and oscillator strengths:

 Excited State   1:      Singlet-A      0.9064 eV 1367.85 nm  f=0.0006  <S**2>=0.000
     155 ->156         0.70181
 This state for optimization and/or second-order correction.
 Total Energy, E(TD-HF/TD-DFT) =  -1947.79007338
 Copying the excited state density for this state as the 1-particle RhoCI density.

 The electronic state is 1-A.
 Alpha  occ. eigenvalues --  -19.20786 -19.16250 -19.12997 -19.12512 -19.11364
 Alpha  occ. eigenvalues --  -19.08547 -14.37240 -14.36267 -14.32127 -14.31503
 Alpha  occ. eigenvalues --  -10.33971 -10.31201 -10.28429 -10.26704 -10.26006
 Alpha  occ. eigenvalues --  -10.25772 -10.25090 -10.23540 -10.22993 -10.22957
 Alpha  occ. eigenvalues --  -10.22782 -10.22736 -10.22727 -10.22512 -10.21787
 Alpha  occ. eigenvalues --  -10.21455 -10.21374 -10.21339 -10.21275 -10.21012
 Alpha  occ. eigenvalues --  -10.20854 -10.20691 -10.20508 -10.20377 -10.19941
 Alpha  occ. eigenvalues --  -10.19320 -10.19060 -10.18885 -10.18137 -10.17753
 Alpha  occ. eigenvalues --  -10.17698 -10.17078 -10.16844  -1.12853  -1.08638
 Alpha  occ. eigenvalues --   -1.01392  -1.00617  -1.00310  -0.98858  -0.98745
 Alpha  occ. eigenvalues --   -0.96847  -0.92335  -0.91338  -0.83804  -0.82496
 Alpha  occ. eigenvalues --   -0.81666  -0.79792  -0.79501  -0.79336  -0.78433
 Alpha  occ. eigenvalues --   -0.76856  -0.75688  -0.75458  -0.73973  -0.72799
 Alpha  occ. eigenvalues --   -0.71192  -0.70626  -0.70119  -0.69424  -0.68171
 Alpha  occ. eigenvalues --   -0.67280  -0.66005  -0.64095  -0.63396  -0.61595
 Alpha  occ. eigenvalues --   -0.60558  -0.59858  -0.59484  -0.58688  -0.57433
 Alpha  occ. eigenvalues --   -0.56310  -0.55744  -0.55503  -0.53171  -0.52692
 Alpha  occ. eigenvalues --   -0.52510  -0.51796  -0.51497  -0.49891  -0.49809
 Alpha  occ. eigenvalues --   -0.49573  -0.49140  -0.48563  -0.47666  -0.47609
 Alpha  occ. eigenvalues --   -0.47262  -0.46778  -0.46289  -0.45970  -0.45675
 Alpha  occ. eigenvalues --   -0.45140  -0.44499  -0.44299  -0.44054  -0.43913
 Alpha  occ. eigenvalues --   -0.43834  -0.43409  -0.43000  -0.42547  -0.42382
 Alpha  occ. eigenvalues --   -0.41312  -0.41144  -0.40902  -0.40866  -0.40638
 Alpha  occ. eigenvalues --   -0.40228  -0.39958  -0.39722  -0.39586  -0.39285
 Alpha  occ. eigenvalues --   -0.39117  -0.38909  -0.38615  -0.38548  -0.38003
 Alpha  occ. eigenvalues --   -0.37791  -0.37559  -0.37297  -0.37037  -0.36341
 Alpha  occ. eigenvalues --   -0.36260  -0.35865  -0.35356  -0.34931  -0.34354
 Alpha  occ. eigenvalues --   -0.33615  -0.33515  -0.32424  -0.32215  -0.31304
 Alpha  occ. eigenvalues --   -0.31123  -0.29896  -0.29473  -0.28885  -0.28479
 Alpha  occ. eigenvalues --   -0.26908  -0.26550  -0.26119  -0.24768  -0.24241
 Alpha  occ. eigenvalues --   -0.23588  -0.22386  -0.21775  -0.21648  -0.18673
 Alpha virt. eigenvalues --   -0.12918  -0.08243  -0.04763  -0.02800  -0.02216
 Alpha virt. eigenvalues --    0.00810   0.01335   0.02113   0.02274   0.02970
 Alpha virt. eigenvalues --    0.03652   0.04388   0.04754   0.04992   0.05342

 Mulliken charges:
               1
     1  O   -0.239538
     2  O   -0.179274
     3  O   -0.233912
     4  O   -0.095578
     5  O   -0.305948
     6  O   -0.248725
     7  N    0.019049
     8  N   -0.191341
     9  N    0.012444
    10  N   -0.330693
    11  C    0.136818
    12  C    0.226793
    13  C   -0.064958
    14  C   -0.085140
    15  C   -0.159864
    16  C   -0.026382
    17  C   -0.136805
    18  C    0.100202
    19  C   -0.080379
    20  C   -0.122042
    21  C    0.045087
    22  C    0.158717
    23  C   -0.069378
    24  C    0.145151
    25  C    0.029213
    26  C   -0.098213
    27  C   -0.015949
    28  C    0.146803
    29  C    0.102625
    30  C    0.053573
    31  C   -0.001168
    32  C    0.007615
    33  C   -0.017054
    34  C    0.118840
    35  C    0.078122
    36  C   -0.004226
    37  C    0.148633
    38  C    0.021332
    39  C   -0.179904
    40  C    0.187300
    41  C   -0.072924
    42  C    0.083671
    43  C    0.049311
    44  H   -0.012062
    45  H   -0.018904
    46  H   -0.103263
    47  H    0.065346
    48  H    0.152497
    49  H    0.010523
    50  H    0.020524
    51  H    0.050210
    52  H   -0.038194
    53  H   -0.010430
    54  H    0.035859
    55  H    0.021280
    56  H    0.018764
    57  H    0.043334
    58  H    0.019753
    59  H    0.080261
    60  H    0.170492
    61  H    0.037219
    62  H   -0.005058
    63  H   -0.063495
    64  H    0.038567
    65  H    0.027503
    66  H    0.051866
    67  H    0.036057
    68  H    0.046483
    69  H   -0.124346
    70  H   -0.014407
    71  H    0.011037
    72  H    0.157707
    73  H    0.060647
    74  H    0.074888
    75  H    0.001341
    76  H    0.033876
    77  H    0.172238
    78  H    0.036208
    79  H    0.003775
 Sum of Mulliken charges =  -0.00000

 Dipole moment (field-independent basis, Debye):
    X=              2.6808    Y=              3.0804    Z=             -0.2122  Tot=              4.0890
 Quadrupole moment (field-independent basis, Debye-Ang):
   XX=           -232.9787   YY=           -228.3412   ZZ=           -269.9401
   XY=              2.0125   XZ=            -16.8698   YZ=            -19.2806

 Normal termination of Gaussian 16 at Thu Jul 25 02:50:07 2019.
