 Gaussian 16, Revision A.03,
 Gaussian 16:  ES64L-G16RevA.03 25-Dec-2016

 --------------------------
 # td=(NStates=1) B3LYP/SVP
 --------------------------

 --
 TD
 --
 Symbolic Z-matrix:
 Charge =  0 Multiplicity = 1

                         Standard orientation:
 ---------------------------------------------------------------------
 Center     Atomic      Atomic             Coordinates (Angstroms)
 Number     Number       Type             X           Y           Z
 ---------------------------------------------------------------------
      1          8           0       -3.353398   -1.340080   -2.829583
      2          8           0        3.384282    3.063889    3.130287
      3          8           0        4.290589    1.161130    3.956453
      4          8           0        7.582043   -1.759369   -0.612290
      5          8           0        6.667221   -2.870632   -2.390174
      6          8           0       -2.738260    1.523707    1.561238
      7          7           0       -0.218227   -2.295648    0.791010
      8          7           0       -2.716753   -1.112822   -0.566114
      9          7           0        1.046357    0.130170   -0.788096
     10          7           0       -1.017349    1.577107    0.002888
     11          6           0       -3.374717   -1.268102    0.727818
     12          6           0       -2.569299   -2.282344    1.643194
     13          6           0       -1.201880   -1.890386    1.863260
     14          6           0       -0.467844   -1.217780    2.840946
     15          6           0        0.913255   -1.331700    2.454295
     16          6           0        0.966131   -1.836270    1.161484
     17          6           0       -4.768085   -2.011443    0.255824
     18          6           0        1.999012   -0.497305    3.041759
     19          6           0       -4.687653   -2.109334   -1.100970
     20          6           0        2.098218   -1.833847    0.215399
     21          6           0        2.025297   -0.809906   -0.741181
     22          6           0       -3.558312   -1.481584   -1.602261
     23          6           0        2.907587   -0.552295   -1.955328
     24          6           0       -1.038468   -0.503349    3.972389
     25          6           0       -5.684988   -2.453567    1.401252
     26          6           0        2.432142    0.594562   -2.535624
     27          6           0        2.058325    1.017019    2.811048
     28          6           0        1.167067    1.049921   -1.876138
     29          6           0        4.152419   -1.358174   -2.312116
     30          6           0       -5.769407   -2.754331   -2.017951
     31          6           0        5.388898   -1.227486   -1.188431
     32          6           0        2.797796    1.300240   -3.770120
     33          6           0        0.353605    2.126748   -1.995345
     34          6           0        3.365948    1.624627    3.331436
     35          6           0       -0.722220    2.358503   -1.116759
     36          6           0       -6.884271   -3.408335   -1.626614
     37          6           0        6.573774   -2.015183   -1.482944
     38          6           0       -1.523277    3.598414   -0.988374
     39          6           0       -2.376487    3.453029    0.099918
     40          6           0       -2.091907    2.108174    0.640517
     41          6           0       -1.338928    4.658108   -2.044298
     42          6           0       -3.531083    4.367540    0.416409
     43          6           0       -2.185304    5.754105   -2.168905
     44          1           0       -3.586639   -0.321726    1.170262
     45          1           0       -2.496706   -3.275039    1.162720
     46          1           0       -3.202695   -2.347654    2.633253
     47          1           0       -0.412295   -2.654003   -0.012740
     48          1           0       -2.045848   -0.354646   -0.719194
     49          1           0        1.990293   -0.542652    4.209602
     50          1           0        2.949836   -0.986002    2.672918
     51          1           0        2.965867   -2.519006    0.025059
     52          1           0       -1.745450   -1.064999    4.746133
     53          1           0       -0.295894    0.082604    4.568850
     54          1           0       -1.783154    0.364219    3.679870
     55          1           0       -5.561863   -1.903468    2.218937
     56          1           0       -5.729218   -3.473194    1.585441
     57          1           0       -6.810624   -2.129190    1.152228
     58          1           0        2.071768    1.142834    1.650798
     59          1           0        1.152886    1.421858    3.461868
     60          1           0        0.416273    0.155201   -0.181694
     61          1           0        4.564049   -0.973739   -3.267675
     62          1           0        3.919790   -2.530836   -2.593291
     63          1           0       -5.616631   -2.589124   -3.067473
     64          1           0        5.042488   -1.471789   -0.137815
     65          1           0        5.617663   -0.200015   -1.167029
     66          1           0        3.639012    0.926259   -4.216604
     67          1           0        2.811621    2.464279   -3.448389
     68          1           0        2.106340    1.603285   -4.482955
     69          1           0        0.716109    2.921477   -2.867375
     70          1           0       -7.437261   -3.420540   -0.581338
     71          1           0       -7.636760   -3.775896   -2.260511
     72          1           0        4.313116    3.388253    3.464582
     73          1           0       -0.608186    4.671888   -2.872557
     74          1           0       -4.184800    4.444310   -0.345254
     75          1           0       -3.878939    4.005236    1.461711
     76          1           0       -3.195525    5.519244    0.503492
     77          1           0        8.230089   -2.473915   -0.533667
     78          1           0       -2.212450    6.584159   -2.889397
     79          1           0       -2.936312    5.981921   -1.449565
 ---------------------------------------------------------------------

 SCF Done:  E(RB3LYP) =  -1947.82286142     A.U. after   20 cycles

 Excitation energies and oscillator strengths:

 Excited State   1:      Singlet-A      1.0276 eV 1206.56 nm  f=0.0094  <S**2>=0.000
     155 ->156         0.70426
 This state for optimization and/or second-order correction.
 Total Energy, E(TD-HF/TD-DFT) =  -1947.78509836
 Copying the excited state density for this state as the 1-particle RhoCI density.

 The electronic state is 1-A.
 Alpha  occ. eigenvalues --  -19.19227 -19.15958 -19.13476 -19.13430 -19.12301
 Alpha  occ. eigenvalues --  -19.07420 -14.37342 -14.35841 -14.32870 -14.30907
 Alpha  occ. eigenvalues --  -10.33597 -10.32199 -10.28437 -10.27758 -10.26291
 Alpha  occ. eigenvalues --  -10.26036 -10.25860 -10.24375 -10.23871 -10.23670
 Alpha  occ. eigenvalues --  -10.23179 -10.23084 -10.23031 -10.22756 -10.22435
 Alpha  occ. eigenvalues --  -10.22130 -10.22106 -10.21876 -10.21493 -10.21469
 Alpha  occ. eigenvalues --  -10.21426 -10.21021 -10.20977 -10.20540 -10.20234
 Alpha  occ. eigenvalues --  -10.19535 -10.19450 -10.19446 -10.19210 -10.18802
 Alpha  occ. eigenvalues --  -10.18546 -10.17914 -10.17249  -1.09673  -1.06642
 Alpha  occ. eigenvalues --   -1.01338  -1.00272  -1.00013  -0.98971  -0.97349
 Alpha  occ. eigenvalues --   -0.96852  -0.93099  -0.91003  -0.84457  -0.82932
 Alpha  occ. eigenvalues --   -0.81098  -0.80721  -0.79577  -0.79283  -0.79199
 Alpha  occ. eigenvalues --   -0.76905  -0.76115  -0.75541  -0.74773  -0.73840
 Alpha  occ. eigenvalues --   -0.71622  -0.71237  -0.70661  -0.70522  -0.67615
 Alpha  occ. eigenvalues --   -0.66924  -0.65690  -0.63360  -0.62542  -0.61016
 Alpha  occ. eigenvalues --   -0.60043  -0.59481  -0.58754  -0.57566  -0.57184
 Alpha  occ. eigenvalues --   -0.56949  -0.55910  -0.54288  -0.53810  -0.53156
 Alpha  occ. eigenvalues --   -0.52632  -0.52048  -0.51547  -0.50908  -0.49434
 Alpha  occ. eigenvalues --   -0.49273  -0.48969  -0.48433  -0.48059  -0.47967
 Alpha  occ. eigenvalues --   -0.47314  -0.46485  -0.46276  -0.46154  -0.45787
 Alpha  occ. eigenvalues --   -0.45646  -0.45364  -0.45056  -0.44273  -0.44162
 Alpha  occ. eigenvalues --   -0.43860  -0.43497  -0.42930  -0.42410  -0.42318
 Alpha  occ. eigenvalues --   -0.42021  -0.41658  -0.41494  -0.41212  -0.40876
 Alpha  occ. eigenvalues --   -0.40239  -0.40019  -0.39848  -0.39661  -0.39387
 Alpha  occ. eigenvalues --   -0.39212  -0.38863  -0.38735  -0.38312  -0.37961
 Alpha  occ. eigenvalues --   -0.37871  -0.37638  -0.37347  -0.37066  -0.36663
 Alpha  occ. eigenvalues --   -0.36208  -0.35849  -0.35419  -0.35268  -0.34884
 Alpha  occ. eigenvalues --   -0.33728  -0.32960  -0.32620  -0.31935  -0.30875
 Alpha  occ. eigenvalues --   -0.30646  -0.29400  -0.28928  -0.28793  -0.28056
 Alpha  occ. eigenvalues --   -0.27855  -0.27410  -0.26187  -0.24660  -0.23981
 Alpha  occ. eigenvalues --   -0.23591  -0.23088  -0.23004  -0.22840  -0.19597
 Alpha virt. eigenvalues --   -0.13586  -0.07938  -0.04336  -0.02883  -0.02225
 Alpha virt. eigenvalues --   -0.00799   0.00619   0.01576   0.01622   0.02648
 Alpha virt. eigenvalues --    0.02867   0.03688   0.04073   0.04760   0.04932

 Mulliken charges:
               1
     1  O   -0.280679
     2  O   -0.301723
     3  O   -0.205209
     4  O   -0.195953
     5  O   -0.254516
     6  O   -0.249965
     7  N   -0.027851
     8  N   -0.212640
     9  N    0.023760
    10  N   -0.299811
    11  C    0.054692
    12  C    0.163096
    13  C   -0.016469
    14  C   -0.051682
    15  C   -0.055552
    16  C   -0.003802
    17  C   -0.188538
    18  C   -0.001981
    19  C   -0.012506
    20  C   -0.053010
    21  C   -0.001386
    22  C    0.119055
    23  C   -0.055578
    24  C   -0.012918
    25  C    0.152337
    26  C   -0.086645
    27  C   -0.010144
    28  C    0.128849
    29  C    0.018116
    30  C    0.052978
    31  C    0.006183
    32  C    0.134245
    33  C   -0.117438
    34  C    0.157402
    35  C    0.115629
    36  C   -0.063756
    37  C    0.157158
    38  C    0.066070
    39  C   -0.179385
    40  C    0.184658
    41  C   -0.017457
    42  C    0.066385
    43  C   -0.038926
    44  H    0.045364
    45  H   -0.007554
    46  H    0.013150
    47  H    0.044094
    48  H    0.135960
    49  H    0.017331
    50  H    0.007764
    51  H    0.016455
    52  H    0.024698
    53  H   -0.000767
    54  H    0.047950
    55  H   -0.020617
    56  H    0.027482
    57  H    0.033542
    58  H    0.055842
    59  H    0.078133
    60  H    0.052341
    61  H    0.019087
    62  H    0.072152
    63  H    0.003773
    64  H    0.062748
    65  H    0.032689
    66  H    0.001688
    67  H    0.016956
    68  H    0.010380
    69  H    0.038882
    70  H    0.018695
    71  H    0.004332
    72  H    0.203215
    73  H    0.008871
    74  H    0.017810
    75  H    0.052362
    76  H    0.042314
    77  H    0.194338
    78  H    0.030464
    79  H   -0.007019
 Sum of Mulliken charges =  -0.00000

 Dipole moment (field-independent basis, Debye):
    X=              2.2799    Y=              3.2467    Z=             -0.7141  Tot=              4.0310
 Quadrupole moment (field-independent basis, Debye-Ang):
   XX=           -237.1231   YY=           -236.4263   ZZ=           -266.4591
   XY=             -0.1140   XZ=            -19.1347   YZ=            -21.1019

 Normal termination of Gaussian 16 at Sun Jul 28 07:53:57 2019.
