 Gaussian 16, Revision A.03,
 Gaussian 16:  ES64L-G16RevA.03 25-Dec-2016

 --------------------------
 # td=(NStates=1) B3LYP/SVP
 --------------------------

 --
 TD
 --
 Symbolic Z-matrix:
 Charge =  0 Multiplicity = 1

                         Standard orientation:
 ---------------------------------------------------------------------
 Center     Atomic      Atomic             Coordinates (Angstroms)
 Number     Number       Type             X           Y           Z
 ---------------------------------------------------------------------
      1          8           0       -3.108757   -1.756589   -2.839631
      2          8           0        3.026854    3.402593    2.864267
      3          8           0        3.733878    1.665323    4.066382
      4          8           0        7.766144   -1.803981   -0.655913
      5          8           0        6.672495   -3.409964   -1.770017
      6          8           0       -2.719860    1.674743    1.170810
      7          7           0       -0.364762   -2.111746    1.109678
      8          7           0       -2.660268   -1.304842   -0.528172
      9          7           0        1.072446    0.043406   -0.716385
     10          7           0       -1.049147    1.441951   -0.431900
     11          6           0       -3.511078   -1.147184    0.621931
     12          6           0       -2.758604   -1.939232    1.915730
     13          6           0       -1.301721   -1.759401    1.982323
     14          6           0       -0.638686   -0.938228    2.959278
     15          6           0        0.658647   -0.840812    2.652856
     16          6           0        0.837007   -1.682660    1.502120
     17          6           0       -4.841723   -1.797369    0.301748
     18          6           0        1.727575    0.032834    3.236318
     19          6           0       -4.791473   -2.104303   -1.101713
     20          6           0        1.997712   -1.833787    0.562571
     21          6           0        2.079911   -0.906834   -0.530465
     22          6           0       -3.430428   -1.827798   -1.615450
     23          6           0        3.079738   -0.822685   -1.551177
     24          6           0       -1.287399   -0.166232    4.062282
     25          6           0       -5.900494   -1.947005    1.254955
     26          6           0        2.655363    0.303845   -2.302740
     27          6           0        1.852958    1.340388    2.714361
     28          6           0        1.377539    0.771160   -1.788726
     29          6           0        4.198597   -1.862902   -1.748684
     30          6           0       -5.819322   -2.758704   -1.784815
     31          6           0        5.502285   -1.350541   -0.994950
     32          6           0        3.284544    0.824791   -3.580701
     33          6           0        0.698215    1.891232   -2.236063
     34          6           0        3.012413    2.176302    3.243469
     35          6           0       -0.573020    2.141102   -1.497662
     36          6           0       -6.761291   -3.693912   -1.449415
     37          6           0        6.608087   -2.286463   -1.232886
     38          6           0       -1.321100    3.435869   -1.673342
     39          6           0       -2.269013    3.411399   -0.573587
     40          6           0       -2.141699    2.066749    0.230473
     41          6           0       -1.087733    4.467381   -2.590406
     42          6           0       -3.359127    4.476443   -0.056413
     43          6           0       -1.659256    5.713729   -2.666139
     44          1           0       -3.589925   -0.191676    1.098213
     45          1           0       -2.986834   -2.901820    1.830580
     46          1           0       -3.322487   -1.799355    2.938447
     47          1           0       -0.491547   -2.661179    0.280946
     48          1           0       -2.116574   -0.578040   -0.805932
     49          1           0        1.489532    0.064140    4.430340
     50          1           0        2.683897   -0.463332    3.046489
     51          1           0        2.710495   -2.696171    0.684239
     52          1           0       -1.950222   -0.963738    4.527027
     53          1           0       -0.416151    0.039645    4.710172
     54          1           0       -1.880305    0.731367    3.686609
     55          1           0       -6.028757   -1.069160    1.939204
     56          1           0       -5.739077   -2.832878    2.159881
     57          1           0       -6.929457   -2.166219    0.632967
     58          1           0        1.694525    1.327335    1.551974
     59          1           0        0.792627    1.968465    2.721393
     60          1           0        0.172053    0.039725   -0.279311
     61          1           0        4.333128   -1.657892   -2.894751
     62          1           0        3.928111   -2.839296   -1.585761
     63          1           0       -6.014116   -2.610927   -2.807476
     64          1           0        5.175190   -1.064626    0.066244
     65          1           0        5.967793   -0.273346   -1.638737
     66          1           0        4.174599    0.364111   -3.942663
     67          1           0        3.504409    1.885792   -3.085854
     68          1           0        2.546368    1.093412   -4.451856
     69          1           0        1.034274    2.514820   -3.064661
     70          1           0       -6.761856   -4.235801   -0.437498
     71          1           0       -7.583993   -4.010162   -2.188804
     72          1           0        3.596567    3.935228    3.455606
     73          1           0       -0.350591    4.232922   -3.420410
     74          1           0       -4.195785    4.773949   -0.851339
     75          1           0       -3.895904    4.069323    0.681477
     76          1           0       -2.873310    5.316449    0.441633
     77          1           0        8.335099   -2.645155   -0.490899
     78          1           0       -1.360835    6.405374   -3.361451
     79          1           0       -2.309395    5.917310   -1.886251
 ---------------------------------------------------------------------

 SCF Done:  E(RB3LYP) =  -1947.80786679     A.U. after   17 cycles

 Excitation energies and oscillator strengths:

 Excited State   1:      Singlet-A      0.8910 eV 1391.46 nm  f=0.0012  <S**2>=0.000
     155 ->156         0.70236
 This state for optimization and/or second-order correction.
 Total Energy, E(TD-HF/TD-DFT) =  -1947.77512169
 Copying the excited state density for this state as the 1-particle RhoCI density.

 The electronic state is 1-A.
 Alpha  occ. eigenvalues --  -19.19322 -19.18208 -19.14019 -19.13970 -19.11395
 Alpha  occ. eigenvalues --  -19.09231 -14.37389 -14.37344 -14.33363 -14.30717
 Alpha  occ. eigenvalues --  -10.33574 -10.31416 -10.29419 -10.27971 -10.26379
 Alpha  occ. eigenvalues --  -10.26141 -10.25512 -10.25485 -10.23177 -10.23137
 Alpha  occ. eigenvalues --  -10.23007 -10.22885 -10.22825 -10.22526 -10.22394
 Alpha  occ. eigenvalues --  -10.22145 -10.21870 -10.21862 -10.21496 -10.21227
 Alpha  occ. eigenvalues --  -10.20188 -10.20065 -10.20060 -10.19807 -10.19800
 Alpha  occ. eigenvalues --  -10.19448 -10.19357 -10.19094 -10.18692 -10.18565
 Alpha  occ. eigenvalues --  -10.17616 -10.16228 -10.15467  -1.11868  -1.08622
 Alpha  occ. eigenvalues --   -1.06761  -1.00870  -1.00628  -0.99187  -0.99062
 Alpha  occ. eigenvalues --   -0.98748  -0.92165  -0.91941  -0.83651  -0.81778
 Alpha  occ. eigenvalues --   -0.81501  -0.81235  -0.80762  -0.78969  -0.78032
 Alpha  occ. eigenvalues --   -0.76484  -0.75981  -0.74632  -0.74003  -0.72750
 Alpha  occ. eigenvalues --   -0.70654  -0.70287  -0.69842  -0.69456  -0.67674
 Alpha  occ. eigenvalues --   -0.67259  -0.65839  -0.63543  -0.61434  -0.60789
 Alpha  occ. eigenvalues --   -0.60053  -0.59788  -0.59262  -0.57741  -0.56940
 Alpha  occ. eigenvalues --   -0.56014  -0.55833  -0.54851  -0.53085  -0.52452
 Alpha  occ. eigenvalues --   -0.52090  -0.51518  -0.51271  -0.50763  -0.50324
 Alpha  occ. eigenvalues --   -0.49938  -0.49131  -0.48579  -0.48518  -0.48196
 Alpha  occ. eigenvalues --   -0.47356  -0.47187  -0.46828  -0.46458  -0.45483
 Alpha  occ. eigenvalues --   -0.45283  -0.45076  -0.44769  -0.44462  -0.44384
 Alpha  occ. eigenvalues --   -0.44153  -0.43825  -0.43203  -0.42493  -0.42392
 Alpha  occ. eigenvalues --   -0.42032  -0.41660  -0.41486  -0.41311  -0.40742
 Alpha  occ. eigenvalues --   -0.40634  -0.40273  -0.40218  -0.40193  -0.39846
 Alpha  occ. eigenvalues --   -0.39262  -0.39113  -0.38864  -0.38561  -0.38382
 Alpha  occ. eigenvalues --   -0.37339  -0.37312  -0.37088  -0.36925  -0.36735
 Alpha  occ. eigenvalues --   -0.35716  -0.35609  -0.35395  -0.34743  -0.34296
 Alpha  occ. eigenvalues --   -0.33449  -0.32485  -0.32336  -0.32136  -0.31847
 Alpha  occ. eigenvalues --   -0.29952  -0.29748  -0.29582  -0.29276  -0.28913
 Alpha  occ. eigenvalues --   -0.27522  -0.26599  -0.25636  -0.25122  -0.24098
 Alpha  occ. eigenvalues --   -0.23439  -0.22723  -0.22449  -0.22008  -0.18290
 Alpha virt. eigenvalues --   -0.12539  -0.08112  -0.05997  -0.03655  -0.02315
 Alpha virt. eigenvalues --    0.00063   0.00602   0.00728   0.02652   0.03754
 Alpha virt. eigenvalues --    0.03986   0.04203   0.04650   0.04664   0.04895

 Mulliken charges:
               1
     1  O   -0.274221
     2  O   -0.118034
     3  O   -0.232080
     4  O   -0.243109
     5  O   -0.249300
     6  O   -0.143714
     7  N    0.037875
     8  N   -0.174447
     9  N   -0.029071
    10  N   -0.373258
    11  C    0.029857
    12  C    0.235594
    13  C   -0.129975
    14  C   -0.181270
    15  C   -0.073368
    16  C   -0.092096
    17  C   -0.056394
    18  C    0.158186
    19  C    0.011609
    20  C   -0.116080
    21  C    0.080277
    22  C    0.172413
    23  C   -0.076994
    24  C    0.099227
    25  C   -0.042106
    26  C   -0.152598
    27  C   -0.121692
    28  C    0.148094
    29  C    0.134895
    30  C   -0.034847
    31  C   -0.107731
    32  C    0.027242
    33  C   -0.120212
    34  C    0.141214
    35  C    0.126727
    36  C   -0.114752
    37  C    0.194289
    38  C    0.073615
    39  C   -0.249693
    40  C    0.206654
    41  C   -0.107609
    42  C    0.112466
    43  C    0.079682
    44  H    0.054574
    45  H   -0.082826
    46  H   -0.004563
    47  H    0.107637
    48  H    0.107638
    49  H    0.024311
    50  H   -0.009406
    51  H    0.026320
    52  H    0.012011
    53  H   -0.004045
    54  H    0.050799
    55  H    0.035104
    56  H    0.059790
    57  H    0.063840
    58  H    0.033543
    59  H    0.035666
    60  H    0.166844
    61  H    0.035825
    62  H    0.018999
    63  H   -0.007361
    64  H    0.095053
    65  H    0.087619
    66  H    0.023936
    67  H    0.049051
    68  H    0.062736
    69  H   -0.005612
    70  H    0.026428
    71  H    0.040897
    72  H    0.188013
    73  H   -0.005973
    74  H    0.051464
    75  H   -0.029377
    76  H    0.034316
    77  H    0.211580
    78  H    0.004176
    79  H   -0.014268
 Sum of Mulliken charges =  -0.00000

 Dipole moment (field-independent basis, Debye):
    X=              1.8788    Y=              3.6066    Z=             -0.3058  Tot=              4.0781
 Quadrupole moment (field-independent basis, Debye-Ang):
   XX=           -240.4166   YY=           -237.1223   ZZ=           -266.9312
   XY=              6.2303   XZ=            -18.6440   YZ=            -13.6825

 Normal termination of Gaussian 16 at Wed Jul 24 03:56:33 2019.
