 Gaussian 16, Revision A.03,
 Gaussian 16:  ES64L-G16RevA.03 25-Dec-2016

 --------------------------
 # td=(NStates=1) B3LYP/SVP
 --------------------------

 --
 TD
 --
 Symbolic Z-matrix:
 Charge =  0 Multiplicity = 1

                         Standard orientation:
 ---------------------------------------------------------------------
 Center     Atomic      Atomic             Coordinates (Angstroms)
 Number     Number       Type             X           Y           Z
 ---------------------------------------------------------------------
      1          8           0        5.237913   -0.221515   -3.289995
      2          8           0       -3.073208   -2.899149    3.185120
      3          8           0       -3.321391   -0.732644    3.045848
      4          8           0       -1.842293    7.344943    1.347375
      5          8           0       -0.433184    6.924322   -0.547737
      6          8           0       -1.756947   -4.003121   -0.051963
      7          7           0        2.379674    1.040725    0.640918
      8          7           0        4.349250   -0.715952   -1.216993
      9          7           0       -1.932247    0.691445   -0.353071
     10          7           0       -2.554556   -1.857893   -0.554386
     11          6           0        4.852755   -1.200348    0.053577
     12          6           0        4.456937   -0.263173    1.136570
     13          6           0        2.956269   -0.002963    1.274129
     14          6           0        2.011551   -0.611168    2.099334
     15          6           0        0.827068   -0.026769    1.831350
     16          6           0        1.013490    0.936270    0.802938
     17          6           0        6.325791   -1.190973   -0.175045
     18          6           0       -0.537509   -0.250019    2.487394
     19          6           0        6.696236   -0.939466   -1.376745
     20          6           0        0.174716    1.926165    0.217775
     21          6           0       -1.117670    1.739007   -0.328552
     22          6           0        5.336476   -0.614411   -2.195809
     23          6           0       -1.945086    2.895779   -0.897357
     24          6           0        2.329299   -1.681999    3.147049
     25          6           0        7.289480   -1.728431    0.984589
     26          6           0       -3.198206    2.375209   -1.331313
     27          6           0       -1.133991   -1.600088    2.420099
     28          6           0       -3.144930    0.938248   -1.071242
     29          6           0       -1.606620    4.370747   -0.929186
     30          6           0        7.974404   -0.792697   -2.078919
     31          6           0       -1.735546    5.131885    0.422870
     32          6           0       -4.361910    3.010418   -1.841195
     33          6           0       -4.033494   -0.154141   -1.335708
     34          6           0       -2.590492   -1.715966    2.984450
     35          6           0       -3.685001   -1.633536   -1.161513
     36          6           0        9.257548   -0.951982   -1.482788
     37          6           0       -1.195806    6.606602    0.319764
     38          6           0       -4.606488   -2.629910   -1.455163
     39          6           0       -3.910854   -3.772585   -0.996812
     40          6           0       -2.695847   -3.303446   -0.462214
     41          6           0       -5.921425   -2.515300   -2.010255
     42          6           0       -4.364712   -5.124973   -0.969980
     43          6           0       -6.826384   -3.493758   -2.414448
     44          1           0        4.346156   -2.268797    0.339149
     45          1           0        4.882277    0.862404    1.186329
     46          1           0        4.705876   -0.618375    2.167387
     47          1           0        2.835968    1.634546   -0.048874
     48          1           0        3.333794   -0.890189   -1.471493
     49          1           0       -0.376680   -0.146329    3.610713
     50          1           0       -1.266480    0.410155    1.974953
     51          1           0        0.709628    2.910005    0.041029
     52          1           0        3.457597   -1.897959    3.269444
     53          1           0        2.185860   -1.022335    4.110304
     54          1           0        1.818078   -2.595129    3.116456
     55          1           0        6.827460   -2.251436    1.800162
     56          1           0        7.868388   -0.836516    1.470540
     57          1           0        8.032015   -2.092790    0.507383
     58          1           0       -1.109515   -2.057106    1.500456
     59          1           0       -0.625633   -2.349627    3.196286
     60          1           0       -1.556631   -0.316048   -0.150711
     61          1           0       -2.394197    4.736132   -1.623583
     62          1           0       -0.536597    4.410034   -1.255088
     63          1           0        7.979226   -0.655688   -3.170547
     64          1           0       -1.011740    4.616945    1.283719
     65          1           0       -2.800098    5.140645    0.821852
     66          1           0       -4.570569    4.182315   -1.902238
     67          1           0       -5.235194    2.569284   -1.360815
     68          1           0       -4.462834    2.841259   -3.020918
     69          1           0       -4.931038    0.093118   -1.914019
     70          1           0        9.363313   -0.921732   -0.429064
     71          1           0       10.068065   -1.135137   -2.024378
     72          1           0       -3.914016   -2.755024    3.494396
     73          1           0       -6.225158   -1.444864   -2.298972
     74          1           0       -5.260492   -5.310765   -0.353373
     75          1           0       -4.564086   -5.413533   -1.913974
     76          1           0       -3.503838   -5.592780   -0.353615
     77          1           0       -1.233731    8.232613    1.268592
     78          1           0       -7.857559   -3.320957   -2.741803
     79          1           0       -6.499897   -4.550668   -2.255996
 ---------------------------------------------------------------------

 SCF Done:  E(RB3LYP) =  -1947.84529518     A.U. after   20 cycles

 Excitation energies and oscillator strengths:

 Excited State   1:      Singlet-A      1.7254 eV  718.60 nm  f=0.3948  <S**2>=0.000
     155 ->156         0.70663
     155 <-156        -0.14974
 This state for optimization and/or second-order correction.
 Total Energy, E(TD-HF/TD-DFT) =  -1947.78188919
 Copying the excited state density for this state as the 1-particle RhoCI density.

 The electronic state is 1-A.
 Alpha  occ. eigenvalues --  -19.19957 -19.17774 -19.15127 -19.11312 -19.10649
 Alpha  occ. eigenvalues --  -19.10152 -14.38366 -14.36100 -14.35462 -14.29200
 Alpha  occ. eigenvalues --  -10.33394 -10.30380 -10.29033 -10.26018 -10.25584
 Alpha  occ. eigenvalues --  -10.24801 -10.24067 -10.23090 -10.22555 -10.22451
 Alpha  occ. eigenvalues --  -10.22234 -10.22170 -10.21651 -10.21619 -10.21458
 Alpha  occ. eigenvalues --  -10.21341 -10.21337 -10.21234 -10.20988 -10.20817
 Alpha  occ. eigenvalues --  -10.20810 -10.20583 -10.20110 -10.19948 -10.19935
 Alpha  occ. eigenvalues --  -10.19528 -10.19487 -10.19474 -10.18979 -10.18696
 Alpha  occ. eigenvalues --  -10.18669 -10.18600 -10.17999  -1.11900  -1.08573
 Alpha  occ. eigenvalues --   -1.05430  -1.01636  -1.00976  -0.99515  -0.98477
 Alpha  occ. eigenvalues --   -0.96794  -0.94597  -0.93193  -0.82028  -0.81915
 Alpha  occ. eigenvalues --   -0.81671  -0.81514  -0.80656  -0.78939  -0.77088
 Alpha  occ. eigenvalues --   -0.76766  -0.76365  -0.74978  -0.73721  -0.71695
 Alpha  occ. eigenvalues --   -0.71492  -0.71040  -0.70508  -0.68775  -0.67542
 Alpha  occ. eigenvalues --   -0.66853  -0.65306  -0.63692  -0.61833  -0.61112
 Alpha  occ. eigenvalues --   -0.59986  -0.58260  -0.57811  -0.57200  -0.57064
 Alpha  occ. eigenvalues --   -0.55451  -0.54938  -0.54138  -0.53936  -0.53172
 Alpha  occ. eigenvalues --   -0.51723  -0.51404  -0.50584  -0.49850  -0.49251
 Alpha  occ. eigenvalues --   -0.48844  -0.48785  -0.48301  -0.47788  -0.47530
 Alpha  occ. eigenvalues --   -0.47361  -0.47106  -0.46822  -0.45990  -0.45676
 Alpha  occ. eigenvalues --   -0.45568  -0.44991  -0.44847  -0.44362  -0.44218
 Alpha  occ. eigenvalues --   -0.44115  -0.43573  -0.43314  -0.43272  -0.42720
 Alpha  occ. eigenvalues --   -0.42059  -0.41831  -0.41716  -0.41376  -0.41261
 Alpha  occ. eigenvalues --   -0.41096  -0.40701  -0.40427  -0.40116  -0.40068
 Alpha  occ. eigenvalues --   -0.39495  -0.38947  -0.38694  -0.38372  -0.38237
 Alpha  occ. eigenvalues --   -0.37774  -0.37429  -0.37154  -0.36954  -0.36681
 Alpha  occ. eigenvalues --   -0.36427  -0.35551  -0.35069  -0.34751  -0.34538
 Alpha  occ. eigenvalues --   -0.33933  -0.33835  -0.33126  -0.32618  -0.31913
 Alpha  occ. eigenvalues --   -0.30645  -0.30287  -0.29435  -0.29226  -0.28297
 Alpha  occ. eigenvalues --   -0.27103  -0.26091  -0.25826  -0.25344  -0.24724
 Alpha  occ. eigenvalues --   -0.24229  -0.23989  -0.23387  -0.22130  -0.17803
 Alpha virt. eigenvalues --   -0.11363  -0.06868  -0.05802  -0.01205  -0.01077
 Alpha virt. eigenvalues --    0.00929   0.00981   0.01802   0.02081   0.03184
 Alpha virt. eigenvalues --    0.03800   0.04365   0.04796   0.04927   0.05115

 Mulliken charges:
               1
     1  O   -0.149852
     2  O   -0.074886
     3  O   -0.266655
     4  O   -0.264962
     5  O   -0.190577
     6  O   -0.221151
     7  N   -0.044539
     8  N   -0.244683
     9  N   -0.119370
    10  N   -0.262202
    11  C    0.116051
    12  C    0.125731
    13  C   -0.146636
    14  C   -0.109334
    15  C   -0.085060
    16  C    0.038898
    17  C   -0.197971
    18  C    0.116977
    19  C   -0.030594
    20  C   -0.141162
    21  C    0.107240
    22  C    0.140541
    23  C   -0.155951
    24  C    0.068102
    25  C    0.175891
    26  C   -0.027113
    27  C   -0.013606
    28  C    0.101576
    29  C    0.127800
    30  C   -0.042434
    31  C   -0.079325
    32  C   -0.023159
    33  C   -0.092153
    34  C    0.090104
    35  C    0.062959
    36  C    0.026642
    37  C    0.176962
    38  C    0.059929
    39  C   -0.193402
    40  C    0.148057
    41  C   -0.055672
    42  C    0.114340
    43  C   -0.038579
    44  H    0.048260
    45  H    0.018821
    46  H    0.000177
    47  H    0.120312
    48  H    0.150415
    49  H    0.005175
    50  H    0.030501
    51  H    0.006692
    52  H    0.002114
    53  H    0.033531
    54  H    0.039123
    55  H    0.018960
    56  H    0.022900
    57  H   -0.041974
    58  H    0.035860
    59  H    0.019620
    60  H    0.195900
    61  H    0.015882
    62  H    0.027976
    63  H    0.017937
    64  H    0.065694
    65  H    0.048682
    66  H    0.038613
    67  H    0.038907
    68  H    0.040550
    69  H   -0.030161
    70  H    0.006011
    71  H   -0.003327
    72  H    0.138204
    73  H    0.010037
    74  H    0.026978
    75  H    0.015069
    76  H    0.040036
    77  H    0.213981
    78  H    0.038026
    79  H    0.017751
 Sum of Mulliken charges =  -0.00000

 Dipole moment (field-independent basis, Debye):
    X=              0.6205    Y=              1.7764    Z=              2.7952  Tot=              3.3695
 Quadrupole moment (field-independent basis, Debye-Ang):
   XX=           -216.2931   YY=           -242.4252   ZZ=           -259.9815
   XY=             -2.2848   XZ=             30.7049   YZ=              1.1456

 Normal termination of Gaussian 16 at Fri Sep 27 01:55:51 2019.
