 Gaussian 16, Revision A.03,
 Gaussian 16:  ES64L-G16RevA.03 25-Dec-2016

 --------------------------
 # td=(NStates=1) B3LYP/SVP
 --------------------------

 --
 TD
 --
 Symbolic Z-matrix:
 Charge =  0 Multiplicity = 1

                         Standard orientation:
 ---------------------------------------------------------------------
 Center     Atomic      Atomic             Coordinates (Angstroms)
 Number     Number       Type             X           Y           Z
 ---------------------------------------------------------------------
      1          8           0       -3.304275   -0.860611   -3.012122
      2          8           0        3.279429    2.671716    3.548880
      3          8           0        3.901283    0.671519    4.475445
      4          8           0        7.638526   -1.595263   -0.922016
      5          8           0        6.580746   -2.514682   -2.819678
      6          8           0       -2.683279    1.329832    1.508549
      7          7           0       -0.228561   -2.501305    0.539434
      8          7           0       -2.669826   -1.079009   -0.720238
      9          7           0        1.080076    0.199217   -0.659390
     10          7           0       -1.071144    1.560062   -0.027862
     11          6           0       -3.322840   -1.494225    0.484953
     12          6           0       -2.526277   -2.672322    1.286988
     13          6           0       -1.186879   -2.343127    1.543298
     14          6           0       -0.565513   -1.511379    2.612400
     15          6           0        0.796573   -1.382994    2.296151
     16          6           0        1.022775   -2.007374    1.079371
     17          6           0       -4.674906   -2.005133    0.021921
     18          6           0        1.872384   -0.844933    3.172281
     19          6           0       -4.835533   -1.984985   -1.280193
     20          6           0        2.112339   -1.841862    0.141017
     21          6           0        2.119500   -0.745756   -0.725660
     22          6           0       -3.574667   -1.224416   -1.872293
     23          6           0        3.101903   -0.345009   -1.767076
     24          6           0       -1.309736   -1.220364    3.831978
     25          6           0       -5.815446   -2.301683    1.041874
     26          6           0        2.471045    0.843709   -2.355661
     27          6           0        2.179018    0.662310    2.756741
     28          6           0        1.302510    1.217750   -1.632523
     29          6           0        4.165892   -1.069149   -2.194024
     30          6           0       -5.912918   -2.190913   -2.199099
     31          6           0        5.491551   -0.924270   -1.340729
     32          6           0        3.090686    1.515913   -3.441945
     33          6           0        0.489042    2.302589   -1.802245
     34          6           0        3.157599    1.361692    3.701669
     35          6           0       -0.660330    2.448850   -0.973191
     36          6           0       -7.006133   -3.023104   -1.982931
     37          6           0        6.626758   -1.815747   -1.748095
     38          6           0       -1.576268    3.699475   -0.786409
     39          6           0       -2.329955    3.373789    0.288973
     40          6           0       -2.108142    2.013399    0.715775
     41          6           0       -1.406027    4.908320   -1.582600
     42          6           0       -3.556868    4.246704    0.760391
     43          6           0       -1.993729    6.137494   -1.497351
     44          1           0       -3.244181   -0.654546    1.167445
     45          1           0       -2.747006   -3.711717    0.724499
     46          1           0       -2.852058   -2.748490    2.345073
     47          1           0       -0.510276   -2.938767   -0.321316
     48          1           0       -1.779538   -0.490087   -0.749704
     49          1           0        1.744259   -1.079267    4.254899
     50          1           0        2.887448   -1.284478    2.928593
     51          1           0        3.009467   -2.665707    0.216984
     52          1           0       -1.960280   -2.191142    4.120008
     53          1           0       -0.671660   -0.960663    4.719863
     54          1           0       -1.915921   -0.338121    3.803201
     55          1           0       -5.370618   -1.849530    2.005106
     56          1           0       -5.961073   -3.431459    0.992694
     57          1           0       -6.628818   -1.780380    0.692343
     58          1           0        2.619735    0.796309    1.691747
     59          1           0        1.172189    1.231163    2.789788
     60          1           0        0.203084    0.368374    0.044780
     61          1           0        4.666727   -0.613315   -3.200725
     62          1           0        3.992392   -2.324194   -2.395716
     63          1           0       -5.966275   -1.753729   -3.205211
     64          1           0        5.286200   -1.257890   -0.405814
     65          1           0        5.861913    0.207749   -1.217139
     66          1           0        3.648751    0.794142   -4.131135
     67          1           0        4.090718    2.214128   -3.255109
     68          1           0        2.181611    2.106480   -4.065780
     69          1           0        0.588551    3.268396   -2.569013
     70          1           0       -6.965479   -3.472894   -0.801967
     71          1           0       -7.852913   -3.151926   -2.616427
     72          1           0        3.767112    2.964878    4.244641
     73          1           0       -0.753773    4.814995   -2.470498
     74          1           0       -4.162200    4.760283   -0.074623
     75          1           0       -4.272921    3.446985    1.443152
     76          1           0       -3.058296    4.931786    1.558319
     77          1           0        8.351099   -2.133313   -1.282112
     78          1           0       -1.794526    6.917064   -2.063744
     79          1           0       -2.501153    6.436541   -0.395731
 ---------------------------------------------------------------------

 SCF Done:  E(RB3LYP) =  -1947.78396101     A.U. after   17 cycles

 Excitation energies and oscillator strengths:

 Excited State   1:      Singlet-A      0.9047 eV 1370.39 nm  f=0.0035  <S**2>=0.000
     155 ->156         0.70400
 This state for optimization and/or second-order correction.
 Total Energy, E(TD-HF/TD-DFT) =  -1947.75071266
 Copying the excited state density for this state as the 1-particle RhoCI density.

 The electronic state is 1-A.
 Alpha  occ. eigenvalues --  -19.21869 -19.19321 -19.14263 -19.11968 -19.11947
 Alpha  occ. eigenvalues --  -19.09199 -14.36954 -14.36681 -14.32454 -14.30551
 Alpha  occ. eigenvalues --  -10.34292 -10.32431 -10.27582 -10.27531 -10.26457
 Alpha  occ. eigenvalues --  -10.25695 -10.25691 -10.23393 -10.23333 -10.22976
 Alpha  occ. eigenvalues --  -10.22859 -10.22502 -10.22477 -10.22252 -10.22048
 Alpha  occ. eigenvalues --  -10.21905 -10.21841 -10.21788 -10.21612 -10.21132
 Alpha  occ. eigenvalues --  -10.21078 -10.20599 -10.20540 -10.20012 -10.19900
 Alpha  occ. eigenvalues --  -10.19862 -10.19734 -10.19561 -10.19400 -10.18710
 Alpha  occ. eigenvalues --  -10.18449 -10.17959 -10.17615  -1.12620  -1.11664
 Alpha  occ. eigenvalues --   -1.04703  -1.00120  -0.99734  -0.98173  -0.97071
 Alpha  occ. eigenvalues --   -0.94785  -0.93604  -0.90228  -0.84175  -0.82404
 Alpha  occ. eigenvalues --   -0.80844  -0.80567  -0.80247  -0.78937  -0.78297
 Alpha  occ. eigenvalues --   -0.76148  -0.75664  -0.74948  -0.74191  -0.73287
 Alpha  occ. eigenvalues --   -0.70743  -0.69382  -0.69143  -0.68828  -0.67701
 Alpha  occ. eigenvalues --   -0.66507  -0.65180  -0.62992  -0.62369  -0.61195
 Alpha  occ. eigenvalues --   -0.60895  -0.58834  -0.58534  -0.55740  -0.55671
 Alpha  occ. eigenvalues --   -0.55280  -0.55083  -0.54024  -0.53341  -0.52864
 Alpha  occ. eigenvalues --   -0.51673  -0.50918  -0.50755  -0.50206  -0.49766
 Alpha  occ. eigenvalues --   -0.49154  -0.48742  -0.48364  -0.47872  -0.47779
 Alpha  occ. eigenvalues --   -0.47288  -0.46875  -0.46421  -0.46082  -0.45831
 Alpha  occ. eigenvalues --   -0.45520  -0.45019  -0.44840  -0.44312  -0.44237
 Alpha  occ. eigenvalues --   -0.43551  -0.43320  -0.42590  -0.42454  -0.42022
 Alpha  occ. eigenvalues --   -0.41549  -0.41113  -0.41085  -0.40600  -0.40574
 Alpha  occ. eigenvalues --   -0.40264  -0.40183  -0.39933  -0.39738  -0.39186
 Alpha  occ. eigenvalues --   -0.38835  -0.38579  -0.38234  -0.37729  -0.37483
 Alpha  occ. eigenvalues --   -0.37275  -0.37165  -0.36667  -0.36070  -0.35979
 Alpha  occ. eigenvalues --   -0.35795  -0.35162  -0.34530  -0.34204  -0.33909
 Alpha  occ. eigenvalues --   -0.33470  -0.33367  -0.32946  -0.32606  -0.31894
 Alpha  occ. eigenvalues --   -0.31529  -0.30573  -0.29261  -0.28962  -0.28427
 Alpha  occ. eigenvalues --   -0.27150  -0.26235  -0.25338  -0.24191  -0.24044
 Alpha  occ. eigenvalues --   -0.23738  -0.23251  -0.22510  -0.22016  -0.18561
 Alpha virt. eigenvalues --   -0.12796  -0.08197  -0.04193  -0.02911  -0.02355
 Alpha virt. eigenvalues --   -0.00973   0.00124   0.01196   0.02544   0.02651
 Alpha virt. eigenvalues --    0.03503   0.04018   0.04430   0.04518   0.04713

 Mulliken charges:
               1
     1  O   -0.230937
     2  O   -0.097057
     3  O   -0.297826
     4  O   -0.129833
     5  O   -0.284569
     6  O   -0.170160
     7  N   -0.123398
     8  N   -0.295225
     9  N   -0.212849
    10  N   -0.320106
    11  C    0.140146
    12  C    0.118746
    13  C   -0.094158
    14  C   -0.099660
    15  C   -0.065958
    16  C    0.035640
    17  C   -0.209657
    18  C    0.098128
    19  C    0.004636
    20  C   -0.155470
    21  C    0.144579
    22  C    0.175670
    23  C    0.079038
    24  C    0.051991
    25  C    0.100433
    26  C   -0.069728
    27  C   -0.078557
    28  C    0.223059
    29  C   -0.109143
    30  C   -0.040913
    31  C   -0.001372
    32  C   -0.059699
    33  C   -0.157172
    34  C    0.141512
    35  C    0.053426
    36  C   -0.071727
    37  C    0.156632
    38  C    0.088781
    39  C   -0.224658
    40  C    0.170161
    41  C   -0.041845
    42  C   -0.030707
    43  C   -0.006860
    44  H    0.031148
    45  H    0.008869
    46  H   -0.013196
    47  H    0.115430
    48  H    0.151335
    49  H    0.031339
    50  H    0.003984
    51  H    0.048292
    52  H    0.039166
    53  H   -0.008119
    54  H    0.019288
    55  H    0.036689
    56  H    0.058584
    57  H    0.021106
    58  H    0.072312
    59  H    0.050982
    60  H    0.246051
    61  H    0.038925
    62  H    0.084370
    63  H    0.013637
    64  H    0.001792
    65  H    0.069390
    66  H    0.040205
    67  H    0.054308
    68  H    0.055550
    69  H    0.047013
    70  H    0.022292
    71  H    0.022477
    72  H    0.142508
    73  H   -0.000664
    74  H    0.071086
    75  H    0.055183
    76  H    0.049415
    77  H    0.180353
    78  H   -0.013800
    79  H    0.049367
 Sum of Mulliken charges =  -0.00000

 Dipole moment (field-independent basis, Debye):
    X=              4.2710    Y=              3.2734    Z=              0.3710  Tot=              5.3939
 Quadrupole moment (field-independent basis, Debye-Ang):
   XX=           -231.3697   YY=           -232.5496   ZZ=           -272.6473
   XY=              5.1557   XZ=            -15.5472   YZ=             -7.4166

 Normal termination of Gaussian 16 at Thu Jul 25 14:38:53 2019.
