 Gaussian 16, Revision A.03,
 Gaussian 16:  ES64L-G16RevA.03 25-Dec-2016

 --------------------------
 # td=(NStates=1) B3LYP/SVP
 --------------------------

 --
 TD
 --
 Symbolic Z-matrix:
 Charge =  0 Multiplicity = 1

                         Standard orientation:
 ---------------------------------------------------------------------
 Center     Atomic      Atomic             Coordinates (Angstroms)
 Number     Number       Type             X           Y           Z
 ---------------------------------------------------------------------
      1          8           0        5.476273   -0.343368   -3.327566
      2          8           0       -3.165185   -2.736309    3.531767
      3          8           0       -3.483636   -0.549008    2.937286
      4          8           0       -1.057277    7.231323    1.479335
      5          8           0        0.137210    6.917866   -0.397571
      6          8           0       -2.004355   -3.892965    0.078649
      7          7           0        2.343956    0.822017    0.649828
      8          7           0        4.290063   -0.759040   -1.281451
      9          7           0       -1.703169    0.757918   -0.539120
     10          7           0       -2.761244   -1.776178   -0.422768
     11          6           0        4.562751   -1.482658    0.013961
     12          6           0        4.246882   -0.591685    1.223681
     13          6           0        2.880683   -0.244134    1.378604
     14          6           0        1.886842   -0.793134    2.084860
     15          6           0        0.692221   -0.118533    1.730341
     16          6           0        1.086280    0.900342    0.696087
     17          6           0        6.170868   -1.607201   -0.136767
     18          6           0       -0.668184   -0.182512    2.465180
     19          6           0        6.568577   -0.960133   -1.244709
     20          6           0        0.330696    1.951432    0.130461
     21          6           0       -0.988755    1.882852   -0.349364
     22          6           0        5.402021   -0.663406   -2.109424
     23          6           0       -1.759275    3.022408   -0.910547
     24          6           0        1.909697   -1.894528    2.983853
     25          6           0        6.794845   -2.436200    0.863067
     26          6           0       -3.035144    2.501790   -1.221869
     27          6           0       -1.309281   -1.642747    2.593659
     28          6           0       -2.981889    1.041681   -0.993325
     29          6           0       -1.332688    4.409000   -0.920667
     30          6           0        7.899165   -0.854255   -1.876571
     31          6           0       -1.426630    5.168023    0.415357
     32          6           0       -4.200571    3.252385   -1.836037
     33          6           0       -3.990555    0.093442   -1.357211
     34          6           0       -2.716020   -1.517138    2.889183
     35          6           0       -3.850715   -1.396921   -1.077388
     36          6           0        9.093285   -0.943114   -1.314100
     37          6           0       -0.630083    6.525880    0.400731
     38          6           0       -4.680461   -2.453562   -1.524155
     39          6           0       -4.129912   -3.578464   -1.038532
     40          6           0       -2.818413   -3.121514   -0.429893
     41          6           0       -5.880291   -2.259909   -2.168799
     42          6           0       -4.481319   -5.020471   -1.248351
     43          6           0       -6.791552   -3.080183   -2.716998
     44          1           0        4.230767   -2.515214   -0.056849
     45          1           0        4.680085    0.352738    1.180644
     46          1           0        4.622852   -1.059437    2.118874
     47          1           0        2.910537    1.180563   -0.137643
     48          1           0        3.409877   -0.940423   -1.647413
     49          1           0       -0.519795    0.074463    3.544636
     50          1           0       -1.541510    0.596652    2.086135
     51          1           0        0.909949    3.004170   -0.275799
     52          1           0        2.885912   -2.224837    3.174511
     53          1           0        1.469544   -1.433205    3.771462
     54          1           0        1.137639   -2.549043    2.609953
     55          1           0        6.206591   -3.091812    1.394012
     56          1           0        7.503084   -1.652916    1.540547
     57          1           0        7.699881   -3.081946    0.367980
     58          1           0       -1.187070   -2.320161    1.660518
     59          1           0       -0.902610   -2.304776    3.334049
     60          1           0       -1.384985   -0.390376   -0.327379
     61          1           0       -1.804133    5.084272   -1.622452
     62          1           0       -0.347854    4.325835   -1.242421
     63          1           0        7.901802   -0.493355   -2.763681
     64          1           0       -0.981530    4.486523    1.244105
     65          1           0       -2.480596    5.336501    0.695388
     66          1           0       -3.836930    4.325897   -2.105089
     67          1           0       -4.975658    3.422376   -1.077620
     68          1           0       -4.680491    2.765115   -2.777361
     69          1           0       -4.924059    0.398652   -1.760188
     70          1           0        9.303772   -1.025536   -0.234983
     71          1           0        9.890034   -0.695520   -1.814592
     72          1           0       -4.108917   -2.798869    3.881408
     73          1           0       -6.111098   -1.149866   -2.136780
     74          1           0       -5.647547   -5.331025   -0.990912
     75          1           0       -4.240873   -5.528705   -2.269963
     76          1           0       -4.102908   -5.609412   -0.524661
     77          1           0       -0.333123    8.149246    1.532715
     78          1           0       -7.609656   -2.867526   -3.343780
     79          1           0       -6.570942   -4.213358   -2.653880
 ---------------------------------------------------------------------

 SCF Done:  E(RB3LYP) =  -1947.81428710     A.U. after   18 cycles

 Excitation energies and oscillator strengths:

 Excited State   1:      Singlet-A      1.8921 eV  655.28 nm  f=0.4270  <S**2>=0.000
     155 ->156         0.70762
     155 <-156        -0.14058
 This state for optimization and/or second-order correction.
 Total Energy, E(TD-HF/TD-DFT) =  -1947.74475461
 Copying the excited state density for this state as the 1-particle RhoCI density.

 The electronic state is 1-A.
 Alpha  occ. eigenvalues --  -19.19354 -19.14111 -19.14080 -19.11453 -19.10806
 Alpha  occ. eigenvalues --  -19.09869 -14.38230 -14.37061 -14.36095 -14.29167
 Alpha  occ. eigenvalues --  -10.32603 -10.30840 -10.29469 -10.26099 -10.25832
 Alpha  occ. eigenvalues --  -10.24954 -10.24251 -10.23673 -10.23160 -10.23061
 Alpha  occ. eigenvalues --  -10.22841 -10.22835 -10.21908 -10.21601 -10.21312
 Alpha  occ. eigenvalues --  -10.21152 -10.21149 -10.21081 -10.21020 -10.20398
 Alpha  occ. eigenvalues --  -10.19863 -10.19763 -10.19761 -10.19633 -10.19528
 Alpha  occ. eigenvalues --  -10.19516 -10.19401 -10.19307 -10.18756 -10.18680
 Alpha  occ. eigenvalues --  -10.18301 -10.18294 -10.17896  -1.09885  -1.03834
 Alpha  occ. eigenvalues --   -1.01410  -1.01025  -1.00977  -1.00922  -0.97356
 Alpha  occ. eigenvalues --   -0.95721  -0.93866  -0.93663  -0.84106  -0.83031
 Alpha  occ. eigenvalues --   -0.82432  -0.81662  -0.81635  -0.79646  -0.78031
 Alpha  occ. eigenvalues --   -0.77153  -0.76434  -0.75549  -0.74105  -0.72946
 Alpha  occ. eigenvalues --   -0.72726  -0.71520  -0.70096  -0.69704  -0.67223
 Alpha  occ. eigenvalues --   -0.67042  -0.66193  -0.63973  -0.62333  -0.61031
 Alpha  occ. eigenvalues --   -0.59693  -0.58961  -0.57996  -0.57615  -0.56176
 Alpha  occ. eigenvalues --   -0.56001  -0.55151  -0.54959  -0.53892  -0.53599
 Alpha  occ. eigenvalues --   -0.52100  -0.51736  -0.51592  -0.49897  -0.49787
 Alpha  occ. eigenvalues --   -0.49568  -0.49315  -0.48797  -0.48557  -0.48150
 Alpha  occ. eigenvalues --   -0.47410  -0.46794  -0.46328  -0.45861  -0.45498
 Alpha  occ. eigenvalues --   -0.45144  -0.44876  -0.44694  -0.44389  -0.44125
 Alpha  occ. eigenvalues --   -0.43807  -0.43575  -0.43126  -0.42772  -0.42668
 Alpha  occ. eigenvalues --   -0.42121  -0.41999  -0.41830  -0.41229  -0.41121
 Alpha  occ. eigenvalues --   -0.40529  -0.40308  -0.40131  -0.39757  -0.39700
 Alpha  occ. eigenvalues --   -0.39410  -0.39310  -0.39041  -0.38913  -0.38442
 Alpha  occ. eigenvalues --   -0.38249  -0.37867  -0.37631  -0.37057  -0.36975
 Alpha  occ. eigenvalues --   -0.35939  -0.35732  -0.34983  -0.34680  -0.34470
 Alpha  occ. eigenvalues --   -0.33585  -0.33210  -0.33020  -0.32481  -0.31795
 Alpha  occ. eigenvalues --   -0.30758  -0.29459  -0.29339  -0.28521  -0.28310
 Alpha  occ. eigenvalues --   -0.27855  -0.26115  -0.26099  -0.25238  -0.25123
 Alpha  occ. eigenvalues --   -0.24564  -0.23870  -0.23365  -0.22436  -0.18240
 Alpha virt. eigenvalues --   -0.11115  -0.06782  -0.06041  -0.00990  -0.00704
 Alpha virt. eigenvalues --    0.00179   0.00279   0.00452   0.01536   0.02329
 Alpha virt. eigenvalues --    0.03814   0.04043   0.04714   0.05550   0.05627

 Mulliken charges:
               1
     1  O   -0.260088
     2  O   -0.307737
     3  O   -0.237652
     4  O   -0.277069
     5  O   -0.178480
     6  O   -0.224662
     7  N    0.014632
     8  N   -0.195516
     9  N   -0.145097
    10  N   -0.229814
    11  C    0.067163
    12  C    0.291791
    13  C   -0.152540
    14  C   -0.155135
    15  C   -0.102744
    16  C    0.008114
    17  C   -0.202229
    18  C   -0.016848
    19  C   -0.006128
    20  C   -0.143090
    21  C    0.053394
    22  C    0.173145
    23  C   -0.088704
    24  C    0.261461
    25  C    0.035352
    26  C   -0.129141
    27  C   -0.024364
    28  C    0.151670
    29  C    0.144538
    30  C    0.076242
    31  C   -0.046380
    32  C    0.055793
    33  C   -0.085563
    34  C    0.184634
    35  C    0.038438
    36  C    0.027153
    37  C    0.146158
    38  C    0.111693
    39  C   -0.176339
    40  C    0.116519
    41  C   -0.054648
    42  C    0.063560
    43  C   -0.032386
    44  H    0.030351
    45  H   -0.030777
    46  H   -0.014361
    47  H    0.120975
    48  H    0.109967
    49  H    0.021849
    50  H    0.082357
    51  H    0.043527
    52  H   -0.021124
    53  H   -0.019900
    54  H    0.034829
    55  H    0.013096
    56  H    0.066970
    57  H    0.058356
    58  H    0.088684
    59  H    0.027915
    60  H    0.242187
    61  H    0.001659
    62  H   -0.013489
    63  H   -0.066640
    64  H    0.055659
    65  H    0.040271
    66  H    0.020703
    67  H    0.030889
    68  H    0.051582
    69  H   -0.039627
    70  H    0.003223
    71  H   -0.022946
    72  H    0.195983
    73  H   -0.008680
    74  H    0.024064
    75  H    0.056312
    76  H   -0.014760
    77  H    0.244463
    78  H    0.014440
    79  H    0.022893
 Sum of Mulliken charges =  -0.00000

 Dipole moment (field-independent basis, Debye):
    X=              1.9587    Y=              1.5322    Z=              3.2831  Tot=              4.1186
 Quadrupole moment (field-independent basis, Debye-Ang):
   XX=           -227.6907   YY=           -239.7111   ZZ=           -263.5041
   XY=             -9.9250   XZ=             36.5089   YZ=              3.4559

 Normal termination of Gaussian 16 at Wed Oct  9 20:11:53 2019.
