 Gaussian 16, Revision A.03,
 Gaussian 16:  ES64L-G16RevA.03 25-Dec-2016

 --------------------------
 # td=(NStates=1) B3LYP/SVP
 --------------------------

 --
 TD
 --
 Symbolic Z-matrix:
 Charge =  0 Multiplicity = 1

                         Standard orientation:
 ---------------------------------------------------------------------
 Center     Atomic      Atomic             Coordinates (Angstroms)
 Number     Number       Type             X           Y           Z
 ---------------------------------------------------------------------
      1          8           0        5.429564   -0.042176   -3.285768
      2          8           0       -3.016804   -3.030126    3.271013
      3          8           0       -3.455765   -0.857792    2.941088
      4          8           0       -1.175818    7.077259    1.776312
      5          8           0       -0.655100    7.186771   -0.396606
      6          8           0       -1.964581   -3.944826    0.068798
      7          7           0        2.389219    0.851100    0.609025
      8          7           0        4.358957   -0.529101   -1.225039
      9          7           0       -1.781437    0.685197   -0.505446
     10          7           0       -2.571363   -1.726593   -0.572623
     11          6           0        4.696258   -1.253438   -0.082490
     12          6           0        4.336471   -0.449356    1.320685
     13          6           0        2.965774   -0.137037    1.374160
     14          6           0        1.931066   -0.745120    2.167261
     15          6           0        0.646126   -0.169214    1.685895
     16          6           0        1.020504    0.809327    0.727842
     17          6           0        6.216162   -1.435847   -0.163915
     18          6           0       -0.701541   -0.345273    2.426923
     19          6           0        6.632741   -0.921917   -1.380202
     20          6           0        0.254317    1.814636    0.020315
     21          6           0       -1.076992    1.831559   -0.403103
     22          6           0        5.432846   -0.395437   -2.097145
     23          6           0       -1.849412    2.954219   -0.864489
     24          6           0        2.056927   -1.831281    3.228740
     25          6           0        6.997092   -2.062891    0.813867
     26          6           0       -2.995861    2.449522   -1.376056
     27          6           0       -1.144001   -1.665637    2.643417
     28          6           0       -3.036064    1.006916   -1.183020
     29          6           0       -1.306049    4.375902   -0.819044
     30          6           0        7.945561   -0.794097   -2.042126
     31          6           0       -1.583909    5.128545    0.468454
     32          6           0       -4.169683    3.209583   -1.872124
     33          6           0       -3.996051    0.075366   -1.371724
     34          6           0       -2.667778   -1.765167    3.003684
     35          6           0       -3.756031   -1.344709   -1.184466
     36          6           0        9.117306   -0.995071   -1.383730
     37          6           0       -1.069630    6.636000    0.556877
     38          6           0       -4.648082   -2.460069   -1.600536
     39          6           0       -3.966458   -3.586723   -1.113615
     40          6           0       -2.758040   -3.185669   -0.458900
     41          6           0       -5.874590   -2.332680   -2.296764
     42          6           0       -4.408024   -5.054528   -1.060100
     43          6           0       -6.759565   -3.267568   -2.554015
     44          1           0        4.275310   -2.260966   -0.058253
     45          1           0        4.916589    0.546976    1.099763
     46          1           0        4.489983   -1.176843    2.106887
     47          1           0        3.020298    1.313532    0.037706
     48          1           0        3.428518   -0.703799   -1.523572
     49          1           0       -0.521226    0.096822    3.549835
     50          1           0       -1.481309    0.299836    2.149402
     51          1           0        0.696219    2.893574   -0.014069
     52          1           0        2.938467   -1.528156    4.002604
     53          1           0        1.153092   -1.712604    4.005406
     54          1           0        2.057691   -2.935616    2.861032
     55          1           0        6.567066   -2.816861    1.318130
     56          1           0        7.512796   -1.555364    1.424748
     57          1           0        7.755384   -2.775903    0.270468
     58          1           0       -1.182189   -2.433065    1.811895
     59          1           0       -0.632187   -2.260148    3.401692
     60          1           0       -1.658781   -0.226698   -0.100111
     61          1           0       -1.814067    4.986212   -1.526698
     62          1           0       -0.342731    4.555648   -0.900866
     63          1           0        7.826712   -0.392007   -3.221514
     64          1           0       -1.132672    4.605745    1.110971
     65          1           0       -2.606489    5.237223    0.851662
     66          1           0       -4.065161    4.401525   -1.735282
     67          1           0       -5.119143    2.796038   -1.438641
     68          1           0       -4.281141    2.881455   -3.024442
     69          1           0       -4.980764    0.229572   -1.917755
     70          1           0        9.331099   -1.420750   -0.398158
     71          1           0        9.931961   -1.058577   -1.979930
     72          1           0       -4.008143   -2.822803    3.562643
     73          1           0       -6.299723   -1.406577   -2.453689
     74          1           0       -5.298308   -5.198642   -0.536251
     75          1           0       -4.605544   -5.475415   -2.085082
     76          1           0       -3.828895   -5.790038   -0.549069
     77          1           0       -0.865477    8.081298    1.689164
     78          1           0       -7.689638   -3.223938   -3.104322
     79          1           0       -6.435510   -4.384866   -2.609746
 ---------------------------------------------------------------------

 SCF Done:  E(RB3LYP) =  -1947.83314573     A.U. after   17 cycles

 Excitation energies and oscillator strengths:

 Excited State   1:      Singlet-A      1.8410 eV  673.46 nm  f=0.3901  <S**2>=0.000
     155 ->156         0.69900
     155 <-156        -0.12028
 This state for optimization and/or second-order correction.
 Total Energy, E(TD-HF/TD-DFT) =  -1947.76549045
 Copying the excited state density for this state as the 1-particle RhoCI density.

 The electronic state is 1-A.
 Alpha  occ. eigenvalues --  -19.20683 -19.17711 -19.13339 -19.11533 -19.10760
 Alpha  occ. eigenvalues --  -19.10512 -14.37740 -14.35971 -14.34816 -14.29103
 Alpha  occ. eigenvalues --  -10.32360 -10.30360 -10.28921 -10.26141 -10.24847
 Alpha  occ. eigenvalues --  -10.24234 -10.23531 -10.23390 -10.23094 -10.22366
 Alpha  occ. eigenvalues --  -10.22193 -10.21972 -10.21935 -10.21769 -10.21549
 Alpha  occ. eigenvalues --  -10.21414 -10.21082 -10.20673 -10.20576 -10.20272
 Alpha  occ. eigenvalues --  -10.20169 -10.20075 -10.19878 -10.19785 -10.19688
 Alpha  occ. eigenvalues --  -10.19508 -10.19361 -10.19141 -10.18827 -10.18819
 Alpha  occ. eigenvalues --  -10.18764 -10.18186 -10.18168  -1.12243  -1.08748
 Alpha  occ. eigenvalues --   -1.03211  -1.02049  -1.01449  -0.99292  -0.98644
 Alpha  occ. eigenvalues --   -0.96648  -0.95523  -0.90162  -0.83224  -0.82771
 Alpha  occ. eigenvalues --   -0.81608  -0.81004  -0.80700  -0.79877  -0.78011
 Alpha  occ. eigenvalues --   -0.77239  -0.76735  -0.75642  -0.74264  -0.72952
 Alpha  occ. eigenvalues --   -0.71886  -0.70001  -0.69950  -0.68570  -0.68024
 Alpha  occ. eigenvalues --   -0.66236  -0.66033  -0.64183  -0.62126  -0.60829
 Alpha  occ. eigenvalues --   -0.60128  -0.58764  -0.58528  -0.57610  -0.57122
 Alpha  occ. eigenvalues --   -0.55782  -0.55341  -0.54846  -0.54104  -0.53400
 Alpha  occ. eigenvalues --   -0.52316  -0.51715  -0.51302  -0.50765  -0.50198
 Alpha  occ. eigenvalues --   -0.49501  -0.49290  -0.48729  -0.47885  -0.47670
 Alpha  occ. eigenvalues --   -0.47568  -0.47068  -0.46889  -0.46513  -0.46379
 Alpha  occ. eigenvalues --   -0.45296  -0.45174  -0.44915  -0.44639  -0.44349
 Alpha  occ. eigenvalues --   -0.43896  -0.43181  -0.42986  -0.42816  -0.42556
 Alpha  occ. eigenvalues --   -0.42057  -0.41692  -0.41541  -0.41172  -0.41045
 Alpha  occ. eigenvalues --   -0.40640  -0.40051  -0.39866  -0.39682  -0.39470
 Alpha  occ. eigenvalues --   -0.39427  -0.38799  -0.38647  -0.38447  -0.38138
 Alpha  occ. eigenvalues --   -0.37990  -0.37908  -0.37551  -0.37397  -0.36899
 Alpha  occ. eigenvalues --   -0.36337  -0.35824  -0.35536  -0.34981  -0.34190
 Alpha  occ. eigenvalues --   -0.33834  -0.33572  -0.32914  -0.31609  -0.31401
 Alpha  occ. eigenvalues --   -0.31262  -0.31154  -0.28583  -0.28440  -0.28105
 Alpha  occ. eigenvalues --   -0.27473  -0.26833  -0.25738  -0.25444  -0.24377
 Alpha  occ. eigenvalues --   -0.24042  -0.23878  -0.23316  -0.22011  -0.18262
 Alpha virt. eigenvalues --   -0.11074  -0.06730  -0.06025  -0.00915   0.00115
 Alpha virt. eigenvalues --    0.00737   0.01573   0.01992   0.02347   0.02923
 Alpha virt. eigenvalues --    0.03995   0.04432   0.04636   0.05441   0.05547

 Mulliken charges:
               1
     1  O   -0.240655
     2  O   -0.203530
     3  O   -0.233236
     4  O   -0.170651
     5  O   -0.195359
     6  O   -0.194885
     7  N   -0.022190
     8  N   -0.142061
     9  N   -0.098339
    10  N   -0.349454
    11  C    0.029672
    12  C    0.222788
    13  C   -0.132050
    14  C   -0.123641
    15  C   -0.049249
    16  C    0.083387
    17  C   -0.190142
    18  C    0.101884
    19  C   -0.050605
    20  C   -0.088407
    21  C    0.029292
    22  C    0.153972
    23  C   -0.054954
    24  C   -0.022838
    25  C    0.211362
    26  C   -0.106150
    27  C   -0.023808
    28  C    0.189058
    29  C    0.225565
    30  C   -0.055812
    31  C    0.033076
    32  C    0.018486
    33  C   -0.122173
    34  C    0.107380
    35  C    0.036111
    36  C    0.004601
    37  C    0.092768
    38  C    0.109206
    39  C   -0.167876
    40  C    0.172967
    41  C    0.010871
    42  C    0.115777
    43  C   -0.059592
    44  H    0.020286
    45  H    0.008794
    46  H   -0.010476
    47  H    0.087892
    48  H    0.127655
    49  H    0.019264
    50  H   -0.001413
    51  H    0.007156
    52  H    0.033054
    53  H    0.036192
    54  H    0.064018
    55  H   -0.034380
    56  H   -0.018935
    57  H    0.028377
    58  H    0.063331
    59  H    0.006629
    60  H    0.138609
    61  H   -0.012674
    62  H   -0.041996
    63  H    0.075145
    64  H   -0.050519
    65  H    0.022578
    66  H    0.052378
    67  H    0.038946
    68  H    0.039182
    69  H   -0.013129
    70  H    0.018682
    71  H   -0.005054
    72  H    0.199461
    73  H   -0.036314
    74  H    0.002900
    75  H    0.027285
    76  H    0.004916
    77  H    0.211478
    78  H    0.020324
    79  H    0.019795
 Sum of Mulliken charges =  -0.00000

 Dipole moment (field-independent basis, Debye):
    X=             -0.0471    Y=              1.2412    Z=              3.8036  Tot=              4.0013
 Quadrupole moment (field-independent basis, Debye-Ang):
   XX=           -218.7590   YY=           -236.3983   ZZ=           -260.5879
   XY=            -10.7168   XZ=             32.4937   YZ=              8.9988

 Normal termination of Gaussian 16 at Thu Oct  3 19:45:21 2019.
