 Gaussian 16, Revision A.03,
 Gaussian 16:  ES64L-G16RevA.03 25-Dec-2016

 --------------------------
 # td=(NStates=1) B3LYP/SVP
 --------------------------

 --
 TD
 --
 Symbolic Z-matrix:
 Charge =  0 Multiplicity = 1

                         Standard orientation:
 ---------------------------------------------------------------------
 Center     Atomic      Atomic             Coordinates (Angstroms)
 Number     Number       Type             X           Y           Z
 ---------------------------------------------------------------------
      1          8           0       -3.220602   -1.523953   -2.757130
      2          8           0        2.611229    3.448333    3.303834
      3          8           0        3.903997    1.598869    4.257298
      4          8           0        7.782292   -1.535613   -0.543759
      5          8           0        6.738350   -2.907643   -2.070844
      6          8           0       -2.515718    1.631081    1.421743
      7          7           0       -0.151681   -2.408131    0.980435
      8          7           0       -2.732759   -1.196591   -0.567027
      9          7           0        1.232980    0.128781   -0.662790
     10          7           0       -0.977408    1.418529   -0.249445
     11          6           0       -3.371553   -1.306742    0.706549
     12          6           0       -2.638071   -2.396601    1.668965
     13          6           0       -1.068230   -1.946201    1.786623
     14          6           0       -0.527064   -1.159730    2.837228
     15          6           0        0.844319   -0.986945    2.511371
     16          6           0        1.018763   -1.829286    1.225718
     17          6           0       -4.696977   -1.974021    0.340360
     18          6           0        1.859946   -0.154736    3.136731
     19          6           0       -4.759581   -2.144979   -0.961132
     20          6           0        2.121685   -1.871742    0.309398
     21          6           0        2.172785   -0.907702   -0.649461
     22          6           0       -3.432431   -1.615862   -1.555156
     23          6           0        3.110297   -0.670343   -1.739970
     24          6           0       -1.419830   -0.526932    3.879726
     25          6           0       -5.816130   -2.223092    1.323236
     26          6           0        2.611313    0.420557   -2.490101
     27          6           0        1.845584    1.227027    2.778209
     28          6           0        1.452758    0.829069   -1.834301
     29          6           0        4.286945   -1.542147   -1.994381
     30          6           0       -5.768936   -2.593517   -1.844933
     31          6           0        5.546546   -1.132161   -1.104667
     32          6           0        3.079933    0.997751   -3.753174
     33          6           0        0.424593    1.936127   -2.107097
     34          6           0        2.890925    2.009991    3.500287
     35          6           0       -0.685176    2.181848   -1.307719
     36          6           0       -6.906729   -3.352923   -1.670342
     37          6           0        6.757360   -1.998803   -1.359685
     38          6           0       -1.553880    3.429367   -1.419928
     39          6           0       -2.422939    3.314645   -0.337995
     40          6           0       -2.066176    2.076016    0.388523
     41          6           0       -1.442710    4.536459   -2.339360
     42          6           0       -3.450631    4.301884    0.114968
     43          6           0       -2.044252    5.685865   -2.570712
     44          1           0       -3.592593   -0.302883    1.210804
     45          1           0       -2.885888   -3.479318    1.228590
     46          1           0       -3.030984   -2.209127    2.559557
     47          1           0       -0.401240   -2.993967    0.119552
     48          1           0       -2.163755   -0.429236   -0.704580
     49          1           0        1.660461   -0.450635    4.306937
     50          1           0        2.691637   -0.903877    2.890536
     51          1           0        3.048970   -2.679977    0.349243
     52          1           0       -1.942264   -1.386231    4.463508
     53          1           0       -0.802520    0.119810    4.596181
     54          1           0       -2.367682    0.210392    3.558616
     55          1           0       -5.746068   -1.480938    2.022799
     56          1           0       -5.446449   -3.013794    1.829453
     57          1           0       -6.825586   -2.368072    0.888792
     58          1           0        2.005198    1.356074    1.777317
     59          1           0        0.842584    1.840180    3.080768
     60          1           0        0.183810    0.344988   -0.307560
     61          1           0        4.687277   -1.721045   -2.923294
     62          1           0        4.129202   -2.654788   -1.728552
     63          1           0       -5.467569   -2.154613   -2.824858
     64          1           0        5.251148   -1.224179    0.020245
     65          1           0        5.770606   -0.069077   -1.247297
     66          1           0        4.284186    0.584227   -3.833326
     67          1           0        3.081627    2.131613   -3.817254
     68          1           0        2.433097    0.734322   -4.604610
     69          1           0        0.486104    2.563268   -2.986812
     70          1           0       -7.090975   -3.635257   -0.820983
     71          1           0       -7.507742   -3.626161   -2.436503
     72          1           0        3.386489    3.879168    3.720803
     73          1           0       -0.559928    4.368499   -3.274919
     74          1           0       -4.256675    4.426868   -0.559299
     75          1           0       -4.093047    4.104622    1.058735
     76          1           0       -3.042712    5.159295    0.443083
     77          1           0        8.552086   -2.211340   -0.746996
     78          1           0       -1.900844    6.281530   -3.561888
     79          1           0       -3.079008    5.930108   -1.950812
 ---------------------------------------------------------------------

 SCF Done:  E(RB3LYP) =  -1947.75420809     A.U. after   17 cycles

 Excitation energies and oscillator strengths:

 Excited State   1:      Singlet-A      0.8558 eV 1448.80 nm  f=0.0003  <S**2>=0.000
     155 ->156         0.70281
 This state for optimization and/or second-order correction.
 Total Energy, E(TD-HF/TD-DFT) =  -1947.72275903
 Copying the excited state density for this state as the 1-particle RhoCI density.

 The electronic state is 1-A.
 Alpha  occ. eigenvalues --  -19.19735 -19.17426 -19.15538 -19.13502 -19.11626
 Alpha  occ. eigenvalues --  -19.07725 -14.38851 -14.36597 -14.33378 -14.31114
 Alpha  occ. eigenvalues --  -10.33430 -10.33192 -10.28193 -10.26880 -10.25872
 Alpha  occ. eigenvalues --  -10.25563 -10.24819 -10.24127 -10.23946 -10.23147
 Alpha  occ. eigenvalues --  -10.23079 -10.22922 -10.22851 -10.22723 -10.22471
 Alpha  occ. eigenvalues --  -10.22080 -10.22043 -10.21786 -10.21210 -10.21033
 Alpha  occ. eigenvalues --  -10.20973 -10.20949 -10.20753 -10.19890 -10.19815
 Alpha  occ. eigenvalues --  -10.19198 -10.19160 -10.18648 -10.17972 -10.17910
 Alpha  occ. eigenvalues --  -10.17472 -10.16667 -10.15646  -1.11791  -1.03809
 Alpha  occ. eigenvalues --   -1.03420  -1.03384  -1.01611  -0.99692  -0.98750
 Alpha  occ. eigenvalues --   -0.95796  -0.94154  -0.93461  -0.83714  -0.82620
 Alpha  occ. eigenvalues --   -0.82074  -0.81747  -0.81524  -0.78795  -0.77760
 Alpha  occ. eigenvalues --   -0.77110  -0.76331  -0.75544  -0.74011  -0.73012
 Alpha  occ. eigenvalues --   -0.71279  -0.71163  -0.70438  -0.69082  -0.68018
 Alpha  occ. eigenvalues --   -0.66505  -0.65790  -0.63772  -0.62175  -0.61811
 Alpha  occ. eigenvalues --   -0.59556  -0.58383  -0.58015  -0.57608  -0.57280
 Alpha  occ. eigenvalues --   -0.56277  -0.55464  -0.54364  -0.53029  -0.52849
 Alpha  occ. eigenvalues --   -0.52374  -0.51663  -0.51378  -0.50346  -0.50142
 Alpha  occ. eigenvalues --   -0.49819  -0.49017  -0.48550  -0.48044  -0.47602
 Alpha  occ. eigenvalues --   -0.47319  -0.46591  -0.46403  -0.46236  -0.45972
 Alpha  occ. eigenvalues --   -0.45725  -0.45193  -0.44742  -0.44586  -0.44140
 Alpha  occ. eigenvalues --   -0.43728  -0.43214  -0.42838  -0.42644  -0.42417
 Alpha  occ. eigenvalues --   -0.42175  -0.41785  -0.41671  -0.41545  -0.41274
 Alpha  occ. eigenvalues --   -0.41095  -0.40754  -0.40254  -0.39824  -0.39757
 Alpha  occ. eigenvalues --   -0.39401  -0.39162  -0.38835  -0.38662  -0.38162
 Alpha  occ. eigenvalues --   -0.37783  -0.37518  -0.36996  -0.36904  -0.36802
 Alpha  occ. eigenvalues --   -0.36120  -0.35737  -0.35636  -0.35194  -0.34628
 Alpha  occ. eigenvalues --   -0.33967  -0.32911  -0.32508  -0.32193  -0.31146
 Alpha  occ. eigenvalues --   -0.30837  -0.30670  -0.30275  -0.29751  -0.29138
 Alpha  occ. eigenvalues --   -0.27575  -0.27153  -0.25900  -0.25396  -0.24613
 Alpha  occ. eigenvalues --   -0.23357  -0.23232  -0.22013  -0.21859  -0.18834
 Alpha virt. eigenvalues --   -0.12824  -0.08346  -0.03182  -0.03093  -0.01316
 Alpha virt. eigenvalues --   -0.00547   0.00902   0.01801   0.02463   0.02930
 Alpha virt. eigenvalues --    0.03268   0.03468   0.03915   0.04118   0.04412

 Mulliken charges:
               1
     1  O   -0.252513
     2  O   -0.264523
     3  O   -0.305050
     4  O   -0.245232
     5  O   -0.154596
     6  O   -0.190301
     7  N    0.041194
     8  N   -0.049788
     9  N   -0.159020
    10  N   -0.339556
    11  C    0.005801
    12  C    0.218919
    13  C   -0.157117
    14  C   -0.049303
    15  C   -0.135450
    16  C   -0.033035
    17  C   -0.284315
    18  C    0.019333
    19  C   -0.037470
    20  C   -0.186792
    21  C    0.142653
    22  C    0.067372
    23  C   -0.007553
    24  C   -0.030025
    25  C    0.252168
    26  C   -0.099425
    27  C    0.111821
    28  C    0.088563
    29  C    0.076485
    30  C   -0.067662
    31  C   -0.077954
    32  C    0.020533
    33  C   -0.064683
    34  C    0.197734
    35  C    0.099076
    36  C    0.131247
    37  C    0.153352
    38  C    0.094761
    39  C   -0.189635
    40  C    0.158599
    41  C   -0.050829
    42  C    0.115204
    43  C   -0.122820
    44  H    0.078819
    45  H    0.027711
    46  H   -0.056873
    47  H    0.149083
    48  H    0.111269
    49  H    0.035522
    50  H    0.030132
    51  H    0.045997
    52  H    0.025786
    53  H    0.012991
    54  H    0.070767
    55  H   -0.027287
    56  H   -0.024906
    57  H    0.039267
    58  H    0.012585
    59  H    0.089351
    60  H    0.242084
    61  H   -0.008517
    62  H    0.025722
    63  H    0.006080
    64  H    0.061820
    65  H    0.039499
    66  H    0.050912
    67  H    0.041475
    68  H    0.050906
    69  H   -0.039810
    70  H   -0.092807
    71  H   -0.006701
    72  H    0.185109
    73  H    0.026437
    74  H    0.026670
    75  H    0.014397
    76  H    0.008361
    77  H    0.206589
    78  H    0.057921
    79  H    0.043473
 Sum of Mulliken charges =  -0.00000

 Dipole moment (field-independent basis, Debye):
    X=              3.0331    Y=              1.6819    Z=             -1.4245  Tot=              3.7493
 Quadrupole moment (field-independent basis, Debye-Ang):
   XX=           -236.2500   YY=           -236.8641   ZZ=           -269.3235
   XY=             -8.7568   XZ=            -28.8768   YZ=            -17.0771

 Normal termination of Gaussian 16 at Thu Jul 25 00:52:11 2019.
