 Gaussian 16, Revision A.03,
 Gaussian 16:  ES64L-G16RevA.03 25-Dec-2016

 --------------------------
 # td=(NStates=1) B3LYP/SVP
 --------------------------

 --
 TD
 --
 Symbolic Z-matrix:
 Charge =  0 Multiplicity = 1

                         Standard orientation:
 ---------------------------------------------------------------------
 Center     Atomic      Atomic             Coordinates (Angstroms)
 Number     Number       Type             X           Y           Z
 ---------------------------------------------------------------------
      1          8           0        5.376665    0.325399   -3.173166
      2          8           0       -2.827275   -3.229855    3.085070
      3          8           0       -3.322013   -1.021481    3.095795
      4          8           0       -2.467805    7.201123    1.434553
      5          8           0       -0.904974    7.158738   -0.338113
      6          8           0       -1.521334   -4.095244    0.141935
      7          7           0        2.317065    1.006382    0.758566
      8          7           0        4.417950   -0.281175   -1.229346
      9          7           0       -1.880103    0.730135   -0.340892
     10          7           0       -2.387778   -1.972295   -0.542386
     11          6           0        4.796367   -0.952724    0.005237
     12          6           0        4.393833   -0.315471    1.274115
     13          6           0        2.968330    0.006724    1.431017
     14          6           0        1.979703   -0.659842    2.156449
     15          6           0        0.661270   -0.037781    1.884987
     16          6           0        0.963651    1.015768    0.953656
     17          6           0        6.283127   -1.083779   -0.191906
     18          6           0       -0.636091   -0.280877    2.611171
     19          6           0        6.658352   -0.601138   -1.344286
     20          6           0        0.134347    1.953616    0.281491
     21          6           0       -1.215947    1.866173   -0.200016
     22          6           0        5.401938   -0.037232   -1.964103
     23          6           0       -1.980677    2.890113   -0.850630
     24          6           0        2.200053   -1.754215    3.159802
     25          6           0        7.173639   -1.805283    0.748880
     26          6           0       -3.097954    2.267915   -1.317744
     27          6           0       -1.045163   -1.787356    2.558719
     28          6           0       -3.050785    0.919138   -0.981146
     29          6           0       -1.643922    4.375282   -0.926232
     30          6           0        7.983236   -0.589114   -2.047574
     31          6           0       -2.192982    5.075702    0.389203
     32          6           0       -4.294332    2.829484   -2.056739
     33          6           0       -3.819466   -0.131782   -1.385627
     34          6           0       -2.557760   -1.938663    2.956873
     35          6           0       -3.465084   -1.580767   -1.167485
     36          6           0        9.165644   -0.561935   -1.606674
     37          6           0       -1.755178    6.547670    0.405028
     38          6           0       -4.336012   -2.776157   -1.612006
     39          6           0       -3.670307   -3.866141   -1.078835
     40          6           0       -2.460095   -3.490003   -0.471397
     41          6           0       -5.664363   -2.679322   -2.217593
     42          6           0       -4.037224   -5.319045   -1.414457
     43          6           0       -6.511760   -3.604869   -2.545859
     44          1           0        4.446824   -2.000615    0.067810
     45          1           0        4.915695    0.640817    1.317575
     46          1           0        4.813520   -0.942183    2.066899
     47          1           0        2.800027    1.641555    0.028771
     48          1           0        3.459346   -0.224364   -1.589432
     49          1           0       -0.406073   -0.023439    3.755331
     50          1           0       -1.423556    0.489207    2.322991
     51          1           0        0.782415    2.811132    0.040052
     52          1           0        3.266366   -1.747538    3.381168
     53          1           0        1.649112   -1.520560    4.172787
     54          1           0        1.857206   -2.684711    2.991760
     55          1           0        6.781902   -2.583766    1.301811
     56          1           0        7.711988   -1.140344    1.654651
     57          1           0        8.003896   -2.434676    0.238035
     58          1           0       -0.778508   -2.230950    1.611919
     59          1           0       -0.478480   -2.252159    3.229180
     60          1           0       -1.494415   -0.216346   -0.135418
     61          1           0       -2.250270    4.803445   -1.915310
     62          1           0       -0.677170    4.584947   -1.136399
     63          1           0        7.640750   -0.337913   -3.152599
     64          1           0       -2.055396    4.482135    1.341121
     65          1           0       -3.249982    4.980534    0.482497
     66          1           0       -4.197423    3.825500   -2.047724
     67          1           0       -5.212575    2.616164   -1.533962
     68          1           0       -4.206608    2.299432   -2.962449
     69          1           0       -4.725095   -0.088027   -1.879372
     70          1           0        9.346832   -0.692542   -0.667075
     71          1           0       10.124330   -0.698190   -2.136650
     72          1           0       -3.800276   -3.074090    3.204700
     73          1           0       -5.997509   -1.552066   -2.486475
     74          1           0       -5.198712   -5.578601   -1.009283
     75          1           0       -3.954627   -5.837261   -2.519437
     76          1           0       -3.266624   -6.123985   -0.820060
     77          1           0       -2.339769    8.282798    1.278938
     78          1           0       -7.539308   -3.344400   -3.016272
     79          1           0       -6.254214   -4.584234   -2.588184
 ---------------------------------------------------------------------

 SCF Done:  E(RB3LYP) =  -1947.82627858     A.U. after   18 cycles

 Excitation energies and oscillator strengths:

 Excited State   1:      Singlet-A      1.7310 eV  716.24 nm  f=0.3653  <S**2>=0.000
     155 ->156         0.70706
     155 <-156        -0.14480
 This state for optimization and/or second-order correction.
 Total Energy, E(TD-HF/TD-DFT) =  -1947.76266421
 Copying the excited state density for this state as the 1-particle RhoCI density.

 The electronic state is 1-A.
 Alpha  occ. eigenvalues --  -19.19372 -19.18273 -19.14319 -19.12231 -19.11613
 Alpha  occ. eigenvalues --  -19.08229 -14.39237 -14.37144 -14.36160 -14.29645
 Alpha  occ. eigenvalues --  -10.34171 -10.31014 -10.27670 -10.27480 -10.25431
 Alpha  occ. eigenvalues --  -10.24218 -10.23655 -10.23446 -10.23242 -10.23224
 Alpha  occ. eigenvalues --  -10.22824 -10.22621 -10.22165 -10.22060 -10.22035
 Alpha  occ. eigenvalues --  -10.21988 -10.21810 -10.21591 -10.21173 -10.20750
 Alpha  occ. eigenvalues --  -10.20694 -10.20084 -10.19968 -10.19818 -10.19755
 Alpha  occ. eigenvalues --  -10.19639 -10.19630 -10.19467 -10.19128 -10.19063
 Alpha  occ. eigenvalues --  -10.18675 -10.17486 -10.17421  -1.10485  -1.05896
 Alpha  occ. eigenvalues --   -1.03131  -1.00753  -1.00583  -0.99175  -0.98855
 Alpha  occ. eigenvalues --   -0.97921  -0.94619  -0.91184  -0.83996  -0.82847
 Alpha  occ. eigenvalues --   -0.82434  -0.81336  -0.80798  -0.80239  -0.78133
 Alpha  occ. eigenvalues --   -0.77682  -0.76549  -0.75922  -0.75184  -0.72694
 Alpha  occ. eigenvalues --   -0.72094  -0.71481  -0.70241  -0.68770  -0.68445
 Alpha  occ. eigenvalues --   -0.66549  -0.66040  -0.64299  -0.62750  -0.61676
 Alpha  occ. eigenvalues --   -0.59109  -0.58892  -0.58405  -0.57956  -0.57347
 Alpha  occ. eigenvalues --   -0.56952  -0.56251  -0.55875  -0.55363  -0.54151
 Alpha  occ. eigenvalues --   -0.52459  -0.52214  -0.51378  -0.50428  -0.49725
 Alpha  occ. eigenvalues --   -0.49315  -0.48820  -0.48624  -0.48304  -0.48031
 Alpha  occ. eigenvalues --   -0.47603  -0.47278  -0.46975  -0.46620  -0.46168
 Alpha  occ. eigenvalues --   -0.45656  -0.45545  -0.45023  -0.44510  -0.44186
 Alpha  occ. eigenvalues --   -0.43663  -0.43539  -0.43221  -0.42689  -0.42475
 Alpha  occ. eigenvalues --   -0.42332  -0.42289  -0.41994  -0.41566  -0.40912
 Alpha  occ. eigenvalues --   -0.40876  -0.40713  -0.40277  -0.40078  -0.39922
 Alpha  occ. eigenvalues --   -0.39209  -0.38859  -0.38749  -0.38526  -0.38028
 Alpha  occ. eigenvalues --   -0.37804  -0.37798  -0.37674  -0.37180  -0.36707
 Alpha  occ. eigenvalues --   -0.36182  -0.35762  -0.35022  -0.34510  -0.34137
 Alpha  occ. eigenvalues --   -0.33418  -0.32884  -0.32387  -0.32133  -0.32097
 Alpha  occ. eigenvalues --   -0.32052  -0.31651  -0.29270  -0.29143  -0.27825
 Alpha  occ. eigenvalues --   -0.27718  -0.26728  -0.26188  -0.25471  -0.24786
 Alpha  occ. eigenvalues --   -0.24469  -0.24106  -0.23893  -0.23435  -0.18181
 Alpha virt. eigenvalues --   -0.11593  -0.07593  -0.04408  -0.03258  -0.00267
 Alpha virt. eigenvalues --    0.01313   0.01830   0.01892   0.02159   0.02877
 Alpha virt. eigenvalues --    0.03022   0.03745   0.04004   0.04703   0.05074

 Mulliken charges:
               1
     1  O   -0.296586
     2  O   -0.144537
     3  O   -0.227200
     4  O   -0.287545
     5  O   -0.276261
     6  O   -0.232583
     7  N   -0.092497
     8  N   -0.058176
     9  N   -0.016427
    10  N   -0.298793
    11  C    0.087443
    12  C    0.247799
    13  C   -0.075033
    14  C   -0.156880
    15  C   -0.086546
    16  C    0.016914
    17  C   -0.173094
    18  C    0.017142
    19  C   -0.053281
    20  C   -0.080914
    21  C    0.063812
    22  C    0.068531
    23  C   -0.120239
    24  C    0.125324
    25  C    0.027252
    26  C   -0.190966
    27  C    0.053699
    28  C    0.173304
    29  C    0.117745
    30  C    0.012596
    31  C    0.010138
    32  C    0.235792
    33  C   -0.072097
    34  C    0.137354
    35  C    0.003377
    36  C    0.038340
    37  C    0.233825
    38  C    0.071295
    39  C   -0.122947
    40  C    0.196559
    41  C   -0.041562
    42  C   -0.105693
    43  C   -0.009219
    44  H    0.022881
    45  H   -0.023433
    46  H   -0.002742
    47  H    0.140068
    48  H    0.140257
    49  H    0.021694
    50  H    0.034677
    51  H   -0.014959
    52  H   -0.011019
    53  H    0.016891
    54  H    0.008679
    55  H   -0.013605
    56  H    0.050805
    57  H    0.041633
    58  H    0.064479
    59  H   -0.029966
    60  H    0.156028
    61  H    0.037855
    62  H   -0.006570
    63  H    0.040577
    64  H    0.055835
    65  H    0.014204
    66  H   -0.033996
    67  H    0.016188
    68  H    0.022765
    69  H   -0.082734
    70  H   -0.050038
    71  H    0.026538
    72  H    0.163654
    73  H    0.030280
    74  H    0.050557
    75  H    0.068391
    76  H    0.052887
    77  H    0.239310
    78  H    0.042614
    79  H   -0.009847
 Sum of Mulliken charges =  -0.00000

 Dipole moment (field-independent basis, Debye):
    X=             -1.7058    Y=              0.8480    Z=              2.7024  Tot=              3.3064
 Quadrupole moment (field-independent basis, Debye-Ang):
   XX=           -219.9848   YY=           -247.4772   ZZ=           -264.9381
   XY=            -15.9048   XZ=             39.3522   YZ=              7.5463

 Normal termination of Gaussian 16 at Tue Sep 24 08:37:10 2019.
