 Gaussian 16, Revision A.03,
 Gaussian 16:  ES64L-G16RevA.03 25-Dec-2016

 --------------------------
 # td=(NStates=1) B3LYP/SVP
 --------------------------

 --
 TD
 --
 Symbolic Z-matrix:
 Charge =  0 Multiplicity = 1

                         Standard orientation:
 ---------------------------------------------------------------------
 Center     Atomic      Atomic             Coordinates (Angstroms)
 Number     Number       Type             X           Y           Z
 ---------------------------------------------------------------------
      1          8           0       -3.418068   -1.118481   -3.024559
      2          8           0        3.338246    2.903772    3.248153
      3          8           0        3.729784    0.995052    4.480283
      4          8           0        7.680956   -1.315192   -0.798124
      5          8           0        6.758039   -2.912033   -2.181724
      6          8           0       -2.694069    1.565636    1.461415
      7          7           0       -0.342325   -2.395653    0.786538
      8          7           0       -2.660625   -1.282880   -0.810523
      9          7           0        1.179129    0.082361   -0.735298
     10          7           0       -0.951896    1.516230   -0.114878
     11          6           0       -3.331228   -1.326178    0.498370
     12          6           0       -2.789846   -2.365703    1.436033
     13          6           0       -1.332416   -2.143197    1.753064
     14          6           0       -0.560573   -1.404658    2.830396
     15          6           0        0.751484   -1.247939    2.398393
     16          6           0        0.913543   -1.867554    1.153009
     17          6           0       -4.758913   -1.803877    0.187985
     18          6           0        1.897220   -0.639971    3.019431
     19          6           0       -4.913797   -1.866657   -1.197339
     20          6           0        2.075984   -1.905467    0.271693
     21          6           0        2.077993   -0.947973   -0.757765
     22          6           0       -3.626196   -1.397004   -1.800266
     23          6           0        3.022653   -0.640885   -1.846742
     24          6           0       -1.334959   -0.849029    4.007061
     25          6           0       -5.778111   -2.009769    1.348149
     26          6           0        2.611423    0.532315   -2.472016
     27          6           0        1.921023    0.819329    2.780569
     28          6           0        1.425385    0.946065   -1.689172
     29          6           0        4.191472   -1.526648   -2.103117
     30          6           0       -5.985384   -2.273796   -2.100533
     31          6           0        5.397963   -1.057419   -1.254055
     32          6           0        3.228261    1.128965   -3.630205
     33          6           0        0.521882    2.129057   -1.957702
     34          6           0        3.113456    1.541996    3.669433
     35          6           0       -0.602647    2.310143   -1.090682
     36          6           0       -7.149085   -2.964388   -1.816961
     37          6           0        6.606753   -1.840847   -1.618445
     38          6           0       -1.439783    3.593270   -1.056093
     39          6           0       -2.347673    3.381847   -0.123116
     40          6           0       -1.991424    2.097401    0.546856
     41          6           0       -1.357181    4.677448   -2.033211
     42          6           0       -3.341327    4.250893    0.479722
     43          6           0       -1.639395    6.094507   -1.695596
     44          1           0       -3.324758   -0.341911    0.979536
     45          1           0       -2.951740   -3.387037    0.969099
     46          1           0       -3.232417   -2.258090    2.286435
     47          1           0       -0.553918   -3.004379   -0.083832
     48          1           0       -2.045949   -0.491831   -0.747307
     49          1           0        1.833802   -0.807290    4.106018
     50          1           0        2.779194   -1.190346    2.562757
     51          1           0        2.603875   -2.921233    0.277055
     52          1           0       -1.881125   -1.621231    4.415184
     53          1           0       -0.380360   -0.608708    4.559850
     54          1           0       -1.945690   -0.043134    3.745457
     55          1           0       -5.528994   -1.570417    2.287774
     56          1           0       -5.461377   -3.047500    1.750982
     57          1           0       -6.941835   -1.859630    0.900923
     58          1           0        1.994248    0.862355    1.691755
     59          1           0        1.094626    1.330825    2.893794
     60          1           0        0.566714    0.332711   -0.146904
     61          1           0        4.337438   -1.525890   -3.183141
     62          1           0        3.931763   -2.600607   -1.597812
     63          1           0       -5.861684   -2.042029   -3.176437
     64          1           0        5.189681   -1.027407   -0.126297
     65          1           0        5.685587   -0.006244   -1.607720
     66          1           0        4.101149    0.685019   -4.059130
     67          1           0        3.580564    2.062198   -3.361451
     68          1           0        2.545151    1.377159   -4.407112
     69          1           0        0.626287    2.734843   -2.722543
     70          1           0       -7.083661   -3.378726   -0.729220
     71          1           0       -7.968033   -3.281748   -2.492855
     72          1           0        4.062877    3.243383    3.739601
     73          1           0       -0.844761    4.433312   -2.867703
     74          1           0       -3.763614    4.949720   -0.487014
     75          1           0       -4.244137    3.644747    0.954091
     76          1           0       -2.800853    4.968081    1.479124
     77          1           0        8.620103   -1.913654   -0.881356
     78          1           0       -1.108120    6.891420   -2.357752
     79          1           0       -2.218468    6.477184   -0.751166
 ---------------------------------------------------------------------

 SCF Done:  E(RB3LYP) =  -1947.76545838     A.U. after   25 cycles

 Excitation energies and oscillator strengths:

 Excited State   1:      Singlet-A      0.8697 eV 1425.64 nm  f=0.0002  <S**2>=0.000
     155 ->156         0.70407
 This state for optimization and/or second-order correction.
 Total Energy, E(TD-HF/TD-DFT) =  -1947.73349841
 Copying the excited state density for this state as the 1-particle RhoCI density.

 The electronic state is 1-A.
 Alpha  occ. eigenvalues --  -19.17888 -19.16594 -19.15136 -19.14566 -19.11553
 Alpha  occ. eigenvalues --  -19.08007 -14.38315 -14.37229 -14.32897 -14.30727
 Alpha  occ. eigenvalues --  -10.33843 -10.32535 -10.28299 -10.27718 -10.27012
 Alpha  occ. eigenvalues --  -10.26944 -10.25261 -10.24165 -10.23926 -10.23622
 Alpha  occ. eigenvalues --  -10.23528 -10.23441 -10.23396 -10.22570 -10.22158
 Alpha  occ. eigenvalues --  -10.21836 -10.21833 -10.21410 -10.21057 -10.20844
 Alpha  occ. eigenvalues --  -10.20697 -10.20611 -10.20540 -10.19630 -10.19369
 Alpha  occ. eigenvalues --  -10.19317 -10.19287 -10.19212 -10.18993 -10.18516
 Alpha  occ. eigenvalues --  -10.17364 -10.16855 -10.16586  -1.09770  -1.07311
 Alpha  occ. eigenvalues --   -1.03617  -1.01285  -1.00935  -0.98316  -0.98266
 Alpha  occ. eigenvalues --   -0.94450  -0.94311  -0.91270  -0.85900  -0.82924
 Alpha  occ. eigenvalues --   -0.81740  -0.81530  -0.80296  -0.80047  -0.78535
 Alpha  occ. eigenvalues --   -0.76963  -0.75846  -0.75572  -0.74258  -0.73535
 Alpha  occ. eigenvalues --   -0.71349  -0.70735  -0.69705  -0.68946  -0.67327
 Alpha  occ. eigenvalues --   -0.65355  -0.65043  -0.63337  -0.61278  -0.61067
 Alpha  occ. eigenvalues --   -0.60414  -0.59444  -0.59141  -0.58501  -0.56706
 Alpha  occ. eigenvalues --   -0.56325  -0.55350  -0.54909  -0.53773  -0.53369
 Alpha  occ. eigenvalues --   -0.51948  -0.51082  -0.50949  -0.50468  -0.50019
 Alpha  occ. eigenvalues --   -0.49108  -0.48792  -0.48466  -0.48056  -0.47843
 Alpha  occ. eigenvalues --   -0.47549  -0.47327  -0.47274  -0.46691  -0.46090
 Alpha  occ. eigenvalues --   -0.45099  -0.44934  -0.44676  -0.44567  -0.44452
 Alpha  occ. eigenvalues --   -0.44051  -0.43489  -0.43059  -0.42739  -0.42620
 Alpha  occ. eigenvalues --   -0.42371  -0.41644  -0.41238  -0.41167  -0.41032
 Alpha  occ. eigenvalues --   -0.40886  -0.40634  -0.40523  -0.40177  -0.39860
 Alpha  occ. eigenvalues --   -0.39772  -0.39336  -0.38926  -0.38498  -0.38175
 Alpha  occ. eigenvalues --   -0.37671  -0.37543  -0.37127  -0.36919  -0.36636
 Alpha  occ. eigenvalues --   -0.36464  -0.35881  -0.34939  -0.34728  -0.34160
 Alpha  occ. eigenvalues --   -0.33386  -0.32658  -0.32537  -0.32370  -0.31243
 Alpha  occ. eigenvalues --   -0.30882  -0.29916  -0.29720  -0.29189  -0.28932
 Alpha  occ. eigenvalues --   -0.28747  -0.27953  -0.25642  -0.24978  -0.23443
 Alpha  occ. eigenvalues --   -0.23394  -0.22978  -0.22347  -0.22097  -0.18646
 Alpha virt. eigenvalues --   -0.12764  -0.08056  -0.04781  -0.03666  -0.03435
 Alpha virt. eigenvalues --    0.00547   0.00939   0.01065   0.01547   0.01940
 Alpha virt. eigenvalues --    0.02517   0.03165   0.03754   0.04515   0.04860

 Mulliken charges:
               1
     1  O   -0.288207
     2  O   -0.241923
     3  O   -0.141772
     4  O   -0.340310
     5  O   -0.206501
     6  O   -0.261577
     7  N   -0.131301
     8  N   -0.168367
     9  N    0.129691
    10  N   -0.241324
    11  C    0.013566
    12  C    0.307197
    13  C   -0.123845
    14  C   -0.162739
    15  C   -0.121151
    16  C   -0.049746
    17  C   -0.165902
    18  C    0.123351
    19  C   -0.020975
    20  C   -0.114649
    21  C    0.120097
    22  C    0.148267
    23  C   -0.092949
    24  C    0.151188
    25  C    0.064088
    26  C   -0.126407
    27  C    0.056294
    28  C    0.015717
    29  C    0.067861
    30  C   -0.035077
    31  C   -0.036072
    32  C    0.192505
    33  C    0.021643
    34  C    0.160108
    35  C    0.064098
    36  C   -0.066558
    37  C    0.197614
    38  C    0.029565
    39  C   -0.134323
    40  C    0.168871
    41  C    0.019535
    42  C   -0.075824
    43  C   -0.093138
    44  H    0.054887
    45  H   -0.003237
    46  H   -0.090585
    47  H    0.142253
    48  H    0.133565
    49  H    0.007904
    50  H    0.006308
    51  H    0.051064
    52  H   -0.006024
    53  H    0.000773
    54  H    0.027245
    55  H    0.009665
    56  H    0.028694
    57  H    0.085363
    58  H   -0.005267
    59  H   -0.015028
    60  H    0.065927
    61  H    0.032482
    62  H    0.049240
    63  H    0.015388
    64  H    0.089782
    65  H    0.048911
    66  H    0.005294
    67  H   -0.004913
    68  H    0.019061
    69  H   -0.099429
    70  H    0.024792
    71  H    0.038520
    72  H    0.156828
    73  H   -0.035913
    74  H    0.053283
    75  H    0.062585
    76  H    0.067083
    77  H    0.239457
    78  H    0.056412
    79  H    0.077007
 Sum of Mulliken charges =  -0.00000

 Dipole moment (field-independent basis, Debye):
    X=              4.7212    Y=              2.2407    Z=             -0.8531  Tot=              5.2951
 Quadrupole moment (field-independent basis, Debye-Ang):
   XX=           -237.9435   YY=           -239.0365   ZZ=           -266.3889
   XY=             10.8581   XZ=            -23.7316   YZ=            -12.7204

 Normal termination of Gaussian 16 at Sun Jul 28 15:12:25 2019.
