 Gaussian 16, Revision A.03,
 Gaussian 16:  ES64L-G16RevA.03 25-Dec-2016

 --------------------------
 # td=(NStates=1) B3LYP/SVP
 --------------------------

 --
 TD
 --
 Symbolic Z-matrix:
 Charge =  0 Multiplicity = 1

                         Standard orientation:
 ---------------------------------------------------------------------
 Center     Atomic      Atomic             Coordinates (Angstroms)
 Number     Number       Type             X           Y           Z
 ---------------------------------------------------------------------
      1          8           0        5.321226   -0.053428   -3.330513
      2          8           0       -2.901736   -3.026330    3.263545
      3          8           0       -3.396616   -0.775411    3.009221
      4          8           0       -2.109628    7.206317    1.440282
      5          8           0       -1.054076    6.997143   -0.583479
      6          8           0       -1.456759   -3.909539    0.123850
      7          7           0        2.323288    1.046627    0.631694
      8          7           0        4.302236   -0.530731   -1.233096
      9          7           0       -1.812494    0.681667   -0.470965
     10          7           0       -2.383497   -1.909113   -0.591094
     11          6           0        4.711544   -1.076967   -0.013485
     12          6           0        4.369184   -0.254272    1.187156
     13          6           0        2.911717    0.045690    1.372667
     14          6           0        1.937293   -0.469143    2.211002
     15          6           0        0.704494    0.073578    1.895019
     16          6           0        0.864720    0.953002    0.823583
     17          6           0        6.257877   -1.162370   -0.132948
     18          6           0       -0.625464   -0.183393    2.581232
     19          6           0        6.659644   -0.640526   -1.406108
     20          6           0        0.094016    1.959966    0.253342
     21          6           0       -1.178121    1.845543   -0.228521
     22          6           0        5.392763   -0.412988   -2.171334
     23          6           0       -2.057224    2.893905   -0.844045
     24          6           0        2.147932   -1.760989    3.208183
     25          6           0        7.220551   -1.736869    0.975470
     26          6           0       -3.157450    2.271678   -1.427967
     27          6           0       -1.077153   -1.644344    2.741419
     28          6           0       -3.007354    0.820862   -1.133279
     29          6           0       -1.713319    4.395927   -0.887384
     30          6           0        7.980985   -0.475456   -2.056619
     31          6           0       -2.012729    5.154161    0.387239
     32          6           0       -4.375781    2.856937   -2.034249
     33          6           0       -3.843340   -0.262072   -1.432809
     34          6           0       -2.603039   -1.667590    3.008047
     35          6           0       -3.481373   -1.654482   -1.209797
     36          6           0        9.149390   -0.395862   -1.308925
     37          6           0       -1.699362    6.483155    0.282638
     38          6           0       -4.343715   -2.840530   -1.464310
     39          6           0       -3.600229   -3.927803   -1.123713
     40          6           0       -2.414752   -3.394070   -0.438557
     41          6           0       -5.583352   -2.799685   -2.132981
     42          6           0       -3.884073   -5.461829   -1.139710
     43          6           0       -6.418569   -3.781426   -2.575785
     44          1           0        4.380601   -2.158430    0.176362
     45          1           0        4.818509    0.780900    1.199462
     46          1           0        4.856551   -0.673687    2.106780
     47          1           0        2.847954    1.544080   -0.066462
     48          1           0        3.382441   -0.536283   -1.504861
     49          1           0       -0.760002    0.615559    3.547052
     50          1           0       -1.428829    0.190400    1.940109
     51          1           0        0.611579    2.894221    0.293452
     52          1           0        3.310984   -1.615693    3.574967
     53          1           0        1.453470   -1.566036    3.987187
     54          1           0        1.810617   -2.753088    2.749062
     55          1           0        6.845821   -2.440360    1.519743
     56          1           0        7.541435   -1.007256    1.454171
     57          1           0        8.191922   -2.110967    0.525032
     58          1           0       -1.081618   -2.327288    1.776307
     59          1           0       -0.558152   -2.492633    3.197634
     60          1           0       -1.680866   -0.315668    0.000246
     61          1           0       -2.335184    5.063804   -1.622179
     62          1           0       -0.530013    4.533973   -1.080804
     63          1           0        7.831890   -0.513309   -3.034447
     64          1           0       -1.295303    4.720514    1.095008
     65          1           0       -3.207442    4.941479    0.639744
     66          1           0       -4.113319    3.974701   -2.589646
     67          1           0       -5.229179    3.004553   -1.105944
     68          1           0       -4.890829    2.147241   -2.809746
     69          1           0       -4.839618   -0.054885   -1.685617
     70          1           0        9.377390   -0.419981   -0.231491
     71          1           0       10.095177   -0.452459   -1.995818
     72          1           0       -4.008041   -3.055685    3.717491
     73          1           0       -6.092165   -1.807470   -2.193626
     74          1           0       -4.800029   -5.498268   -0.779251
     75          1           0       -4.060610   -5.645461   -2.312241
     76          1           0       -3.196981   -6.093247   -0.515108
     77          1           0       -1.939548    8.328281    1.175239
     78          1           0       -7.246547   -3.432613   -2.971043
     79          1           0       -6.242363   -4.808534   -2.502597
 ---------------------------------------------------------------------

 SCF Done:  E(RB3LYP) =  -1947.76007588     A.U. after   16 cycles

 Excitation energies and oscillator strengths:

 Excited State   1:      Singlet-A      1.9042 eV  651.13 nm  f=0.3575  <S**2>=0.000
     155 ->156         0.70410
     155 <-156        -0.10708
 This state for optimization and/or second-order correction.
 Total Energy, E(TD-HF/TD-DFT) =  -1947.69009954
 Copying the excited state density for this state as the 1-particle RhoCI density.

 The electronic state is 1-A.
 Alpha  occ. eigenvalues --  -19.17712 -19.17062 -19.13496 -19.12763 -19.11588
 Alpha  occ. eigenvalues --  -19.10605 -14.37471 -14.35735 -14.34840 -14.29175
 Alpha  occ. eigenvalues --  -10.31585 -10.31144 -10.29000 -10.27351 -10.25138
 Alpha  occ. eigenvalues --  -10.24286 -10.23784 -10.23506 -10.23423 -10.22926
 Alpha  occ. eigenvalues --  -10.22574 -10.22340 -10.22186 -10.21790 -10.21579
 Alpha  occ. eigenvalues --  -10.21502 -10.21280 -10.21120 -10.20936 -10.20904
 Alpha  occ. eigenvalues --  -10.20892 -10.20775 -10.20736 -10.20724 -10.20613
 Alpha  occ. eigenvalues --  -10.20542 -10.20345 -10.19985 -10.19064 -10.19049
 Alpha  occ. eigenvalues --  -10.19037 -10.18507 -10.18413  -1.07889  -1.06245
 Alpha  occ. eigenvalues --   -1.02526  -1.01909  -0.98240  -0.97773  -0.97473
 Alpha  occ. eigenvalues --   -0.96756  -0.94483  -0.92651  -0.82590  -0.82035
 Alpha  occ. eigenvalues --   -0.81615  -0.81365  -0.80262  -0.79240  -0.78466
 Alpha  occ. eigenvalues --   -0.77108  -0.76124  -0.75661  -0.74766  -0.72484
 Alpha  occ. eigenvalues --   -0.71628  -0.70821  -0.69805  -0.67861  -0.66727
 Alpha  occ. eigenvalues --   -0.66177  -0.66072  -0.64214  -0.61928  -0.60977
 Alpha  occ. eigenvalues --   -0.58580  -0.58119  -0.57072  -0.56773  -0.55446
 Alpha  occ. eigenvalues --   -0.55197  -0.54369  -0.54232  -0.53595  -0.53354
 Alpha  occ. eigenvalues --   -0.52308  -0.51736  -0.51187  -0.50606  -0.49892
 Alpha  occ. eigenvalues --   -0.49173  -0.48555  -0.48056  -0.47506  -0.47449
 Alpha  occ. eigenvalues --   -0.47176  -0.46607  -0.46500  -0.45912  -0.45446
 Alpha  occ. eigenvalues --   -0.45152  -0.44771  -0.44464  -0.44231  -0.44047
 Alpha  occ. eigenvalues --   -0.43375  -0.43251  -0.43127  -0.42799  -0.42056
 Alpha  occ. eigenvalues --   -0.41824  -0.41573  -0.41330  -0.40822  -0.40685
 Alpha  occ. eigenvalues --   -0.40293  -0.40131  -0.39928  -0.39704  -0.39386
 Alpha  occ. eigenvalues --   -0.39157  -0.39105  -0.38726  -0.38423  -0.38186
 Alpha  occ. eigenvalues --   -0.37785  -0.37691  -0.37223  -0.37140  -0.36655
 Alpha  occ. eigenvalues --   -0.36514  -0.35600  -0.35129  -0.35025  -0.34690
 Alpha  occ. eigenvalues --   -0.34543  -0.33774  -0.31800  -0.31624  -0.31434
 Alpha  occ. eigenvalues --   -0.30993  -0.30253  -0.28966  -0.28763  -0.28402
 Alpha  occ. eigenvalues --   -0.27616  -0.26684  -0.26017  -0.25332  -0.24933
 Alpha  occ. eigenvalues --   -0.24544  -0.23925  -0.23653  -0.22632  -0.18387
 Alpha virt. eigenvalues --   -0.10748  -0.06890  -0.06265  -0.01425  -0.00651
 Alpha virt. eigenvalues --   -0.00332  -0.00129   0.00428   0.00743   0.02138
 Alpha virt. eigenvalues --    0.02247   0.03325   0.04544   0.04625   0.05074

 Mulliken charges:
               1
     1  O   -0.214293
     2  O   -0.334864
     3  O   -0.197962
     4  O   -0.331014
     5  O   -0.203394
     6  O   -0.198289
     7  N   -0.145747
     8  N   -0.186224
     9  N   -0.114757
    10  N   -0.282886
    11  C    0.116357
    12  C    0.151931
    13  C   -0.058732
    14  C   -0.162785
    15  C   -0.063259
    16  C    0.097496
    17  C   -0.233285
    18  C    0.116925
    19  C   -0.092741
    20  C   -0.126501
    21  C    0.126692
    22  C    0.168069
    23  C   -0.044592
    24  C    0.044032
    25  C    0.252515
    26  C   -0.073101
    27  C   -0.080348
    28  C    0.101323
    29  C   -0.014178
    30  C    0.090431
    31  C    0.011087
    32  C   -0.062657
    33  C   -0.089333
    34  C    0.178498
    35  C    0.074072
    36  C   -0.055137
    37  C    0.143574
    38  C    0.084288
    39  C   -0.221563
    40  C    0.160916
    41  C   -0.090079
    42  C    0.139581
    43  C    0.064053
    44  H    0.030617
    45  H   -0.002058
    46  H   -0.002960
    47  H    0.110215
    48  H    0.102486
    49  H    0.046315
    50  H   -0.006108
    51  H   -0.013394
    52  H    0.032647
    53  H    0.020482
    54  H    0.060309
    55  H   -0.025835
    56  H   -0.038168
    57  H    0.024072
    58  H    0.079495
    59  H    0.010349
    60  H    0.203844
    61  H    0.028315
    62  H    0.045396
    63  H   -0.036248
    64  H    0.046976
    65  H    0.079624
    66  H    0.058193
    67  H    0.063928
    68  H    0.051237
    69  H   -0.051142
    70  H    0.037752
    71  H    0.040042
    72  H    0.241120
    73  H    0.001758
    74  H   -0.009230
    75  H    0.048212
    76  H    0.055166
    77  H    0.247016
    78  H   -0.015663
    79  H   -0.008877
 Sum of Mulliken charges =  -0.00000

 Dipole moment (field-independent basis, Debye):
    X=             -0.9283    Y=             -0.0568    Z=              3.1418  Tot=              3.2766
 Quadrupole moment (field-independent basis, Debye-Ang):
   XX=           -210.2272   YY=           -241.7029   ZZ=           -266.3425
   XY=             -2.7554   XZ=             31.0188   YZ=              2.7201

 Normal termination of Gaussian 16 at Fri Sep 13 01:04:46 2019.
