 Gaussian 16, Revision A.03,
 Gaussian 16:  ES64L-G16RevA.03 25-Dec-2016

 --------------------------
 # td=(NStates=1) B3LYP/SVP
 --------------------------

 --
 TD
 --
 Symbolic Z-matrix:
 Charge =  0 Multiplicity = 1

                         Standard orientation:
 ---------------------------------------------------------------------
 Center     Atomic      Atomic             Coordinates (Angstroms)
 Number     Number       Type             X           Y           Z
 ---------------------------------------------------------------------
      1          8           0       -3.180793   -1.279145   -2.925779
      2          8           0        3.251894    3.039982    3.055912
      3          8           0        3.498404    1.282066    4.551050
      4          8           0        7.680529   -1.739314   -0.546847
      5          8           0        6.594495   -3.056057   -2.135039
      6          8           0       -2.525721    1.680549    1.464250
      7          7           0       -0.419154   -2.396416    0.818105
      8          7           0       -2.671082   -1.136305   -0.623128
      9          7           0        1.140931    0.065301   -0.672550
     10          7           0       -0.923216    1.496491   -0.223554
     11          6           0       -3.414791   -1.264494    0.546719
     12          6           0       -2.819577   -2.271589    1.611007
     13          6           0       -1.368198   -1.960026    1.848628
     14          6           0       -0.695298   -1.218646    2.847019
     15          6           0        0.632593   -1.109643    2.374823
     16          6           0        0.796870   -1.905127    1.197261
     17          6           0       -4.768106   -1.793285    0.149724
     18          6           0        1.771285   -0.429368    3.251576
     19          6           0       -4.754571   -2.032263   -1.180119
     20          6           0        2.013903   -1.889358    0.235128
     21          6           0        2.140369   -0.876401   -0.655679
     22          6           0       -3.497799   -1.460712   -1.798913
     23          6           0        3.032974   -0.688571   -1.794146
     24          6           0       -1.304706   -0.539838    4.073084
     25          6           0       -5.856855   -2.123135    1.221892
     26          6           0        2.561175    0.374754   -2.558551
     27          6           0        1.971155    1.031367    2.740458
     28          6           0        1.408235    0.915508   -1.844051
     29          6           0        4.230593   -1.548835   -2.030147
     30          6           0       -5.937552   -2.408802   -2.034852
     31          6           0        5.426764   -1.239781   -1.085279
     32          6           0        3.295624    1.156551   -3.601253
     33          6           0        0.581878    2.005897   -2.048367
     34          6           0        2.979663    1.746785    3.546501
     35          6           0       -0.491295    2.298488   -1.134684
     36          6           0       -6.928442   -3.309130   -1.722027
     37          6           0        6.570308   -2.146076   -1.350324
     38          6           0       -1.268929    3.537590   -1.276880
     39          6           0       -2.144127    3.466711   -0.228437
     40          6           0       -1.963228    2.130202    0.456705
     41          6           0       -1.118277    4.628026   -2.193813
     42          6           0       -3.270730    4.347394    0.426616
     43          6           0       -1.812725    5.861411   -2.281747
     44          1           0       -3.609708   -0.259161    1.111609
     45          1           0       -2.846793   -3.312717    1.278076
     46          1           0       -3.452627   -2.170507    2.604523
     47          1           0       -0.687686   -2.740896   -0.167148
     48          1           0       -2.125929   -0.257233   -0.769240
     49          1           0        1.477110   -0.241863    4.451825
     50          1           0        2.718277   -1.090813    3.163110
     51          1           0        2.644208   -2.769304    0.330445
     52          1           0       -1.999231   -1.150599    4.312357
     53          1           0       -0.537295   -0.330767    4.759416
     54          1           0       -1.876393    0.526079    3.808470
     55          1           0       -5.688258   -1.633924    2.181273
     56          1           0       -6.034750   -3.274712    1.337118
     57          1           0       -6.900127   -1.776019    0.949050
     58          1           0        2.286386    1.022022    1.723312
     59          1           0        1.204959    1.532470    2.726216
     60          1           0        0.218992    0.220174   -0.191244
     61          1           0        4.559628   -1.371240   -3.092835
     62          1           0        3.865847   -2.542538   -1.908540
     63          1           0       -5.790913   -1.991405   -3.039556
     64          1           0        5.278133   -1.224745    0.013866
     65          1           0        5.591262   -0.229338   -1.361055
     66          1           0        3.949262    0.615784   -4.123249
     67          1           0        3.601760    2.306834   -3.292529
     68          1           0        2.660439    1.330278   -4.448561
     69          1           0        0.734717    2.573825   -2.901804
     70          1           0       -6.985618   -3.803534   -0.479889
     71          1           0       -7.767912   -3.789331   -2.310450
     72          1           0        3.970961    3.408494    3.451889
     73          1           0       -0.283416    4.643195   -2.872413
     74          1           0       -4.205438    4.657363   -0.300576
     75          1           0       -3.732998    3.904027    1.289313
     76          1           0       -2.705702    5.333642    0.500302
     77          1           0        8.484013   -2.206439   -0.897939
     78          1           0       -1.664843    6.503490   -3.008952
     79          1           0       -2.782234    6.247651   -1.873916
 ---------------------------------------------------------------------

 SCF Done:  E(RB3LYP) =  -1947.83386587     A.U. after   16 cycles

 Excitation energies and oscillator strengths:

 Excited State   1:      Singlet-A      0.9527 eV 1301.46 nm  f=0.0034  <S**2>=0.000
     155 ->156         0.70329
 This state for optimization and/or second-order correction.
 Total Energy, E(TD-HF/TD-DFT) =  -1947.79885633
 Copying the excited state density for this state as the 1-particle RhoCI density.

 The electronic state is 1-A.
 Alpha  occ. eigenvalues --  -19.18339 -19.16399 -19.15048 -19.13148 -19.12284
 Alpha  occ. eigenvalues --  -19.10806 -14.36542 -14.35848 -14.32737 -14.31239
 Alpha  occ. eigenvalues --  -10.33614 -10.31370 -10.28872 -10.28154 -10.26133
 Alpha  occ. eigenvalues --  -10.25428 -10.24742 -10.23139 -10.22939 -10.22523
 Alpha  occ. eigenvalues --  -10.22161 -10.22136 -10.22005 -10.21877 -10.21837
 Alpha  occ. eigenvalues --  -10.21684 -10.21498 -10.21380 -10.21367 -10.21030
 Alpha  occ. eigenvalues --  -10.21028 -10.20870 -10.20701 -10.20488 -10.20328
 Alpha  occ. eigenvalues --  -10.20187 -10.20071 -10.19849 -10.19186 -10.17297
 Alpha  occ. eigenvalues --  -10.16928 -10.16787 -10.16778  -1.08885  -1.07493
 Alpha  occ. eigenvalues --   -1.03683  -1.03140  -1.01262  -0.99882  -0.97388
 Alpha  occ. eigenvalues --   -0.95432  -0.93940  -0.92449  -0.83956  -0.81994
 Alpha  occ. eigenvalues --   -0.81670  -0.79863  -0.79369  -0.79242  -0.77350
 Alpha  occ. eigenvalues --   -0.76101  -0.75600  -0.74904  -0.73965  -0.72779
 Alpha  occ. eigenvalues --   -0.70790  -0.69896  -0.69703  -0.69318  -0.66786
 Alpha  occ. eigenvalues --   -0.65999  -0.65122  -0.63203  -0.61999  -0.59858
 Alpha  occ. eigenvalues --   -0.59724  -0.58874  -0.58368  -0.57184  -0.56835
 Alpha  occ. eigenvalues --   -0.55613  -0.55013  -0.54248  -0.53953  -0.52421
 Alpha  occ. eigenvalues --   -0.52004  -0.51934  -0.50857  -0.50080  -0.49686
 Alpha  occ. eigenvalues --   -0.49131  -0.48998  -0.48662  -0.48326  -0.47855
 Alpha  occ. eigenvalues --   -0.46938  -0.46402  -0.46288  -0.45818  -0.45652
 Alpha  occ. eigenvalues --   -0.45263  -0.44721  -0.44483  -0.44079  -0.43993
 Alpha  occ. eigenvalues --   -0.43225  -0.42689  -0.42579  -0.42300  -0.42014
 Alpha  occ. eigenvalues --   -0.41801  -0.41249  -0.41073  -0.40938  -0.40358
 Alpha  occ. eigenvalues --   -0.40332  -0.40055  -0.39867  -0.39713  -0.39502
 Alpha  occ. eigenvalues --   -0.39112  -0.38880  -0.38815  -0.38432  -0.38032
 Alpha  occ. eigenvalues --   -0.37898  -0.37431  -0.37109  -0.36710  -0.36624
 Alpha  occ. eigenvalues --   -0.36321  -0.36001  -0.35364  -0.35275  -0.35098
 Alpha  occ. eigenvalues --   -0.33504  -0.33168  -0.32388  -0.31967  -0.31709
 Alpha  occ. eigenvalues --   -0.31018  -0.30212  -0.30113  -0.29772  -0.29360
 Alpha  occ. eigenvalues --   -0.27544  -0.26827  -0.26389  -0.26159  -0.25023
 Alpha  occ. eigenvalues --   -0.23789  -0.23272  -0.22558  -0.21936  -0.18417
 Alpha virt. eigenvalues --   -0.12546  -0.07947  -0.04160  -0.03098  -0.01817
 Alpha virt. eigenvalues --    0.00603   0.00851   0.02221   0.02375   0.03437
 Alpha virt. eigenvalues --    0.03889   0.04391   0.04955   0.05243   0.05583

 Mulliken charges:
               1
     1  O   -0.174302
     2  O   -0.197432
     3  O   -0.226535
     4  O   -0.260595
     5  O   -0.194137
     6  O   -0.206392
     7  N   -0.142893
     8  N   -0.246155
     9  N   -0.176392
    10  N   -0.266290
    11  C    0.031416
    12  C    0.167532
    13  C   -0.081935
    14  C   -0.108207
    15  C   -0.114263
    16  C   -0.026742
    17  C   -0.127578
    18  C   -0.008802
    19  C   -0.112187
    20  C   -0.155158
    21  C    0.220425
    22  C    0.143735
    23  C   -0.105860
    24  C    0.185067
    25  C    0.043234
    26  C   -0.106917
    27  C    0.164528
    28  C    0.117101
    29  C    0.133595
    30  C    0.037087
    31  C    0.003829
    32  C    0.158916
    33  C   -0.092286
    34  C    0.134077
    35  C    0.115680
    36  C   -0.120211
    37  C    0.171029
    38  C    0.070011
    39  C   -0.191264
    40  C    0.173820
    41  C   -0.026984
    42  C    0.040681
    43  C   -0.008546
    44  H    0.059980
    45  H   -0.020226
    46  H    0.011079
    47  H    0.156369
    48  H    0.158321
    49  H    0.049854
    50  H    0.024592
    51  H    0.009615
    52  H   -0.048587
    53  H   -0.015666
    54  H    0.048130
    55  H    0.019716
    56  H    0.056188
    57  H    0.035595
    58  H    0.013888
    59  H   -0.059260
    60  H    0.206710
    61  H    0.022059
    62  H    0.019066
    63  H    0.015690
    64  H    0.057727
    65  H    0.033369
    66  H   -0.038849
    67  H    0.067636
    68  H   -0.003161
    69  H   -0.056284
    70  H    0.028857
    71  H    0.050031
    72  H    0.140890
    73  H   -0.008185
    74  H    0.046449
    75  H    0.040919
    76  H    0.045790
    77  H    0.192886
    78  H   -0.018428
    79  H    0.023541
 Sum of Mulliken charges =  -0.00000

 Dipole moment (field-independent basis, Debye):
    X=              2.2437    Y=              3.2512    Z=             -2.9013  Tot=              4.9012
 Quadrupole moment (field-independent basis, Debye-Ang):
   XX=           -225.7436   YY=           -238.1209   ZZ=           -269.2987
   XY=              5.1043   XZ=            -23.4853   YZ=            -14.0604

 Normal termination of Gaussian 16 at Thu Jul 25 04:52:15 2019.
