 Gaussian 16, Revision A.03,
 Gaussian 16:  ES64L-G16RevA.03 25-Dec-2016

 --------------------------
 # td=(NStates=1) B3LYP/SVP
 --------------------------

 --
 TD
 --
 Symbolic Z-matrix:
 Charge =  0 Multiplicity = 1

                         Standard orientation:
 ---------------------------------------------------------------------
 Center     Atomic      Atomic             Coordinates (Angstroms)
 Number     Number       Type             X           Y           Z
 ---------------------------------------------------------------------
      1          8           0        5.298032   -0.108588   -3.298789
      2          8           0       -3.043566   -2.979274    3.284376
      3          8           0       -3.257519   -0.746651    3.193473
      4          8           0       -1.874297    7.265643    1.326772
      5          8           0       -0.832422    6.959021   -0.632386
      6          8           0       -1.551331   -4.131898    0.088560
      7          7           0        2.276994    1.057146    0.533454
      8          7           0        4.371715   -0.432017   -1.119673
      9          7           0       -1.901429    0.640939   -0.268013
     10          7           0       -2.386076   -1.996196   -0.470781
     11          6           0        4.773755   -0.949332    0.090726
     12          6           0        4.315890   -0.038354    1.289616
     13          6           0        2.884306    0.113705    1.416030
     14          6           0        1.874249   -0.433794    2.274273
     15          6           0        0.704939    0.057785    1.752316
     16          6           0        0.900627    0.987942    0.740762
     17          6           0        6.237317   -1.189096   -0.027603
     18          6           0       -0.572293   -0.228003    2.546070
     19          6           0        6.646961   -0.820953   -1.300752
     20          6           0        0.076468    1.923641    0.130166
     21          6           0       -1.238177    1.882575   -0.273691
     22          6           0        5.445700   -0.439604   -2.083236
     23          6           0       -2.089644    2.835225   -0.908471
     24          6           0        2.289753   -1.433777    3.237016
     25          6           0        7.018728   -1.832541    0.973532
     26          6           0       -3.173123    2.140603   -1.331154
     27          6           0       -1.100621   -1.618394    2.576272
     28          6           0       -3.062101    0.794977   -0.969770
     29          6           0       -1.768965    4.373297   -1.046113
     30          6           0        7.934985   -0.778596   -2.117758
     31          6           0       -2.055358    5.111813    0.301041
     32          6           0       -4.400351    2.814458   -2.040056
     33          6           0       -3.909803   -0.286796   -1.303720
     34          6           0       -2.519842   -1.765982    3.039219
     35          6           0       -3.570362   -1.575121   -1.058424
     36          6           0        9.103202   -0.553525   -1.539411
     37          6           0       -1.557522    6.495495    0.287117
     38          6           0       -4.292143   -2.754590   -1.570122
     39          6           0       -3.618876   -3.903760   -1.103146
     40          6           0       -2.398354   -3.362018   -0.495424
     41          6           0       -5.602906   -2.696072   -2.209267
     42          6           0       -3.789574   -5.334822   -1.284348
     43          6           0       -6.420192   -3.672920   -2.463297
     44          1           0        4.489350   -1.961028    0.328349
     45          1           0        4.927380    0.833973    1.002725
     46          1           0        4.663246   -0.495114    2.328117
     47          1           0        2.539054    1.703160   -0.205552
     48          1           0        3.391453   -0.516279   -1.593267
     49          1           0       -0.575253    0.295762    3.605184
     50          1           0       -1.489454    0.291540    2.075149
     51          1           0        0.470540    3.019733   -0.187143
     52          1           0        3.197029   -1.322357    3.865039
     53          1           0        1.436313   -1.291387    4.070877
     54          1           0        2.040940   -2.538228    3.020565
     55          1           0        6.274243   -2.602790    1.208375
     56          1           0        7.356587   -1.091669    1.929939
     57          1           0        8.053192   -2.079807    0.610814
     58          1           0       -0.833094   -2.093718    1.701792
     59          1           0       -0.566351   -2.369748    3.242170
     60          1           0       -1.713018   -0.397681   -0.083394
     61          1           0       -2.258094    4.879053   -1.937358
     62          1           0       -0.577888    4.302860   -1.151250
     63          1           0        7.613940   -0.928859   -3.335587
     64          1           0       -1.667047    4.628848    1.262612
     65          1           0       -3.239047    5.235399    0.648856
     66          1           0       -4.221128    3.947275   -2.172082
     67          1           0       -5.288406    2.637872   -1.411195
     68          1           0       -4.393671    2.438256   -3.109501
     69          1           0       -4.786900   -0.122726   -1.733241
     70          1           0        9.023289   -0.305464   -0.451287
     71          1           0       10.016990   -0.760921   -2.266938
     72          1           0       -4.127976   -2.879573    3.409636
     73          1           0       -6.048515   -1.594962   -2.391135
     74          1           0       -4.824674   -5.493180   -0.831735
     75          1           0       -3.721121   -5.619404   -2.338032
     76          1           0       -2.997964   -5.978902   -0.762656
     77          1           0       -1.324565    8.148509    1.158661
     78          1           0       -7.435067   -3.367000   -2.870117
     79          1           0       -6.243957   -4.687358   -2.228693
 ---------------------------------------------------------------------

 SCF Done:  E(RB3LYP) =  -1947.85331485     A.U. after   19 cycles

 Excitation energies and oscillator strengths:

 Excited State   1:      Singlet-A      2.0387 eV  608.16 nm  f=0.2376  <S**2>=0.000
     154 ->156         0.39843
     155 ->156         0.57982
 This state for optimization and/or second-order correction.
 Total Energy, E(TD-HF/TD-DFT) =  -1947.77839514
 Copying the excited state density for this state as the 1-particle RhoCI density.

 The electronic state is 1-A.
 Alpha  occ. eigenvalues --  -19.20025 -19.17699 -19.12635 -19.10899 -19.10083
 Alpha  occ. eigenvalues --  -19.08233 -14.39075 -14.36071 -14.35986 -14.28298
 Alpha  occ. eigenvalues --  -10.32869 -10.30805 -10.29100 -10.24807 -10.24682
 Alpha  occ. eigenvalues --  -10.24677 -10.24554 -10.24158 -10.24152 -10.24047
 Alpha  occ. eigenvalues --  -10.23650 -10.23529 -10.22772 -10.22714 -10.22681
 Alpha  occ. eigenvalues --  -10.22230 -10.21705 -10.21699 -10.21611 -10.21542
 Alpha  occ. eigenvalues --  -10.21000 -10.20754 -10.20560 -10.20557 -10.20376
 Alpha  occ. eigenvalues --  -10.19835 -10.19744 -10.19405 -10.18914 -10.18732
 Alpha  occ. eigenvalues --  -10.18593 -10.18173 -10.17889  -1.10053  -1.06273
 Alpha  occ. eigenvalues --   -1.00691  -0.98870  -0.98771  -0.98357  -0.96962
 Alpha  occ. eigenvalues --   -0.95658  -0.94770  -0.90097  -0.83219  -0.82887
 Alpha  occ. eigenvalues --   -0.82637  -0.82301  -0.80098  -0.79766  -0.78443
 Alpha  occ. eigenvalues --   -0.78142  -0.77197  -0.76504  -0.74966  -0.73290
 Alpha  occ. eigenvalues --   -0.72025  -0.71865  -0.69722  -0.69147  -0.68717
 Alpha  occ. eigenvalues --   -0.66579  -0.66378  -0.63822  -0.60265  -0.59629
 Alpha  occ. eigenvalues --   -0.59436  -0.59124  -0.58116  -0.57568  -0.56866
 Alpha  occ. eigenvalues --   -0.56674  -0.55940  -0.55308  -0.54633  -0.52948
 Alpha  occ. eigenvalues --   -0.52605  -0.51446  -0.50756  -0.50582  -0.49829
 Alpha  occ. eigenvalues --   -0.49348  -0.48924  -0.48338  -0.47607  -0.47460
 Alpha  occ. eigenvalues --   -0.46936  -0.46796  -0.46420  -0.46003  -0.45900
 Alpha  occ. eigenvalues --   -0.45551  -0.45258  -0.44787  -0.44049  -0.43673
 Alpha  occ. eigenvalues --   -0.43601  -0.43313  -0.42921  -0.42870  -0.42459
 Alpha  occ. eigenvalues --   -0.42222  -0.41900  -0.41699  -0.41128  -0.41021
 Alpha  occ. eigenvalues --   -0.40812  -0.40440  -0.39754  -0.39653  -0.39533
 Alpha  occ. eigenvalues --   -0.39128  -0.38846  -0.38212  -0.38192  -0.38106
 Alpha  occ. eigenvalues --   -0.37647  -0.37252  -0.37084  -0.36992  -0.36692
 Alpha  occ. eigenvalues --   -0.36469  -0.36286  -0.35214  -0.34698  -0.34021
 Alpha  occ. eigenvalues --   -0.33207  -0.32599  -0.32144  -0.31450  -0.31081
 Alpha  occ. eigenvalues --   -0.30796  -0.29447  -0.28665  -0.28294  -0.26929
 Alpha  occ. eigenvalues --   -0.26679  -0.26422  -0.26272  -0.25850  -0.25490
 Alpha  occ. eigenvalues --   -0.24743  -0.23637  -0.22623  -0.21370  -0.19370
 Alpha virt. eigenvalues --   -0.11193  -0.06635  -0.06166  -0.01702  -0.00939
 Alpha virt. eigenvalues --    0.00021   0.00690   0.01005   0.01977   0.02157
 Alpha virt. eigenvalues --    0.02631   0.02839   0.03537   0.03942   0.04410

 Mulliken charges:
               1
     1  O   -0.268169
     2  O   -0.231535
     3  O   -0.306616
     4  O   -0.202388
     5  O   -0.290271
     6  O   -0.295133
     7  N   -0.113230
     8  N   -0.230548
     9  N   -0.117880
    10  N   -0.301875
    11  C    0.116962
    12  C    0.145186
    13  C   -0.023018
    14  C   -0.040271
    15  C   -0.089036
    16  C    0.147279
    17  C   -0.189545
    18  C    0.000814
    19  C   -0.083523
    20  C   -0.133144
    21  C    0.049666
    22  C    0.167951
    23  C   -0.039728
    24  C    0.007443
    25  C    0.032221
    26  C   -0.165299
    27  C    0.056501
    28  C    0.103342
    29  C    0.081869
    30  C   -0.032977
    31  C   -0.056478
    32  C    0.076833
    33  C   -0.042812
    34  C    0.171408
    35  C    0.126221
    36  C   -0.049468
    37  C    0.148635
    38  C    0.035321
    39  C   -0.176712
    40  C    0.154207
    41  C   -0.045788
    42  C    0.059363
    43  C   -0.030310
    44  H    0.001729
    45  H    0.002161
    46  H    0.009422
    47  H    0.126715
    48  H    0.165024
    49  H    0.031772
    50  H    0.030532
    51  H    0.015768
    52  H    0.036512
    53  H    0.022323
    54  H    0.059493
    55  H    0.039074
    56  H    0.056476
    57  H    0.039360
    58  H    0.024382
    59  H    0.009073
    60  H    0.174161
    61  H    0.052112
    62  H    0.047946
    63  H    0.078954
    64  H    0.066404
    65  H    0.066659
    66  H    0.016941
    67  H    0.048943
    68  H    0.042319
    69  H   -0.112591
    70  H    0.037950
    71  H    0.059892
    72  H    0.245494
    73  H    0.014844
    74  H    0.039582
    75  H    0.036165
    76  H    0.044202
    77  H    0.225970
    78  H    0.026198
    79  H   -0.007428
 Sum of Mulliken charges =  -0.00000

 Dipole moment (field-independent basis, Debye):
    X=              1.2573    Y=              3.2177    Z=              3.3973  Tot=              4.8452
 Quadrupole moment (field-independent basis, Debye-Ang):
   XX=           -221.2147   YY=           -250.0538   ZZ=           -264.9134
   XY=            -12.8608   XZ=             31.7259   YZ=              4.3616

 Normal termination of Gaussian 16 at Tue Oct  8 18:06:44 2019.
