 Gaussian 16, Revision A.03,
 Gaussian 16:  ES64L-G16RevA.03 25-Dec-2016

 --------------------------
 # td=(NStates=1) B3LYP/SVP
 --------------------------

 --
 TD
 --
 Symbolic Z-matrix:
 Charge =  0 Multiplicity = 1

                         Standard orientation:
 ---------------------------------------------------------------------
 Center     Atomic      Atomic             Coordinates (Angstroms)
 Number     Number       Type             X           Y           Z
 ---------------------------------------------------------------------
      1          8           0        5.109052   -0.686309   -3.317938
      2          8           0       -2.862667   -2.811509    3.372855
      3          8           0       -3.280971   -0.653463    3.194834
      4          8           0       -1.840999    7.363991    1.120114
      5          8           0       -0.873902    6.949412   -0.852070
      6          8           0       -1.421820   -3.966456    0.163752
      7          7           0        2.364325    1.232354    0.586330
      8          7           0        4.308283   -0.675571   -1.129371
      9          7           0       -1.911279    0.643985   -0.418460
     10          7           0       -2.424341   -2.019149   -0.509559
     11          6           0        4.794966   -1.018359    0.182133
     12          6           0        4.414958    0.000397    1.346128
     13          6           0        2.942970    0.311952    1.407772
     14          6           0        1.933714   -0.288770    2.207193
     15          6           0        0.644894    0.162374    1.773588
     16          6           0        0.830995    1.066497    0.786278
     17          6           0        6.273280   -1.041470   -0.001844
     18          6           0       -0.629086    0.037692    2.623376
     19          6           0        6.503720   -0.806089   -1.389048
     20          6           0        0.152139    1.922294   -0.087740
     21          6           0       -1.224315    1.813152   -0.508492
     22          6           0        5.341416   -0.755909   -2.169120
     23          6           0       -2.062618    2.933235   -0.953851
     24          6           0        2.188420   -1.262553    3.263267
     25          6           0        7.189889   -1.366016    1.192949
     26          6           0       -3.204654    2.237700   -1.363005
     27          6           0       -1.096105   -1.471267    2.648072
     28          6           0       -3.039419    0.802186   -1.121680
     29          6           0       -1.899422    4.337382   -1.064931
     30          6           0        7.831960   -0.806665   -2.188740
     31          6           0       -2.120188    5.146429    0.233350
     32          6           0       -4.618444    2.730300   -1.885009
     33          6           0       -3.834281   -0.389114   -1.432067
     34          6           0       -2.503210   -1.533744    3.191838
     35          6           0       -3.542072   -1.639120   -1.118495
     36          6           0        9.094449   -0.740553   -1.719005
     37          6           0       -1.507787    6.539255    0.184106
     38          6           0       -4.417221   -3.008582   -1.327934
     39          6           0       -3.595850   -3.984986   -0.899338
     40          6           0       -2.382199   -3.391626   -0.310814
     41          6           0       -5.606772   -2.977755   -2.134934
     42          6           0       -3.719162   -5.465628   -1.043897
     43          6           0       -6.431586   -4.044109   -2.328450
     44          1           0        4.419377   -2.015906    0.532910
     45          1           0        4.916749    0.907722    1.269716
     46          1           0        4.653486   -0.624783    2.220370
     47          1           0        2.587343    1.732620   -0.404359
     48          1           0        3.265710   -1.048376   -1.489705
     49          1           0       -0.412229    0.234471    3.587002
     50          1           0       -1.519855    0.631947    2.284525
     51          1           0        0.738785    2.754292   -0.444524
     52          1           0        3.254350   -1.358192    3.538888
     53          1           0        1.798181   -0.814855    4.023680
     54          1           0        1.773882   -2.363400    3.029827
     55          1           0        6.961125   -2.019697    2.015110
     56          1           0        7.411476   -0.426515    1.726152
     57          1           0        8.000577   -1.700106    0.763862
     58          1           0       -0.999233   -2.130597    1.718237
     59          1           0       -0.199065   -2.082345    3.262710
     60          1           0       -1.598037   -0.417069   -0.351357
     61          1           0       -2.569357    4.886118   -1.902398
     62          1           0       -0.959634    4.508536   -1.582790
     63          1           0        7.645755   -0.934220   -3.201754
     64          1           0       -1.320557    4.679291    1.020579
     65          1           0       -3.098469    4.928577    0.781348
     66          1           0       -4.803640    3.834491   -1.934842
     67          1           0       -5.450472    2.469002   -1.162664
     68          1           0       -4.744101    2.557332   -3.094155
     69          1           0       -4.804750   -0.202652   -1.861525
     70          1           0        9.537165   -0.645852   -0.733315
     71          1           0        9.745802   -0.542552   -2.366503
     72          1           0       -3.749801   -2.866325    3.382868
     73          1           0       -6.018425   -2.001056   -2.609950
     74          1           0       -4.442061   -5.870647   -0.223429
     75          1           0       -3.713670   -5.892409   -2.093630
     76          1           0       -2.633738   -5.699151   -0.736605
     77          1           0       -1.496729    8.253513    0.782825
     78          1           0       -7.161566   -3.868304   -2.958223
     79          1           0       -6.223092   -4.980741   -1.893780
 ---------------------------------------------------------------------

 SCF Done:  E(RB3LYP) =  -1947.78704115     A.U. after   19 cycles

 Excitation energies and oscillator strengths:

 Excited State   1:      Singlet-A      1.9967 eV  620.95 nm  f=0.4571  <S**2>=0.000
     154 ->156         0.12151
     155 ->156         0.69973
     155 <-156        -0.12870
 This state for optimization and/or second-order correction.
 Total Energy, E(TD-HF/TD-DFT) =  -1947.71366391
 Copying the excited state density for this state as the 1-particle RhoCI density.

 The electronic state is 1-A.
 Alpha  occ. eigenvalues --  -19.20886 -19.15552 -19.12352 -19.11609 -19.11531
 Alpha  occ. eigenvalues --  -19.08748 -14.38772 -14.36513 -14.34774 -14.27418
 Alpha  occ. eigenvalues --  -10.33506 -10.30309 -10.28517 -10.25118 -10.24831
 Alpha  occ. eigenvalues --  -10.24699 -10.24589 -10.24231 -10.24127 -10.23670
 Alpha  occ. eigenvalues --  -10.23320 -10.22476 -10.22036 -10.21625 -10.21550
 Alpha  occ. eigenvalues --  -10.21476 -10.21352 -10.21344 -10.21185 -10.20903
 Alpha  occ. eigenvalues --  -10.20688 -10.20442 -10.19855 -10.19776 -10.19752
 Alpha  occ. eigenvalues --  -10.19463 -10.19246 -10.19168 -10.18533 -10.18407
 Alpha  occ. eigenvalues --  -10.17993 -10.17564 -10.17235  -1.12373  -1.10228
 Alpha  occ. eigenvalues --   -1.05335  -1.01234  -1.00341  -0.99185  -0.98105
 Alpha  occ. eigenvalues --   -0.95901  -0.93269  -0.90317  -0.83126  -0.82009
 Alpha  occ. eigenvalues --   -0.81344  -0.80725  -0.79554  -0.78857  -0.77432
 Alpha  occ. eigenvalues --   -0.77280  -0.76109  -0.75756  -0.74258  -0.73040
 Alpha  occ. eigenvalues --   -0.72682  -0.71455  -0.69310  -0.68298  -0.67496
 Alpha  occ. eigenvalues --   -0.67362  -0.66535  -0.63291  -0.61590  -0.61395
 Alpha  occ. eigenvalues --   -0.60591  -0.58724  -0.57790  -0.57626  -0.56817
 Alpha  occ. eigenvalues --   -0.56155  -0.55365  -0.54517  -0.53877  -0.52998
 Alpha  occ. eigenvalues --   -0.51880  -0.51192  -0.50823  -0.50644  -0.49663
 Alpha  occ. eigenvalues --   -0.49024  -0.48804  -0.48234  -0.47714  -0.47363
 Alpha  occ. eigenvalues --   -0.47245  -0.46949  -0.46606  -0.46233  -0.45964
 Alpha  occ. eigenvalues --   -0.45036  -0.45009  -0.44782  -0.44704  -0.44441
 Alpha  occ. eigenvalues --   -0.43777  -0.43606  -0.42942  -0.42897  -0.42718
 Alpha  occ. eigenvalues --   -0.42155  -0.42021  -0.41839  -0.41669  -0.41478
 Alpha  occ. eigenvalues --   -0.41199  -0.41039  -0.40704  -0.40206  -0.40012
 Alpha  occ. eigenvalues --   -0.39505  -0.39044  -0.38798  -0.38608  -0.38475
 Alpha  occ. eigenvalues --   -0.37830  -0.37599  -0.37208  -0.37111  -0.36279
 Alpha  occ. eigenvalues --   -0.35448  -0.34945  -0.34858  -0.34532  -0.33399
 Alpha  occ. eigenvalues --   -0.33037  -0.32638  -0.31851  -0.31675  -0.31335
 Alpha  occ. eigenvalues --   -0.31197  -0.30634  -0.29042  -0.28088  -0.27525
 Alpha  occ. eigenvalues --   -0.27422  -0.26220  -0.26060  -0.25461  -0.25134
 Alpha  occ. eigenvalues --   -0.24454  -0.23474  -0.23259  -0.21586  -0.18104
 Alpha virt. eigenvalues --   -0.10429  -0.07490  -0.05798  -0.01784  -0.00360
 Alpha virt. eigenvalues --    0.00230   0.00683   0.01556   0.01900   0.02229
 Alpha virt. eigenvalues --    0.03015   0.03957   0.04260   0.04585   0.05539

 Mulliken charges:
               1
     1  O   -0.156781
     2  O   -0.123194
     3  O   -0.194656
     4  O   -0.133851
     5  O   -0.314664
     6  O   -0.228562
     7  N   -0.220649
     8  N   -0.317555
     9  N   -0.060205
    10  N   -0.298497
    11  C    0.078889
    12  C    0.257054
    13  C   -0.033442
    14  C   -0.181879
    15  C   -0.054158
    16  C    0.116126
    17  C   -0.163402
    18  C    0.155193
    19  C   -0.101363
    20  C   -0.096359
    21  C    0.042368
    22  C    0.162233
    23  C   -0.021533
    24  C    0.151880
    25  C    0.165283
    26  C   -0.109829
    27  C   -0.174389
    28  C    0.044285
    29  C    0.051040
    30  C    0.029785
    31  C   -0.042517
    32  C    0.010971
    33  C   -0.073918
    34  C    0.145099
    35  C    0.073449
    36  C    0.052783
    37  C    0.146682
    38  C    0.105049
    39  C   -0.225028
    40  C    0.153276
    41  C   -0.121219
    42  C    0.041115
    43  C    0.075713
    44  H    0.028314
    45  H   -0.026198
    46  H   -0.008434
    47  H    0.180987
    48  H    0.166407
    49  H   -0.020762
    50  H    0.044653
    51  H   -0.011521
    52  H   -0.015484
    53  H   -0.029426
    54  H    0.078043
    55  H    0.022908
    56  H    0.030502
    57  H   -0.014823
    58  H    0.097727
    59  H    0.031205
    60  H    0.189704
    61  H    0.035828
    62  H    0.020445
    63  H   -0.006042
    64  H    0.055615
    65  H    0.063622
    66  H    0.001240
    67  H    0.052121
    68  H    0.052469
    69  H   -0.042565
    70  H    0.008742
    71  H   -0.037832
    72  H    0.125937
    73  H    0.016729
    74  H    0.049115
    75  H    0.040685
    76  H    0.025732
    77  H    0.207184
    78  H   -0.027068
    79  H    0.003618
 Sum of Mulliken charges =  -0.00000

 Dipole moment (field-independent basis, Debye):
    X=              2.8749    Y=              4.0148    Z=              3.8929  Tot=              6.2879
 Quadrupole moment (field-independent basis, Debye-Ang):
   XX=           -214.0316   YY=           -247.4961   ZZ=           -260.9415
   XY=            -11.0683   XZ=             30.4390   YZ=              2.6839

 Normal termination of Gaussian 16 at Mon Sep 30 19:57:34 2019.
