 Gaussian 16, Revision A.03,
 Gaussian 16:  ES64L-G16RevA.03 25-Dec-2016

 --------------------------
 # td=(NStates=1) B3LYP/SVP
 --------------------------

 --
 TD
 --
 Symbolic Z-matrix:
 Charge =  0 Multiplicity = 1

                         Standard orientation:
 ---------------------------------------------------------------------
 Center     Atomic      Atomic             Coordinates (Angstroms)
 Number     Number       Type             X           Y           Z
 ---------------------------------------------------------------------
      1          8           0        5.276064   -0.280040   -3.317369
      2          8           0       -2.937489   -2.975837    2.985574
      3          8           0       -3.386395   -0.733166    2.995568
      4          8           0       -1.706710    7.074335    1.480625
      5          8           0       -1.086371    7.103544   -0.691965
      6          8           0       -1.537562   -3.968027    0.079950
      7          7           0        2.381014    1.238185    0.630494
      8          7           0        4.311110   -0.534631   -1.149566
      9          7           0       -1.804948    0.704852   -0.502897
     10          7           0       -2.449081   -1.946119   -0.372703
     11          6           0        4.748454   -1.077961    0.097212
     12          6           0        4.363766   -0.132529    1.329978
     13          6           0        2.964518    0.240398    1.447344
     14          6           0        1.915704   -0.372002    2.080834
     15          6           0        0.742605    0.104205    1.796510
     16          6           0        0.964274    1.095368    0.784724
     17          6           0        6.288971   -1.187396   -0.042008
     18          6           0       -0.641652   -0.088843    2.505208
     19          6           0        6.617882   -0.808759   -1.377044
     20          6           0        0.124780    2.055906    0.197584
     21          6           0       -1.119529    1.896759   -0.339176
     22          6           0        5.360621   -0.464894   -2.034963
     23          6           0       -2.083383    2.905467   -1.016582
     24          6           0        2.048452   -1.400631    3.129261
     25          6           0        7.107603   -1.702591    1.001475
     26          6           0       -3.225505    2.203684   -1.426560
     27          6           0       -1.082573   -1.615554    2.633319
     28          6           0       -3.067400    0.848289   -1.054164
     29          6           0       -1.728150    4.254692   -1.019125
     30          6           0        7.934724   -0.711827   -2.011131
     31          6           0       -1.931962    5.083149    0.344201
     32          6           0       -4.433991    2.763602   -2.125984
     33          6           0       -3.847787   -0.307872   -1.385498
     34          6           0       -2.571813   -1.672718    2.894652
     35          6           0       -3.578570   -1.630629   -1.050551
     36          6           0        9.120695   -0.957258   -1.502179
     37          6           0       -1.477790    6.533470    0.259022
     38          6           0       -4.416725   -2.864235   -1.366481
     39          6           0       -3.583046   -3.899200   -0.989530
     40          6           0       -2.405605   -3.293718   -0.366747
     41          6           0       -5.729594   -2.807354   -1.884814
     42          6           0       -3.781224   -5.381131   -1.086684
     43          6           0       -6.641500   -3.756457   -2.194638
     44          1           0        4.258282   -2.055441    0.299012
     45          1           0        5.126072    0.763631    1.122569
     46          1           0        4.740177   -0.692397    2.210701
     47          1           0        2.967936    1.816660   -0.113774
     48          1           0        3.395772   -0.528807   -1.493959
     49          1           0       -0.732774    0.582247    3.295733
     50          1           0       -1.305536    0.393437    1.672297
     51          1           0        0.584803    3.043247   -0.269364
     52          1           0        3.039036   -1.616168    3.230811
     53          1           0        1.542855   -0.974666    3.993784
     54          1           0        1.393299   -2.332717    2.839289
     55          1           0        6.708838   -2.480482    1.683432
     56          1           0        7.612014   -1.009735    1.521249
     57          1           0        7.809305   -2.485839    0.565371
     58          1           0       -0.987533   -2.487841    1.721512
     59          1           0       -0.610713   -1.914205    3.576620
     60          1           0       -1.545680   -0.120731   -0.236433
     61          1           0       -2.208806    4.947754   -1.816987
     62          1           0       -0.689340    4.427312   -1.306145
     63          1           0        7.834882   -0.211293   -3.063331
     64          1           0       -1.289562    4.674079    1.200951
     65          1           0       -3.016799    5.100763    0.544318
     66          1           0       -4.156537    3.621579   -2.560308
     67          1           0       -5.393849    2.972661   -1.418067
     68          1           0       -4.727003    1.964692   -2.868254
     69          1           0       -4.716217   -0.193744   -2.167773
     70          1           0        9.430547   -1.203294   -0.433714
     71          1           0       10.072749   -0.783799   -2.057991
     72          1           0       -3.855516   -2.967054    3.284908
     73          1           0       -5.987448   -1.768908   -2.232671
     74          1           0       -4.475827   -5.934155   -0.019035
     75          1           0       -4.203834   -5.655725   -2.350504
     76          1           0       -2.849468   -5.865843   -0.853320
     77          1           0       -1.553667    8.027526    1.456169
     78          1           0       -7.587673   -3.445062   -2.682024
     79          1           0       -6.393249   -4.718725   -2.136233
 ---------------------------------------------------------------------

 SCF Done:  E(RB3LYP) =  -1947.83476780     A.U. after   19 cycles

 Excitation energies and oscillator strengths:

 Excited State   1:      Singlet-A      2.0009 eV  619.64 nm  f=0.4697  <S**2>=0.000
     154 ->156         0.14819
     155 ->156         0.69044
     155 <-156        -0.12404
 This state for optimization and/or second-order correction.
 Total Energy, E(TD-HF/TD-DFT) =  -1947.76123606
 Copying the excited state density for this state as the 1-particle RhoCI density.

 The electronic state is 1-A.
 Alpha  occ. eigenvalues --  -19.18883 -19.16777 -19.14211 -19.11028 -19.09362
 Alpha  occ. eigenvalues --  -19.09096 -14.39560 -14.36282 -14.36057 -14.27914
 Alpha  occ. eigenvalues --  -10.32842 -10.30592 -10.28771 -10.25820 -10.25073
 Alpha  occ. eigenvalues --  -10.24568 -10.24535 -10.23824 -10.23372 -10.23327
 Alpha  occ. eigenvalues --  -10.23125 -10.22898 -10.22567 -10.22178 -10.22158
 Alpha  occ. eigenvalues --  -10.21968 -10.21545 -10.21245 -10.21130 -10.20926
 Alpha  occ. eigenvalues --  -10.20667 -10.20593 -10.20471 -10.20251 -10.20220
 Alpha  occ. eigenvalues --  -10.19716 -10.19645 -10.19588 -10.19069 -10.18866
 Alpha  occ. eigenvalues --  -10.18727 -10.18357 -10.17797  -1.11199  -1.07518
 Alpha  occ. eigenvalues --   -1.03173  -1.02645  -1.00051  -0.98608  -0.97510
 Alpha  occ. eigenvalues --   -0.97391  -0.93337  -0.91844  -0.83354  -0.83173
 Alpha  occ. eigenvalues --   -0.82569  -0.82163  -0.79981  -0.79818  -0.78092
 Alpha  occ. eigenvalues --   -0.77300  -0.75965  -0.75810  -0.74306  -0.73214
 Alpha  occ. eigenvalues --   -0.72962  -0.71886  -0.70078  -0.69532  -0.68421
 Alpha  occ. eigenvalues --   -0.67296  -0.66161  -0.63381  -0.61857  -0.61156
 Alpha  occ. eigenvalues --   -0.60678  -0.59573  -0.58728  -0.57957  -0.57328
 Alpha  occ. eigenvalues --   -0.56666  -0.55292  -0.54634  -0.54437  -0.53222
 Alpha  occ. eigenvalues --   -0.52521  -0.51847  -0.50945  -0.50488  -0.50335
 Alpha  occ. eigenvalues --   -0.49326  -0.49037  -0.48874  -0.47898  -0.47447
 Alpha  occ. eigenvalues --   -0.47088  -0.46917  -0.46673  -0.46380  -0.46358
 Alpha  occ. eigenvalues --   -0.45984  -0.45472  -0.45143  -0.44776  -0.43725
 Alpha  occ. eigenvalues --   -0.43121  -0.43070  -0.42857  -0.42676  -0.42430
 Alpha  occ. eigenvalues --   -0.42285  -0.41788  -0.41433  -0.41228  -0.40810
 Alpha  occ. eigenvalues --   -0.40663  -0.40526  -0.40188  -0.39654  -0.39407
 Alpha  occ. eigenvalues --   -0.39029  -0.38887  -0.38531  -0.38439  -0.38233
 Alpha  occ. eigenvalues --   -0.38058  -0.37645  -0.37394  -0.36798  -0.36309
 Alpha  occ. eigenvalues --   -0.35994  -0.35805  -0.34844  -0.34646  -0.34088
 Alpha  occ. eigenvalues --   -0.33926  -0.33706  -0.33408  -0.32523  -0.31591
 Alpha  occ. eigenvalues --   -0.30870  -0.30396  -0.29512  -0.28869  -0.27263
 Alpha  occ. eigenvalues --   -0.26718  -0.26271  -0.25958  -0.25620  -0.24672
 Alpha  occ. eigenvalues --   -0.24428  -0.23521  -0.23501  -0.21612  -0.18841
 Alpha virt. eigenvalues --   -0.11142  -0.07189  -0.06538  -0.01263   0.00196
 Alpha virt. eigenvalues --    0.00292   0.00466   0.01407   0.02407   0.03070
 Alpha virt. eigenvalues --    0.03188   0.03455   0.04546   0.04876   0.05143

 Mulliken charges:
               1
     1  O   -0.310107
     2  O   -0.181018
     3  O   -0.271094
     4  O   -0.191042
     5  O   -0.179015
     6  O   -0.191077
     7  N   -0.182662
     8  N   -0.138242
     9  N    0.008091
    10  N   -0.247964
    11  C    0.082919
    12  C    0.090345
    13  C   -0.003429
    14  C   -0.174128
    15  C   -0.044230
    16  C    0.049767
    17  C   -0.175031
    18  C    0.107767
    19  C   -0.011048
    20  C   -0.087584
    21  C    0.050861
    22  C    0.143355
    23  C    0.013308
    24  C    0.147885
    25  C    0.105061
    26  C   -0.150778
    27  C   -0.066998
    28  C    0.128497
    29  C   -0.003082
    30  C    0.014982
    31  C   -0.032084
    32  C    0.127959
    33  C   -0.140164
    34  C    0.152899
    35  C    0.054437
    36  C   -0.078932
    37  C    0.115429
    38  C    0.109637
    39  C   -0.173412
    40  C    0.107365
    41  C   -0.077853
    42  C   -0.033803
    43  C    0.035468
    44  H    0.029023
    45  H    0.009950
    46  H    0.013262
    47  H    0.169012
    48  H    0.117671
    49  H    0.012568
    50  H    0.011929
    51  H    0.016862
    52  H   -0.038956
    53  H    0.020027
    54  H    0.054416
    55  H    0.014777
    56  H    0.016897
    57  H    0.040985
    58  H    0.143206
    59  H    0.031615
    60  H    0.048149
    61  H    0.023916
    62  H    0.007895
    63  H    0.043881
    64  H    0.057647
    65  H    0.052404
    66  H   -0.019858
    67  H    0.054011
    68  H    0.031172
    69  H    0.011640
    70  H    0.025632
    71  H    0.031326
    72  H    0.170476
    73  H   -0.014237
    74  H    0.047693
    75  H    0.059788
    76  H    0.028577
    77  H    0.175892
    78  H    0.027675
    79  H   -0.028181
 Sum of Mulliken charges =  -0.00000

 Dipole moment (field-independent basis, Debye):
    X=              1.9557    Y=              3.5703    Z=              4.1095  Tot=              5.7845
 Quadrupole moment (field-independent basis, Debye-Ang):
   XX=           -222.3739   YY=           -242.9382   ZZ=           -264.6063
   XY=            -10.5088   XZ=             35.9731   YZ=              1.5231

 Normal termination of Gaussian 16 at Fri Sep 20 05:06:59 2019.
