 Gaussian 16, Revision A.03,
 Gaussian 16:  ES64L-G16RevA.03 25-Dec-2016

 --------------------------
 # td=(NStates=1) B3LYP/SVP
 --------------------------

 --
 TD
 --
 Symbolic Z-matrix:
 Charge =  0 Multiplicity = 1

                         Standard orientation:
 ---------------------------------------------------------------------
 Center     Atomic      Atomic             Coordinates (Angstroms)
 Number     Number       Type             X           Y           Z
 ---------------------------------------------------------------------
      1          8           0        5.157863   -0.208104   -3.287928
      2          8           0       -3.056455   -2.926807    3.115598
      3          8           0       -3.382027   -0.649670    3.069687
      4          8           0       -2.198876    7.091833    1.295025
      5          8           0       -1.336907    7.101512   -0.714082
      6          8           0       -1.514444   -4.034580    0.171523
      7          7           0        2.380636    1.147580    0.713200
      8          7           0        4.297111   -0.599992   -1.233002
      9          7           0       -1.877793    0.700392   -0.398923
     10          7           0       -2.293450   -2.029781   -0.539727
     11          6           0        4.736322   -1.021214    0.091118
     12          6           0        4.422890   -0.075717    1.343546
     13          6           0        2.933283    0.176659    1.509044
     14          6           0        1.921300   -0.449098    2.238288
     15          6           0        0.720913    0.141180    1.897868
     16          6           0        0.989269    1.096074    0.908479
     17          6           0        6.386262   -1.083707   -0.059277
     18          6           0       -0.700279   -0.128927    2.482169
     19          6           0        6.630327   -0.762602   -1.414943
     20          6           0        0.175934    2.075196    0.175363
     21          6           0       -1.103600    1.845514   -0.332708
     22          6           0        5.255509   -0.473820   -2.091860
     23          6           0       -1.975108    2.860452   -0.933580
     24          6           0        2.274788   -1.427166    3.289071
     25          6           0        7.250393   -1.544357    1.028625
     26          6           0       -3.181056    2.211336   -1.345587
     27          6           0       -1.138058   -1.492162    2.557234
     28          6           0       -3.015659    0.746667   -1.135143
     29          6           0       -1.709577    4.360778   -0.973131
     30          6           0        7.875352   -0.620467   -2.206666
     31          6           0       -1.867618    4.995015    0.333938
     32          6           0       -4.297551    2.728400   -2.125475
     33          6           0       -3.772805   -0.290186   -1.536473
     34          6           0       -2.619161   -1.627482    3.080134
     35          6           0       -3.543307   -1.677386   -1.209915
     36          6           0        9.123066   -0.584708   -1.672102
     37          6           0       -1.739721    6.420927    0.249565
     38          6           0       -4.253691   -2.948861   -1.486563
     39          6           0       -3.553505   -4.005268   -0.953340
     40          6           0       -2.364945   -3.406083   -0.378761
     41          6           0       -5.669600   -2.841203   -2.011218
     42          6           0       -3.817578   -5.439015   -0.859905
     43          6           0       -6.447754   -3.856960   -2.571173
     44          1           0        4.442846   -2.161217    0.362413
     45          1           0        4.825907    0.982677    1.221221
     46          1           0        4.822545   -0.495549    2.369111
     47          1           0        2.919790    1.817197    0.166618
     48          1           0        3.304448   -0.949086   -1.371377
     49          1           0       -0.607455    0.065098    3.529761
     50          1           0       -1.404892    0.650058    2.084335
     51          1           0        0.645707    3.141694    0.265421
     52          1           0        3.285266   -1.302358    3.935252
     53          1           0        1.516790   -1.389652    4.090071
     54          1           0        2.456357   -2.747803    3.027856
     55          1           0        6.671284   -2.195383    1.695780
     56          1           0        7.693786   -0.734669    1.598334
     57          1           0        7.997806   -2.170749    0.808524
     58          1           0       -1.348178   -2.171880    1.630790
     59          1           0       -0.668712   -2.270324    3.261865
     60          1           0       -1.599707   -0.444364   -0.294547
     61          1           0       -2.465793    4.860538   -1.697210
     62          1           0       -0.786430    4.442373   -1.390655
     63          1           0        7.841297   -0.837050   -3.427499
     64          1           0       -0.958315    4.562989    1.022151
     65          1           0       -2.842296    4.878905    0.873638
     66          1           0       -4.146105    3.768059   -2.285176
     67          1           0       -5.230495    2.576325   -1.431924
     68          1           0       -4.583329    2.295329   -3.034925
     69          1           0       -4.753878   -0.038546   -2.148534
     70          1           0        9.153893   -0.202910   -0.755448
     71          1           0       10.153320   -0.618788   -2.184682
     72          1           0       -3.888235   -2.691665    3.210780
     73          1           0       -5.997923   -1.710909   -2.213921
     74          1           0       -4.677660   -5.656118   -0.601684
     75          1           0       -3.637793   -5.933667   -1.900603
     76          1           0       -2.997127   -5.895369   -0.309740
     77          1           0       -2.162833    8.106108    1.155707
     78          1           0       -7.379169   -3.588606   -3.054244
     79          1           0       -6.043687   -4.872436   -2.516606
 ---------------------------------------------------------------------

 SCF Done:  E(RB3LYP) =  -1947.80249190     A.U. after   24 cycles

 Excitation energies and oscillator strengths:

 Excited State   1:      Singlet-A      1.9553 eV  634.08 nm  f=0.3213  <S**2>=0.000
     154 ->156         0.16191
     155 ->156         0.68005
     155 <-156        -0.10285
 This state for optimization and/or second-order correction.
 Total Energy, E(TD-HF/TD-DFT) =  -1947.73063415
 Copying the excited state density for this state as the 1-particle RhoCI density.

 The electronic state is 1-A.
 Alpha  occ. eigenvalues --  -19.18591 -19.17197 -19.11857 -19.11735 -19.10150
 Alpha  occ. eigenvalues --  -19.08919 -14.38706 -14.36975 -14.36083 -14.29762
 Alpha  occ. eigenvalues --  -10.31917 -10.31080 -10.28221 -10.27157 -10.25728
 Alpha  occ. eigenvalues --  -10.25127 -10.25080 -10.24598 -10.23600 -10.23476
 Alpha  occ. eigenvalues --  -10.23154 -10.23086 -10.22990 -10.22411 -10.22147
 Alpha  occ. eigenvalues --  -10.22107 -10.21503 -10.21421 -10.21406 -10.21325
 Alpha  occ. eigenvalues --  -10.21084 -10.20987 -10.20698 -10.20521 -10.20023
 Alpha  occ. eigenvalues --  -10.19897 -10.19751 -10.19637 -10.19427 -10.19119
 Alpha  occ. eigenvalues --  -10.19097 -10.18980 -10.17994  -1.10495  -1.09822
 Alpha  occ. eigenvalues --   -1.03109  -1.02219  -0.99268  -0.98632  -0.98278
 Alpha  occ. eigenvalues --   -0.97511  -0.94362  -0.90377  -0.83582  -0.82076
 Alpha  occ. eigenvalues --   -0.81544  -0.81288  -0.79994  -0.79274  -0.78526
 Alpha  occ. eigenvalues --   -0.77394  -0.76762  -0.76034  -0.74842  -0.72764
 Alpha  occ. eigenvalues --   -0.71488  -0.70924  -0.70533  -0.68439  -0.68092
 Alpha  occ. eigenvalues --   -0.67154  -0.66685  -0.64214  -0.61597  -0.60917
 Alpha  occ. eigenvalues --   -0.60232  -0.59230  -0.58089  -0.57381  -0.56410
 Alpha  occ. eigenvalues --   -0.55676  -0.55183  -0.54568  -0.54034  -0.53582
 Alpha  occ. eigenvalues --   -0.51542  -0.51045  -0.50658  -0.50256  -0.49920
 Alpha  occ. eigenvalues --   -0.49239  -0.48628  -0.47936  -0.47870  -0.47710
 Alpha  occ. eigenvalues --   -0.47047  -0.46852  -0.46741  -0.46213  -0.45887
 Alpha  occ. eigenvalues --   -0.45555  -0.45246  -0.44773  -0.44411  -0.44073
 Alpha  occ. eigenvalues --   -0.43795  -0.43667  -0.43204  -0.42713  -0.42673
 Alpha  occ. eigenvalues --   -0.42159  -0.41983  -0.41909  -0.41767  -0.41201
 Alpha  occ. eigenvalues --   -0.41044  -0.40829  -0.40333  -0.39987  -0.39658
 Alpha  occ. eigenvalues --   -0.39452  -0.38926  -0.38762  -0.38570  -0.38511
 Alpha  occ. eigenvalues --   -0.38048  -0.37830  -0.37360  -0.37085  -0.36515
 Alpha  occ. eigenvalues --   -0.36000  -0.35601  -0.35193  -0.34868  -0.34799
 Alpha  occ. eigenvalues --   -0.33871  -0.32758  -0.32378  -0.31464  -0.31423
 Alpha  occ. eigenvalues --   -0.31218  -0.30943  -0.28030  -0.27756  -0.27481
 Alpha  occ. eigenvalues --   -0.27039  -0.26501  -0.25540  -0.24822  -0.24751
 Alpha  occ. eigenvalues --   -0.24404  -0.24048  -0.23484  -0.22315  -0.19555
 Alpha virt. eigenvalues --   -0.11669  -0.07044  -0.05862  -0.01848  -0.01376
 Alpha virt. eigenvalues --    0.00169   0.00227   0.00764   0.02200   0.02924
 Alpha virt. eigenvalues --    0.03312   0.04034   0.04349   0.04543   0.04820

 Mulliken charges:
               1
     1  O   -0.237215
     2  O   -0.112167
     3  O   -0.269654
     4  O   -0.194727
     5  O   -0.273374
     6  O   -0.184108
     7  N   -0.089625
     8  N   -0.098249
     9  N   -0.164316
    10  N   -0.361479
    11  C   -0.005924
    12  C    0.152351
    13  C   -0.098125
    14  C   -0.050113
    15  C   -0.063031
    16  C    0.016016
    17  C   -0.169226
    18  C    0.203795
    19  C   -0.062092
    20  C   -0.148370
    21  C    0.161215
    22  C    0.103814
    23  C   -0.142713
    24  C   -0.067954
    25  C    0.161667
    26  C   -0.124346
    27  C   -0.084734
    28  C    0.111052
    29  C    0.162726
    30  C   -0.048443
    31  C   -0.006518
    32  C    0.119774
    33  C   -0.115696
    34  C    0.117864
    35  C    0.085529
    36  C   -0.024752
    37  C    0.110349
    38  C    0.039387
    39  C   -0.201611
    40  C    0.136421
    41  C   -0.078454
    42  C    0.218041
    43  C   -0.010699
    44  H    0.060289
    45  H    0.003633
    46  H    0.029484
    47  H    0.123703
    48  H    0.167183
    49  H   -0.014649
    50  H    0.034373
    51  H    0.041023
    52  H    0.029458
    53  H    0.020088
    54  H    0.037290
    55  H    0.003156
    56  H    0.033780
    57  H   -0.009197
    58  H    0.092934
    59  H    0.032019
    60  H    0.222754
    61  H    0.025647
    62  H   -0.009943
    63  H    0.059126
    64  H    0.065876
    65  H    0.051899
    66  H   -0.010297
    67  H    0.028262
    68  H    0.021317
    69  H    0.011913
    70  H   -0.017504
    71  H    0.045233
    72  H    0.101763
    73  H    0.024940
    74  H   -0.043368
    75  H    0.029628
    76  H    0.020165
    77  H    0.217257
    78  H    0.032869
    79  H    0.025611
 Sum of Mulliken charges =  -0.00000

 Dipole moment (field-independent basis, Debye):
    X=             -0.0007    Y=              1.5704    Z=              3.4971  Tot=              3.8335
 Quadrupole moment (field-independent basis, Debye-Ang):
   XX=           -218.9741   YY=           -246.4087   ZZ=           -266.0367
   XY=             -4.0304   XZ=             38.1439   YZ=             10.8349

 Normal termination of Gaussian 16 at Wed Oct  9 03:51:48 2019.
