 Gaussian 16, Revision A.03,
 Gaussian 16:  ES64L-G16RevA.03 25-Dec-2016

 --------------------------
 # td=(NStates=1) B3LYP/SVP
 --------------------------

 --
 TD
 --
 Symbolic Z-matrix:
 Charge =  0 Multiplicity = 1

                         Standard orientation:
 ---------------------------------------------------------------------
 Center     Atomic      Atomic             Coordinates (Angstroms)
 Number     Number       Type             X           Y           Z
 ---------------------------------------------------------------------
      1          8           0        5.126473    0.021220   -3.241345
      2          8           0       -2.931325   -3.086083    3.100186
      3          8           0       -3.382786   -0.871788    2.862585
      4          8           0       -1.705979    7.340287    1.372225
      5          8           0       -1.032760    7.079573   -0.702614
      6          8           0       -1.502314   -3.967525    0.005402
      7          7           0        2.212701    1.079421    0.664533
      8          7           0        4.281384   -0.621097   -1.158228
      9          7           0       -1.840942    0.641459   -0.334067
     10          7           0       -2.446376   -1.939095   -0.559872
     11          6           0        4.792579   -1.030810    0.129847
     12          6           0        4.485681   -0.163415    1.307717
     13          6           0        3.039531    0.174126    1.400170
     14          6           0        1.996744   -0.512063    2.250353
     15          6           0        0.730707    0.044282    1.949075
     16          6           0        0.955142    1.104602    0.919057
     17          6           0        6.279771   -1.253566   -0.122349
     18          6           0       -0.561623   -0.232615    2.627154
     19          6           0        6.552918   -0.794308   -1.424270
     20          6           0        0.130949    1.993665    0.195006
     21          6           0       -1.161232    1.885961   -0.227689
     22          6           0        5.273217   -0.450556   -2.103954
     23          6           0       -2.028492    2.882985   -0.802074
     24          6           0        2.305039   -1.546578    3.188527
     25          6           0        7.096967   -1.896811    0.880093
     26          6           0       -3.168182    2.373263   -1.188140
     27          6           0       -1.129976   -1.656748    2.575497
     28          6           0       -3.033290    0.843926   -0.962468
     29          6           0       -1.732587    4.308034   -0.877978
     30          6           0        7.783429   -0.841997   -2.181474
     31          6           0       -1.819021    5.156747    0.423982
     32          6           0       -4.272366    2.892962   -1.965727
     33          6           0       -3.918774   -0.163596   -1.408585
     34          6           0       -2.525418   -1.809157    2.905100
     35          6           0       -3.583402   -1.564953   -1.070968
     36          6           0        9.068540   -0.659436   -1.675741
     37          6           0       -1.502993    6.618973    0.251413
     38          6           0       -4.385292   -2.731172   -1.506417
     39          6           0       -3.634114   -3.906815   -1.122058
     40          6           0       -2.391225   -3.370041   -0.492512
     41          6           0       -5.743772   -2.679639   -2.000889
     42          6           0       -4.103595   -5.384211   -1.088042
     43          6           0       -6.542683   -3.664599   -2.435749
     44          1           0        4.330657   -2.118220    0.272410
     45          1           0        5.051480    0.782231    1.069974
     46          1           0        4.795263   -0.609372    2.311584
     47          1           0        2.750618    1.700796   -0.002159
     48          1           0        3.322086   -0.347823   -1.489031
     49          1           0       -0.456973   -0.009672    3.749652
     50          1           0       -1.445743    0.156803    2.190717
     51          1           0        0.565964    2.869363   -0.124197
     52          1           0        3.335557   -1.712548    3.440656
     53          1           0        1.781596   -1.301794    4.103501
     54          1           0        1.938427   -2.423403    2.718746
     55          1           0        6.348064   -2.576467    1.442657
     56          1           0        7.507419   -1.332888    1.655734
     57          1           0        7.792904   -2.524444    0.528955
     58          1           0       -1.149020   -2.271784    1.620928
     59          1           0       -0.493856   -2.323229    3.300581
     60          1           0       -1.602714   -0.341860   -0.116055
     61          1           0       -2.534522    4.826661   -1.611739
     62          1           0       -0.743796    4.411408   -1.331657
     63          1           0        7.915180   -1.144837   -3.351009
     64          1           0       -1.019861    4.773681    1.010434
     65          1           0       -2.848054    4.837446    0.917973
     66          1           0       -4.168205    3.965336   -2.173900
     67          1           0       -5.216669    2.867749   -1.358760
     68          1           0       -4.569038    2.495436   -2.852563
     69          1           0       -4.661837    0.074209   -2.146598
     70          1           0        9.351804   -0.068740   -0.582712
     71          1           0       10.024640   -0.853785   -2.441087
     72          1           0       -3.938923   -3.062394    3.262684
     73          1           0       -5.973546   -1.672482   -2.134317
     74          1           0       -4.692957   -5.707009   -0.285968
     75          1           0       -4.592798   -5.531599   -2.109932
     76          1           0       -2.947048   -5.890967   -0.766850
     77          1           0       -1.419060    8.204787    1.110250
     78          1           0       -7.596317   -3.475972   -2.870495
     79          1           0       -6.277628   -4.713540   -2.491928
 ---------------------------------------------------------------------

 SCF Done:  E(RB3LYP) =  -1947.87144398     A.U. after   17 cycles

 Excitation energies and oscillator strengths:

 Excited State   1:      Singlet-A      1.9327 eV  641.49 nm  f=0.3592  <S**2>=0.000
     154 ->156         0.10543
     155 ->156         0.69723
 This state for optimization and/or second-order correction.
 Total Energy, E(TD-HF/TD-DFT) =  -1947.80041676
 Copying the excited state density for this state as the 1-particle RhoCI density.

 The electronic state is 1-A.
 Alpha  occ. eigenvalues --  -19.18320 -19.17504 -19.13623 -19.11723 -19.10583
 Alpha  occ. eigenvalues --  -19.09522 -14.39854 -14.36372 -14.35749 -14.28982
 Alpha  occ. eigenvalues --  -10.32385 -10.30727 -10.28206 -10.27073 -10.25813
 Alpha  occ. eigenvalues --  -10.24726 -10.24286 -10.23581 -10.23440 -10.23404
 Alpha  occ. eigenvalues --  -10.23336 -10.22889 -10.22648 -10.21842 -10.21663
 Alpha  occ. eigenvalues --  -10.21145 -10.21134 -10.20837 -10.20814 -10.20566
 Alpha  occ. eigenvalues --  -10.20377 -10.20351 -10.20196 -10.20137 -10.20052
 Alpha  occ. eigenvalues --  -10.19755 -10.19672 -10.19582 -10.19477 -10.19402
 Alpha  occ. eigenvalues --  -10.19273 -10.19098 -10.18582  -1.12426  -1.07026
 Alpha  occ. eigenvalues --   -1.04364  -1.03194  -1.01193  -0.99548  -0.97399
 Alpha  occ. eigenvalues --   -0.96281  -0.93899  -0.92291  -0.83997  -0.82537
 Alpha  occ. eigenvalues --   -0.82082  -0.81401  -0.80019  -0.79867  -0.78234
 Alpha  occ. eigenvalues --   -0.77842  -0.76503  -0.75641  -0.74235  -0.72905
 Alpha  occ. eigenvalues --   -0.72359  -0.71513  -0.69961  -0.68836  -0.68510
 Alpha  occ. eigenvalues --   -0.67409  -0.66054  -0.64301  -0.60834  -0.60621
 Alpha  occ. eigenvalues --   -0.59638  -0.58969  -0.58813  -0.57903  -0.57496
 Alpha  occ. eigenvalues --   -0.55939  -0.55270  -0.54770  -0.53801  -0.53198
 Alpha  occ. eigenvalues --   -0.52443  -0.52024  -0.51149  -0.50401  -0.49874
 Alpha  occ. eigenvalues --   -0.49246  -0.49219  -0.49021  -0.47820  -0.47454
 Alpha  occ. eigenvalues --   -0.47131  -0.46737  -0.46542  -0.46297  -0.45974
 Alpha  occ. eigenvalues --   -0.45589  -0.45135  -0.44932  -0.44740  -0.44504
 Alpha  occ. eigenvalues --   -0.44209  -0.44084  -0.43638  -0.43308  -0.42784
 Alpha  occ. eigenvalues --   -0.42656  -0.42340  -0.42126  -0.41884  -0.41433
 Alpha  occ. eigenvalues --   -0.41332  -0.41037  -0.41019  -0.40896  -0.40584
 Alpha  occ. eigenvalues --   -0.40338  -0.39872  -0.39414  -0.38782  -0.38477
 Alpha  occ. eigenvalues --   -0.38070  -0.37985  -0.37468  -0.37257  -0.35899
 Alpha  occ. eigenvalues --   -0.35784  -0.35269  -0.35023  -0.34817  -0.34163
 Alpha  occ. eigenvalues --   -0.33801  -0.33532  -0.32865  -0.31714  -0.30819
 Alpha  occ. eigenvalues --   -0.30579  -0.29826  -0.29510  -0.28846  -0.28119
 Alpha  occ. eigenvalues --   -0.26685  -0.26051  -0.26022  -0.25213  -0.24558
 Alpha  occ. eigenvalues --   -0.24297  -0.23825  -0.23200  -0.21775  -0.18542
 Alpha virt. eigenvalues --   -0.10733  -0.06844  -0.06335  -0.00702  -0.00163
 Alpha virt. eigenvalues --    0.00571   0.00790   0.01372   0.02664   0.02925
 Alpha virt. eigenvalues --    0.03585   0.04019   0.04551   0.05054   0.05190

 Mulliken charges:
               1
     1  O   -0.246932
     2  O   -0.208330
     3  O   -0.303099
     4  O   -0.163590
     5  O   -0.171748
     6  O   -0.157486
     7  N   -0.043087
     8  N   -0.221583
     9  N   -0.097265
    10  N   -0.300879
    11  C    0.061760
    12  C    0.234445
    13  C   -0.121949
    14  C   -0.166594
    15  C   -0.080583
    16  C    0.089934
    17  C   -0.158114
    18  C    0.103162
    19  C   -0.019668
    20  C   -0.089866
    21  C    0.126541
    22  C    0.140138
    23  C   -0.044248
    24  C    0.154865
    25  C    0.174035
    26  C   -0.099122
    27  C   -0.069075
    28  C    0.069689
    29  C    0.016441
    30  C   -0.059450
    31  C    0.011532
    32  C    0.143529
    33  C   -0.102625
    34  C    0.146554
    35  C    0.103154
    36  C   -0.154780
    37  C    0.107417
    38  C   -0.024523
    39  C   -0.188944
    40  C    0.156688
    41  C    0.056269
    42  C    0.002899
    43  C   -0.049237
    44  H    0.034924
    45  H   -0.009054
    46  H    0.025373
    47  H    0.131520
    48  H    0.144164
    49  H    0.022374
    50  H    0.004277
    51  H   -0.059123
    52  H   -0.018142
    53  H    0.015090
    54  H    0.034278
    55  H    0.005672
    56  H    0.018835
    57  H   -0.002715
    58  H    0.086718
    59  H    0.027424
    60  H    0.150154
    61  H    0.029534
    62  H    0.013661
    63  H    0.065937
    64  H    0.022093
    65  H    0.061576
    66  H   -0.009154
    67  H    0.016907
    68  H    0.006363
    69  H   -0.010631
    70  H    0.054640
    71  H    0.056108
    72  H    0.206766
    73  H   -0.043787
    74  H    0.033813
    75  H    0.063077
    76  H    0.057782
    77  H    0.159258
    78  H    0.039014
    79  H    0.008994
 Sum of Mulliken charges =  -0.00000

 Dipole moment (field-independent basis, Debye):
    X=              0.6942    Y=              1.6428    Z=              3.2497  Tot=              3.7069
 Quadrupole moment (field-independent basis, Debye-Ang):
   XX=           -220.1854   YY=           -244.6589   ZZ=           -263.7383
   XY=             -4.9473   XZ=             35.0723   YZ=              1.2526

 Normal termination of Gaussian 16 at Wed Sep 18 00:32:23 2019.
