 Gaussian 16, Revision A.03,
 Gaussian 16:  ES64L-G16RevA.03 25-Dec-2016

 --------------------------
 # td=(NStates=1) B3LYP/SVP
 --------------------------

 --
 TD
 --
 Symbolic Z-matrix:
 Charge =  0 Multiplicity = 1

                         Standard orientation:
 ---------------------------------------------------------------------
 Center     Atomic      Atomic             Coordinates (Angstroms)
 Number     Number       Type             X           Y           Z
 ---------------------------------------------------------------------
      1          8           0        5.351763    0.035213   -3.231502
      2          8           0       -3.200885   -2.756666    3.167533
      3          8           0       -3.494571   -0.569080    3.079048
      4          8           0       -1.197987    7.100924    1.548593
      5          8           0       -0.440059    6.982824   -0.551699
      6          8           0       -1.841103   -3.861655    0.077640
      7          7           0        2.366455    0.863560    0.747582
      8          7           0        4.256544   -0.642766   -1.203424
      9          7           0       -1.885631    0.762721   -0.323651
     10          7           0       -2.618947   -1.779482   -0.429617
     11          6           0        4.675469   -1.338474   -0.005786
     12          6           0        4.346516   -0.631130    1.309658
     13          6           0        2.919225   -0.190817    1.493996
     14          6           0        1.855632   -0.786220    2.176252
     15          6           0        0.657300   -0.103259    1.911286
     16          6           0        1.055382    0.957479    0.907887
     17          6           0        6.190377   -1.446762   -0.125790
     18          6           0       -0.528523   -0.256997    2.639332
     19          6           0        6.579195   -1.037282   -1.394072
     20          6           0        0.148565    1.968361    0.300039
     21          6           0       -1.072380    1.828489   -0.149515
     22          6           0        5.373610   -0.438600   -2.103494
     23          6           0       -1.809087    2.905797   -0.907921
     24          6           0        1.844597   -1.968844    3.063515
     25          6           0        7.112339   -2.177579    0.813539
     26          6           0       -2.995190    2.448654   -1.258297
     27          6           0       -1.295626   -1.613147    2.583752
     28          6           0       -3.081571    1.009678   -1.110112
     29          6           0       -1.311114    4.354666   -0.813015
     30          6           0        7.804190   -0.752682   -2.125420
     31          6           0       -1.426293    5.052940    0.540293
     32          6           0       -4.025265    3.123620   -2.144744
     33          6           0       -4.001664    0.005689   -1.408507
     34          6           0       -2.753796   -1.511897    3.032864
     35          6           0       -3.675767   -1.401609   -1.196538
     36          6           0        9.138848   -0.984200   -1.585973
     37          6           0       -0.930384    6.470152    0.406111
     38          6           0       -4.630320   -2.506393   -1.597264
     39          6           0       -4.016272   -3.615842   -1.121011
     40          6           0       -2.714925   -3.212772   -0.549488
     41          6           0       -5.776038   -2.341570   -2.412389
     42          6           0       -4.361071   -5.034658   -1.129024
     43          6           0       -6.683129   -3.290960   -2.677214
     44          1           0        4.083129   -2.254813   -0.007038
     45          1           0        4.808315    0.322934    1.459685
     46          1           0        4.631833   -1.211058    2.217712
     47          1           0        2.785980    1.256500    0.012636
     48          1           0        3.157203   -0.655820   -1.676303
     49          1           0       -0.097099   -0.181281    3.592051
     50          1           0       -1.242319    0.512007    2.314841
     51          1           0        0.760093    2.812656    0.059799
     52          1           0        2.731688   -2.457359    3.478900
     53          1           0        1.318345   -1.697517    4.136958
     54          1           0        1.190843   -2.677557    2.548229
     55          1           0        6.693040   -2.998724    1.469562
     56          1           0        7.628361   -1.455751    1.511169
     57          1           0        7.857112   -2.722124    0.399255
     58          1           0       -1.260408   -2.027692    1.589356
     59          1           0       -0.834333   -2.197553    3.160744
     60          1           0       -1.664559   -0.243490   -0.205768
     61          1           0       -1.896091    4.835724   -1.702599
     62          1           0       -0.023143    4.375421   -1.063867
     63          1           0        7.506437   -0.281416   -3.220822
     64          1           0       -0.749234    4.589925    1.190693
     65          1           0       -2.547229    5.001640    0.881134
     66          1           0       -3.745073    4.166933   -2.044153
     67          1           0       -5.064655    2.868710   -1.792979
     68          1           0       -4.095599    2.790418   -3.155665
     69          1           0       -4.869781    0.343682   -2.101404
     70          1           0        9.381365   -1.342447   -0.593106
     71          1           0       10.031396   -0.650093   -2.082537
     72          1           0       -4.213071   -2.943147    3.193217
     73          1           0       -6.156355   -1.363212   -2.650300
     74          1           0       -5.405308   -5.278336   -0.719830
     75          1           0       -4.070725   -5.436696   -2.195196
     76          1           0       -3.540251   -5.496677   -0.268602
     77          1           0       -0.913290    8.112728    1.265771
     78          1           0       -7.636309   -3.030479   -3.087143
     79          1           0       -6.463488   -4.169717   -2.345223
 ---------------------------------------------------------------------

 SCF Done:  E(RB3LYP) =  -1947.81686299     A.U. after   16 cycles

 Excitation energies and oscillator strengths:

 Excited State   1:      Singlet-A      1.8337 eV  676.15 nm  f=0.3287  <S**2>=0.000
     155 ->156         0.70676
     155 <-156        -0.10857
 This state for optimization and/or second-order correction.
 Total Energy, E(TD-HF/TD-DFT) =  -1947.74947609
 Copying the excited state density for this state as the 1-particle RhoCI density.

 The electronic state is 1-A.
 Alpha  occ. eigenvalues --  -19.19477 -19.15928 -19.13488 -19.11472 -19.10968
 Alpha  occ. eigenvalues --  -19.10314 -14.37643 -14.36711 -14.35318 -14.30016
 Alpha  occ. eigenvalues --  -10.32156 -10.29819 -10.29329 -10.27046 -10.25276
 Alpha  occ. eigenvalues --  -10.24785 -10.24269 -10.23235 -10.23087 -10.22788
 Alpha  occ. eigenvalues --  -10.22726 -10.22345 -10.22198 -10.21426 -10.21294
 Alpha  occ. eigenvalues --  -10.21101 -10.20946 -10.20828 -10.20828 -10.20758
 Alpha  occ. eigenvalues --  -10.20734 -10.20555 -10.20496 -10.20302 -10.20208
 Alpha  occ. eigenvalues --  -10.20108 -10.19819 -10.19656 -10.18679 -10.18090
 Alpha  occ. eigenvalues --  -10.18056 -10.17023 -10.16326  -1.10700  -1.07306
 Alpha  occ. eigenvalues --   -1.02544  -1.01518  -1.00299  -0.99038  -0.98091
 Alpha  occ. eigenvalues --   -0.96734  -0.93095  -0.91382  -0.82642  -0.82385
 Alpha  occ. eigenvalues --   -0.81865  -0.81370  -0.81049  -0.79544  -0.77969
 Alpha  occ. eigenvalues --   -0.77105  -0.76476  -0.75389  -0.74490  -0.71922
 Alpha  occ. eigenvalues --   -0.70867  -0.70569  -0.70168  -0.69398  -0.68050
 Alpha  occ. eigenvalues --   -0.67264  -0.65302  -0.63834  -0.61621  -0.61145
 Alpha  occ. eigenvalues --   -0.60087  -0.58990  -0.58207  -0.56932  -0.56606
 Alpha  occ. eigenvalues --   -0.56188  -0.54997  -0.54407  -0.53871  -0.52988
 Alpha  occ. eigenvalues --   -0.51540  -0.51081  -0.50836  -0.50370  -0.49712
 Alpha  occ. eigenvalues --   -0.49679  -0.49241  -0.48895  -0.48104  -0.47396
 Alpha  occ. eigenvalues --   -0.47130  -0.46913  -0.46400  -0.45382  -0.45208
 Alpha  occ. eigenvalues --   -0.44688  -0.44558  -0.44442  -0.44252  -0.44113
 Alpha  occ. eigenvalues --   -0.43841  -0.43474  -0.43104  -0.42673  -0.42375
 Alpha  occ. eigenvalues --   -0.42198  -0.41678  -0.41479  -0.41147  -0.40580
 Alpha  occ. eigenvalues --   -0.40427  -0.40103  -0.39992  -0.39839  -0.39703
 Alpha  occ. eigenvalues --   -0.39302  -0.39015  -0.38908  -0.38702  -0.38254
 Alpha  occ. eigenvalues --   -0.37669  -0.37387  -0.37295  -0.36852  -0.36235
 Alpha  occ. eigenvalues --   -0.35405  -0.35012  -0.34724  -0.34607  -0.34403
 Alpha  occ. eigenvalues --   -0.34057  -0.33592  -0.32992  -0.32082  -0.31906
 Alpha  occ. eigenvalues --   -0.31301  -0.30272  -0.29290  -0.28940  -0.28212
 Alpha  occ. eigenvalues --   -0.26799  -0.26322  -0.26065  -0.25837  -0.24884
 Alpha  occ. eigenvalues --   -0.24170  -0.23575  -0.23335  -0.22456  -0.18377
 Alpha virt. eigenvalues --   -0.11100  -0.07368  -0.06468  -0.01109  -0.00551
 Alpha virt. eigenvalues --    0.00267   0.01691   0.01806   0.02269   0.02517
 Alpha virt. eigenvalues --    0.03189   0.04167   0.04523   0.04745   0.04902

 Mulliken charges:
               1
     1  O   -0.227148
     2  O   -0.220264
     3  O   -0.214000
     4  O   -0.218727
     5  O   -0.206852
     6  O   -0.226939
     7  N    0.028668
     8  N   -0.338254
     9  N   -0.125091
    10  N   -0.295704
    11  C    0.164815
    12  C    0.223647
    13  C   -0.156576
    14  C   -0.101250
    15  C   -0.116104
    16  C   -0.072417
    17  C   -0.142368
    18  C    0.129312
    19  C   -0.063134
    20  C   -0.091192
    21  C    0.198315
    22  C    0.184474
    23  C   -0.076342
    24  C    0.040605
    25  C    0.093872
    26  C   -0.111659
    27  C    0.076374
    28  C    0.106621
    29  C   -0.057634
    30  C   -0.047791
    31  C    0.064203
    32  C    0.098508
    33  C   -0.096619
    34  C    0.127863
    35  C    0.070531
    36  C   -0.041799
    37  C    0.116892
    38  C    0.116603
    39  C   -0.210483
    40  C    0.184332
    41  C   -0.070842
    42  C   -0.021585
    43  C    0.088079
    44  H    0.017110
    45  H   -0.021157
    46  H    0.003321
    47  H    0.065668
    48  H    0.197034
    49  H   -0.008839
    50  H    0.011191
    51  H   -0.029598
    52  H    0.003007
    53  H    0.020218
    54  H    0.053631
    55  H    0.019180
    56  H    0.035778
    57  H    0.001878
    58  H    0.067100
    59  H   -0.063481
    60  H    0.146830
    61  H    0.041617
    62  H    0.043728
    63  H    0.084024
    64  H    0.019481
    65  H    0.068654
    66  H    0.007784
    67  H    0.019670
    68  H    0.023649
    69  H    0.008815
    70  H    0.022262
    71  H    0.028218
    72  H    0.208221
    73  H   -0.019780
    74  H    0.057231
    75  H    0.063191
    76  H    0.063420
    77  H    0.218788
    78  H    0.021867
    79  H   -0.062654
 Sum of Mulliken charges =  -0.00000

 Dipole moment (field-independent basis, Debye):
    X=             -0.2212    Y=              0.3257    Z=              1.6687  Tot=              1.7145
 Quadrupole moment (field-independent basis, Debye-Ang):
   XX=           -215.6170   YY=           -242.6364   ZZ=           -263.8390
   XY=             -5.8135   XZ=             36.1727   YZ=              2.9232

 Normal termination of Gaussian 16 at Wed Oct  2 06:08:12 2019.
