 Gaussian 16, Revision A.03,
 Gaussian 16:  ES64L-G16RevA.03 25-Dec-2016

 --------------------------
 # td=(NStates=1) B3LYP/SVP
 --------------------------

 --
 TD
 --
 Symbolic Z-matrix:
 Charge =  0 Multiplicity = 1

                         Standard orientation:
 ---------------------------------------------------------------------
 Center     Atomic      Atomic             Coordinates (Angstroms)
 Number     Number       Type             X           Y           Z
 ---------------------------------------------------------------------
      1          8           0       -3.186798   -0.826015   -3.014050
      2          8           0        3.276698    2.452329    3.435257
      3          8           0        3.825848    0.518658    4.484482
      4          8           0        7.612884   -1.451872   -0.821088
      5          8           0        6.732993   -2.421156   -2.697477
      6          8           0       -2.759516    1.283520    1.645722
      7          7           0       -0.303213   -2.526092    0.533907
      8          7           0       -2.603969   -1.134003   -0.790274
      9          7           0        1.151234    0.196159   -0.720612
     10          7           0       -1.024601    1.469944   -0.011389
     11          6           0       -3.397137   -1.440825    0.495464
     12          6           0       -2.763728   -2.589780    1.300479
     13          6           0       -1.284704   -2.395459    1.529188
     14          6           0       -0.545035   -1.719176    2.724835
     15          6           0        0.855367   -1.604965    2.356724
     16          6           0        0.993250   -2.043993    0.998114
     17          6           0       -4.681269   -1.980519   -0.022004
     18          6           0        1.932555   -1.086052    3.050940
     19          6           0       -4.733995   -1.801628   -1.457900
     20          6           0        2.051627   -1.910953   -0.054649
     21          6           0        2.118595   -0.760426   -0.848789
     22          6           0       -3.461207   -1.246438   -1.884435
     23          6           0        2.934675   -0.295523   -1.903633
     24          6           0       -1.360159   -1.277626    3.803097
     25          6           0       -5.823606   -2.225322    0.963731
     26          6           0        2.600713    0.967473   -2.280451
     27          6           0        1.924763    0.573541    2.851483
     28          6           0        1.294854    1.319150   -1.547764
     29          6           0        4.236444   -1.010362   -2.287884
     30          6           0       -5.871401   -2.013259   -2.439371
     31          6           0        5.393275   -0.945001   -1.356542
     32          6           0        3.001949    1.721387   -3.510121
     33          6           0        0.424237    2.367112   -1.672904
     34          6           0        3.063467    1.156392    3.700115
     35          6           0       -0.741107    2.465722   -0.948174
     36          6           0       -6.781225   -2.980647   -2.278079
     37          6           0        6.640444   -1.693533   -1.700705
     38          6           0       -1.576591    3.651723   -0.723917
     39          6           0       -2.330127    3.348919    0.383065
     40          6           0       -2.000193    1.948720    0.779235
     41          6           0       -1.367354    4.948806   -1.436930
     42          6           0       -3.351111    4.166011    1.019598
     43          6           0       -1.843163    6.186802   -1.148206
     44          1           0       -3.423267   -0.285087    0.872974
     45          1           0       -2.781091   -3.593699    0.868219
     46          1           0       -3.247901   -2.724072    2.353826
     47          1           0       -0.421858   -2.704245   -0.453759
     48          1           0       -1.975464   -0.243785   -0.613825
     49          1           0        1.893306   -0.883276    4.188328
     50          1           0        2.987603   -1.215426    2.790648
     51          1           0        2.819884   -2.633355   -0.268525
     52          1           0       -1.946654   -1.977657    4.558769
     53          1           0       -0.443065   -0.970534    4.505020
     54          1           0       -1.855001   -0.316307    3.736673
     55          1           0       -5.795134   -1.526505    1.827952
     56          1           0       -5.774002   -3.330101    1.266855
     57          1           0       -6.729523   -2.005964    0.564866
     58          1           0        2.148539    0.926522    1.761410
     59          1           0        0.953607    0.938307    3.250152
     60          1           0        0.361325    0.197439    0.021363
     61          1           0        4.563577   -0.439197   -3.260924
     62          1           0        3.847441   -1.996138   -2.438372
     63          1           0       -5.769111   -1.365697   -3.346418
     64          1           0        4.999455   -1.408267   -0.613896
     65          1           0        5.653675    0.107216   -1.263128
     66          1           0        3.547853    1.112286   -4.098992
     67          1           0        3.293180    2.702110   -3.221043
     68          1           0        2.134783    1.815694   -4.150016
     69          1           0        0.542105    3.253397   -2.350410
     70          1           0       -6.762821   -3.645178   -1.324337
     71          1           0       -7.570624   -2.918585   -3.078311
     72          1           0        4.155349    2.666350    3.796834
     73          1           0       -0.859859    4.723202   -2.413758
     74          1           0       -3.979897    4.486898    0.123317
     75          1           0       -3.976930    3.583051    1.587797
     76          1           0       -3.017471    4.827197    1.637990
     77          1           0        8.356617   -2.038898   -1.123163
     78          1           0       -1.451659    7.052010   -1.672546
     79          1           0       -2.348611    6.542879   -0.087422
 ---------------------------------------------------------------------

 SCF Done:  E(RB3LYP) =  -1947.80515742     A.U. after   23 cycles

 Excitation energies and oscillator strengths:

 Excited State   1:      Singlet-A      0.5545 eV 2235.97 nm  f=0.0001  <S**2>=0.000
     155 ->156         0.70422
 This state for optimization and/or second-order correction.
 Total Energy, E(TD-HF/TD-DFT) =  -1947.78477997
 Copying the excited state density for this state as the 1-particle RhoCI density.

 The electronic state is 1-A.
 Alpha  occ. eigenvalues --  -19.20830 -19.18948 -19.13726 -19.12561 -19.11933
 Alpha  occ. eigenvalues --  -19.06869 -14.38334 -14.37118 -14.31774 -14.31558
 Alpha  occ. eigenvalues --  -10.33504 -10.32463 -10.28391 -10.28118 -10.26036
 Alpha  occ. eigenvalues --  -10.25826 -10.25381 -10.23945 -10.23377 -10.22838
 Alpha  occ. eigenvalues --  -10.22582 -10.22184 -10.22142 -10.21926 -10.21867
 Alpha  occ. eigenvalues --  -10.21853 -10.21718 -10.21649 -10.21475 -10.21458
 Alpha  occ. eigenvalues --  -10.20931 -10.20705 -10.20516 -10.20466 -10.19597
 Alpha  occ. eigenvalues --  -10.19055 -10.19025 -10.18976 -10.18896 -10.18760
 Alpha  occ. eigenvalues --  -10.18285 -10.18242 -10.17910  -1.11490  -1.09686
 Alpha  occ. eigenvalues --   -1.01116  -1.00008  -0.99050  -0.98440  -0.98403
 Alpha  occ. eigenvalues --   -0.93540  -0.93135  -0.89006  -0.84866  -0.83250
 Alpha  occ. eigenvalues --   -0.81996  -0.81002  -0.80693  -0.78604  -0.78483
 Alpha  occ. eigenvalues --   -0.77169  -0.76296  -0.75458  -0.74909  -0.73569
 Alpha  occ. eigenvalues --   -0.72174  -0.71245  -0.69757  -0.69188  -0.68283
 Alpha  occ. eigenvalues --   -0.66179  -0.65732  -0.63322  -0.61992  -0.61338
 Alpha  occ. eigenvalues --   -0.60260  -0.59552  -0.57922  -0.57464  -0.56283
 Alpha  occ. eigenvalues --   -0.55943  -0.55198  -0.53562  -0.53400  -0.53083
 Alpha  occ. eigenvalues --   -0.52583  -0.51772  -0.51273  -0.50792  -0.49890
 Alpha  occ. eigenvalues --   -0.49790  -0.49253  -0.48659  -0.48028  -0.47971
 Alpha  occ. eigenvalues --   -0.47467  -0.46909  -0.46710  -0.46458  -0.45889
 Alpha  occ. eigenvalues --   -0.45676  -0.45370  -0.44934  -0.44885  -0.44479
 Alpha  occ. eigenvalues --   -0.44174  -0.43170  -0.42965  -0.42831  -0.42318
 Alpha  occ. eigenvalues --   -0.42237  -0.41870  -0.41538  -0.41467  -0.41119
 Alpha  occ. eigenvalues --   -0.40559  -0.40195  -0.40079  -0.39700  -0.39526
 Alpha  occ. eigenvalues --   -0.39381  -0.39259  -0.38972  -0.38812  -0.38091
 Alpha  occ. eigenvalues --   -0.37284  -0.37116  -0.37003  -0.36573  -0.35891
 Alpha  occ. eigenvalues --   -0.35659  -0.35512  -0.35126  -0.34695  -0.33823
 Alpha  occ. eigenvalues --   -0.33733  -0.33643  -0.32633  -0.32382  -0.31713
 Alpha  occ. eigenvalues --   -0.29780  -0.29398  -0.29012  -0.28831  -0.28781
 Alpha  occ. eigenvalues --   -0.27991  -0.27670  -0.25773  -0.24471  -0.23990
 Alpha  occ. eigenvalues --   -0.23005  -0.22496  -0.22008  -0.21787  -0.18512
 Alpha virt. eigenvalues --   -0.13929  -0.08339  -0.04195  -0.03220  -0.01177
 Alpha virt. eigenvalues --   -0.01055   0.00378   0.02158   0.02317   0.02899
 Alpha virt. eigenvalues --    0.03087   0.03426   0.04282   0.04889   0.04998

 Mulliken charges:
               1
     1  O   -0.266972
     2  O   -0.165799
     3  O   -0.287247
     4  O   -0.166661
     5  O   -0.245243
     6  O   -0.322173
     7  N   -0.110527
     8  N   -0.295752
     9  N   -0.130283
    10  N   -0.326649
    11  C    0.012720
    12  C    0.195263
    13  C   -0.076747
    14  C   -0.099244
    15  C    0.058724
    16  C   -0.015842
    17  C   -0.184718
    18  C    0.007184
    19  C   -0.070357
    20  C   -0.065976
    21  C    0.091802
    22  C    0.138483
    23  C   -0.098607
    24  C   -0.002358
    25  C    0.117871
    26  C   -0.163073
    27  C   -0.105386
    28  C    0.177724
    29  C    0.053755
    30  C   -0.014897
    31  C    0.175940
    32  C    0.199898
    33  C   -0.101950
    34  C    0.155745
    35  C    0.104617
    36  C   -0.040993
    37  C    0.112594
    38  C    0.025463
    39  C   -0.231437
    40  C    0.212219
    41  C   -0.001712
    42  C    0.223233
    43  C   -0.067085
    44  H    0.123938
    45  H   -0.000987
    46  H    0.023126
    47  H    0.118312
    48  H    0.175938
    49  H    0.041177
    50  H    0.010154
    51  H   -0.001703
    52  H    0.036354
    53  H   -0.016607
    54  H    0.036358
    55  H    0.029961
    56  H    0.039772
    57  H   -0.008106
    58  H    0.056959
    59  H    0.061131
    60  H    0.222494
    61  H    0.018493
    62  H    0.015555
    63  H    0.025406
    64  H   -0.040064
    65  H    0.032499
    66  H   -0.018740
    67  H    0.025817
    68  H    0.021067
    69  H   -0.006930
    70  H    0.041951
    71  H    0.031485
    72  H    0.181191
    73  H    0.020036
    74  H    0.042439
    75  H   -0.017295
    76  H   -0.015030
    77  H    0.196545
    78  H    0.031297
    79  H    0.060458
 Sum of Mulliken charges =  -0.00000

 Dipole moment (field-independent basis, Debye):
    X=              3.8775    Y=              4.6490    Z=             -0.5355  Tot=              6.0774
 Quadrupole moment (field-independent basis, Debye-Ang):
   XX=           -233.5167   YY=           -231.5307   ZZ=           -277.8702
   XY=              7.2825   XZ=            -19.6966   YZ=             -8.7497

 Normal termination of Gaussian 16 at Fri Jul 26 22:51:10 2019.
