 Gaussian 16, Revision A.03,
 Gaussian 16:  ES64L-G16RevA.03 25-Dec-2016

 --------------------------
 # td=(NStates=1) B3LYP/SVP
 --------------------------

 --
 TD
 --
 Symbolic Z-matrix:
 Charge =  0 Multiplicity = 1

                         Standard orientation:
 ---------------------------------------------------------------------
 Center     Atomic      Atomic             Coordinates (Angstroms)
 Number     Number       Type             X           Y           Z
 ---------------------------------------------------------------------
      1          8           0        5.288828   -0.196535   -3.299765
      2          8           0       -3.116343   -2.791150    3.016709
      3          8           0       -3.400097   -0.603197    2.676053
      4          8           0       -1.164508    7.251769    1.420394
      5          8           0       -0.045857    6.930969   -0.435568
      6          8           0       -1.806113   -3.908740   -0.068360
      7          7           0        2.326037    0.802338    0.671866
      8          7           0        4.288859   -0.700467   -1.252017
      9          7           0       -1.865524    0.762377   -0.303059
     10          7           0       -2.652738   -1.848799   -0.601325
     11          6           0        4.766618   -1.307345   -0.063539
     12          6           0        4.326377   -0.508186    1.240881
     13          6           0        2.864704   -0.103544    1.381911
     14          6           0        1.853923   -0.732316    2.070099
     15          6           0        0.623450   -0.094503    1.897778
     16          6           0        0.954465    0.903636    0.966344
     17          6           0        6.225759   -1.491109   -0.147565
     18          6           0       -0.582749   -0.212867    2.654791
     19          6           0        6.669064   -1.010509   -1.345814
     20          6           0        0.268529    1.914761    0.220814
     21          6           0       -0.968425    1.853688   -0.186230
     22          6           0        5.380714   -0.657630   -2.122646
     23          6           0       -1.752592    2.940311   -0.861420
     24          6           0        2.104114   -1.841987    3.152697
     25          6           0        7.033731   -2.149301    0.821147
     26          6           0       -3.020491    2.381832   -1.261993
     27          6           0       -1.171159   -1.587147    2.492810
     28          6           0       -3.101790    1.014071   -0.909033
     29          6           0       -1.408457    4.333218   -0.928291
     30          6           0        7.932613   -0.940109   -2.061916
     31          6           0       -1.592642    5.146156    0.380021
     32          6           0       -4.068287    3.238564   -1.937412
     33          6           0       -3.932314   -0.056869   -1.295551
     34          6           0       -2.671369   -1.618124    2.735897
     35          6           0       -3.823760   -1.403656   -1.047689
     36          6           0        9.111440   -0.954912   -1.438307
     37          6           0       -0.866344    6.506631    0.317443
     38          6           0       -4.785979   -2.492253   -1.380526
     39          6           0       -4.059043   -3.642048   -1.099161
     40          6           0       -2.701664   -3.246925   -0.490221
     41          6           0       -6.016400   -2.260437   -2.118176
     42          6           0       -4.582849   -5.168296   -1.018467
     43          6           0       -6.991098   -3.154225   -2.317437
     44          1           0        4.516811   -2.343600    0.171441
     45          1           0        4.863636    0.592376    1.147231
     46          1           0        4.738737   -1.132589    2.036782
     47          1           0        2.827006    1.374204    0.108252
     48          1           0        3.487758   -0.612726   -1.685109
     49          1           0       -0.507251    0.178805    3.700075
     50          1           0       -1.320070    0.587996    2.172059
     51          1           0        0.642798    3.139558    0.219004
     52          1           0        3.168422   -1.839927    3.312925
     53          1           0        1.538051   -1.650617    4.018087
     54          1           0        1.947576   -2.847893    2.686371
     55          1           0        6.463830   -3.032014    1.407728
     56          1           0        7.451003   -1.518587    1.683963
     57          1           0        7.946631   -2.697535    0.603955
     58          1           0       -1.005363   -2.058560    1.609111
     59          1           0       -0.634289   -2.180314    3.104162
     60          1           0       -1.815805   -0.147268    0.248152
     61          1           0       -1.927401    4.928046   -1.612379
     62          1           0       -0.422291    4.427606   -1.228299
     63          1           0        7.914090   -0.338306   -3.021821
     64          1           0       -1.319106    4.424997    1.188437
     65          1           0       -2.571237    5.183755    0.777660
     66          1           0       -3.450827    4.135935   -2.712644
     67          1           0       -5.051915    3.941677   -1.196744
     68          1           0       -4.710420    2.489649   -2.539424
     69          1           0       -4.854711    0.490254   -1.919398
     70          1           0        9.131684   -1.363349   -0.277818
     71          1           0       10.144289   -1.020506   -1.996673
     72          1           0       -4.139701   -2.613114    2.834013
     73          1           0       -6.229834   -1.287627   -2.292578
     74          1           0       -5.351128   -5.358055   -0.218228
     75          1           0       -4.870388   -5.587198   -2.043078
     76          1           0       -3.676859   -5.688171   -0.674267
     77          1           0       -0.815784    8.125433    1.300376
     78          1           0       -7.940508   -2.615790   -2.766382
     79          1           0       -6.999692   -4.251006   -2.036338
 ---------------------------------------------------------------------

 SCF Done:  E(RB3LYP) =  -1947.77550882     A.U. after   17 cycles

 Excitation energies and oscillator strengths:

 Excited State   1:      Singlet-A      1.9976 eV  620.67 nm  f=0.3940  <S**2>=0.000
     155 ->156         0.69356
     155 <-156        -0.10944
 This state for optimization and/or second-order correction.
 Total Energy, E(TD-HF/TD-DFT) =  -1947.70209943
 Copying the excited state density for this state as the 1-particle RhoCI density.

 The electronic state is 1-A.
 Alpha  occ. eigenvalues --  -19.19410 -19.17753 -19.14099 -19.11284 -19.10864
 Alpha  occ. eigenvalues --  -19.10024 -14.38109 -14.35884 -14.35786 -14.28012
 Alpha  occ. eigenvalues --  -10.33411 -10.31209 -10.28918 -10.26464 -10.25732
 Alpha  occ. eigenvalues --  -10.25110 -10.24696 -10.24084 -10.23488 -10.22947
 Alpha  occ. eigenvalues --  -10.22698 -10.22633 -10.22522 -10.22395 -10.22383
 Alpha  occ. eigenvalues --  -10.21894 -10.21886 -10.21612 -10.21427 -10.21218
 Alpha  occ. eigenvalues --  -10.20648 -10.20527 -10.20484 -10.20320 -10.20211
 Alpha  occ. eigenvalues --  -10.19870 -10.19776 -10.19670 -10.19420 -10.19019
 Alpha  occ. eigenvalues --  -10.18956 -10.18085 -10.17666  -1.10935  -1.10934
 Alpha  occ. eigenvalues --   -1.02967  -1.01862  -1.01555  -1.01158  -0.98136
 Alpha  occ. eigenvalues --   -0.96428  -0.94584  -0.91810  -0.84410  -0.83708
 Alpha  occ. eigenvalues --   -0.83329  -0.81732  -0.79998  -0.79453  -0.78102
 Alpha  occ. eigenvalues --   -0.77766  -0.77164  -0.75654  -0.73832  -0.72914
 Alpha  occ. eigenvalues --   -0.72536  -0.71197  -0.69807  -0.68919  -0.68494
 Alpha  occ. eigenvalues --   -0.67166  -0.66210  -0.64361  -0.61406  -0.60831
 Alpha  occ. eigenvalues --   -0.60284  -0.59711  -0.59557  -0.58484  -0.57655
 Alpha  occ. eigenvalues --   -0.56798  -0.56308  -0.55705  -0.54672  -0.53509
 Alpha  occ. eigenvalues --   -0.51887  -0.51685  -0.51466  -0.51096  -0.50825
 Alpha  occ. eigenvalues --   -0.49730  -0.49193  -0.48724  -0.48504  -0.48290
 Alpha  occ. eigenvalues --   -0.47687  -0.47267  -0.47170  -0.46414  -0.45947
 Alpha  occ. eigenvalues --   -0.45841  -0.45289  -0.44349  -0.44055  -0.43384
 Alpha  occ. eigenvalues --   -0.43123  -0.43053  -0.42515  -0.42491  -0.42118
 Alpha  occ. eigenvalues --   -0.42023  -0.41903  -0.41729  -0.41368  -0.41266
 Alpha  occ. eigenvalues --   -0.40930  -0.40512  -0.39909  -0.39777  -0.39603
 Alpha  occ. eigenvalues --   -0.39282  -0.39150  -0.38744  -0.38687  -0.38394
 Alpha  occ. eigenvalues --   -0.37607  -0.37448  -0.37033  -0.36730  -0.36487
 Alpha  occ. eigenvalues --   -0.36130  -0.35847  -0.35511  -0.35190  -0.34356
 Alpha  occ. eigenvalues --   -0.34238  -0.33945  -0.33212  -0.32233  -0.31985
 Alpha  occ. eigenvalues --   -0.31834  -0.31036  -0.29721  -0.29272  -0.27191
 Alpha  occ. eigenvalues --   -0.27164  -0.26904  -0.25650  -0.25300  -0.24670
 Alpha  occ. eigenvalues --   -0.24376  -0.23713  -0.23427  -0.22108  -0.19304
 Alpha virt. eigenvalues --   -0.11289  -0.06819  -0.06588  -0.01469  -0.00863
 Alpha virt. eigenvalues --   -0.00458   0.00181   0.01107   0.01354   0.02787
 Alpha virt. eigenvalues --    0.03171   0.03630   0.03787   0.04488   0.05320

 Mulliken charges:
               1
     1  O   -0.275522
     2  O   -0.146820
     3  O   -0.290304
     4  O   -0.186379
     5  O   -0.194368
     6  O   -0.170087
     7  N    0.068262
     8  N   -0.100739
     9  N   -0.170162
    10  N   -0.287163
    11  C    0.171032
    12  C    0.114361
    13  C   -0.100341
    14  C   -0.205054
    15  C   -0.045034
    16  C    0.041094
    17  C   -0.127026
    18  C    0.019578
    19  C   -0.049004
    20  C   -0.126097
    21  C    0.107810
    22  C    0.117400
    23  C   -0.089941
    24  C    0.142274
    25  C   -0.007489
    26  C   -0.062655
    27  C    0.120621
    28  C    0.096472
    29  C    0.166369
    30  C    0.020518
    31  C   -0.015774
    32  C   -0.101036
    33  C   -0.116864
    34  C    0.122281
    35  C    0.087371
    36  C   -0.106545
    37  C    0.153944
    38  C    0.060768
    39  C   -0.232634
    40  C    0.150192
    41  C    0.038989
    42  C    0.030866
    43  C   -0.050846
    44  H    0.008193
    45  H    0.010055
    46  H   -0.000957
    47  H    0.070556
    48  H    0.082647
    49  H    0.024400
    50  H    0.028082
    51  H    0.052703
    52  H   -0.025725
    53  H    0.019651
    54  H    0.026581
    55  H    0.024745
    56  H    0.046434
    57  H    0.035543
    58  H    0.016976
    59  H   -0.029534
    60  H    0.183612
    61  H   -0.021060
    62  H   -0.004899
    63  H    0.044956
    64  H    0.036409
    65  H    0.009887
    66  H    0.067849
    67  H    0.055049
    68  H    0.043555
    69  H    0.017908
    70  H    0.032529
    71  H    0.056680
    72  H    0.212173
    73  H   -0.051803
    74  H    0.041468
    75  H    0.042435
    76  H    0.024017
    77  H    0.167198
    78  H    0.037080
    79  H    0.042293
 Sum of Mulliken charges =  -0.00000

 Dipole moment (field-independent basis, Debye):
    X=              0.6971    Y=              1.4945    Z=              4.2144  Tot=              4.5255
 Quadrupole moment (field-independent basis, Debye-Ang):
   XX=           -218.0277   YY=           -243.1787   ZZ=           -267.1839
   XY=            -12.8828   XZ=             29.9846   YZ=             -0.8679

 Normal termination of Gaussian 16 at Tue Sep 24 22:49:26 2019.
