 Gaussian 16, Revision A.03,
 Gaussian 16:  ES64L-G16RevA.03 25-Dec-2016

 --------------------------
 # td=(NStates=1) B3LYP/SVP
 --------------------------

 --
 TD
 --
 Symbolic Z-matrix:
 Charge =  0 Multiplicity = 1

                         Standard orientation:
 ---------------------------------------------------------------------
 Center     Atomic      Atomic             Coordinates (Angstroms)
 Number     Number       Type             X           Y           Z
 ---------------------------------------------------------------------
      1          8           0        5.263518   -0.154797   -3.366043
      2          8           0       -2.864599   -2.877700    3.590055
      3          8           0       -3.329075   -0.825023    2.923081
      4          8           0       -1.624276    7.129877    1.408220
      5          8           0       -1.052745    7.028409   -0.744203
      6          8           0       -1.596789   -3.954508    0.271415
      7          7           0        2.213869    0.993935    0.544656
      8          7           0        4.258833   -0.487613   -1.282968
      9          7           0       -1.846928    0.669606   -0.332392
     10          7           0       -2.523010   -1.990839   -0.284627
     11          6           0        4.664361   -1.032301    0.037417
     12          6           0        4.365675   -0.110591    1.217927
     13          6           0        2.854466    0.145354    1.462079
     14          6           0        1.948394   -0.491628    2.198705
     15          6           0        0.697516    0.076669    1.872755
     16          6           0        0.888792    0.992380    0.799984
     17          6           0        6.250554   -1.138578   -0.129246
     18          6           0       -0.613787   -0.171217    2.601442
     19          6           0        6.539389   -0.765745   -1.421616
     20          6           0        0.167952    1.900465    0.146581
     21          6           0       -1.169985    1.820695   -0.317717
     22          6           0        5.327950   -0.374677   -2.142171
     23          6           0       -2.065768    2.916493   -0.814984
     24          6           0        2.171917   -1.579135    3.202260
     25          6           0        7.083073   -1.778363    0.968625
     26          6           0       -3.176851    2.242688   -1.309411
     27          6           0       -1.131135   -1.652489    2.682950
     28          6           0       -3.077099    0.807432   -0.998094
     29          6           0       -1.694663    4.346864   -0.965876
     30          6           0        7.866858   -0.712335   -2.056574
     31          6           0       -1.935879    5.118793    0.299421
     32          6           0       -4.463776    2.881704   -1.927766
     33          6           0       -3.920537   -0.130166   -1.180505
     34          6           0       -2.575859   -1.648617    3.082260
     35          6           0       -3.528770   -1.540386   -1.016538
     36          6           0        9.102743   -0.633505   -1.518786
     37          6           0       -1.517787    6.442537    0.231744
     38          6           0       -4.320808   -2.782506   -1.505016
     39          6           0       -3.525809   -3.921282   -1.079507
     40          6           0       -2.531245   -3.320720   -0.248908
     41          6           0       -5.517829   -2.758663   -2.413955
     42          6           0       -3.767851   -5.399874   -1.244777
     43          6           0       -6.254396   -3.757344   -2.959397
     44          1           0        4.272485   -2.066200    0.520538
     45          1           0        4.857813    0.903671    1.104619
     46          1           0        4.869596   -0.643433    2.234236
     47          1           0        2.650590    1.599732   -0.136145
     48          1           0        3.266963   -0.478847   -1.665814
     49          1           0       -0.445762    0.234364    3.558468
     50          1           0       -1.415282    0.660049    2.225016
     51          1           0        0.508255    2.663476   -0.225772
     52          1           0        3.054740   -1.262401    3.423684
     53          1           0        1.559971   -1.381966    3.868603
     54          1           0        1.892826   -2.600203    2.893303
     55          1           0        6.585052   -2.615194    1.355399
     56          1           0        7.447954   -1.012544    1.636027
     57          1           0        7.912222   -2.433249    0.608241
     58          1           0       -1.084692   -2.189214    1.795983
     59          1           0       -0.579433   -2.173022    3.377324
     60          1           0       -1.694840   -0.291988   -0.143128
     61          1           0       -2.248648    4.902387   -1.840108
     62          1           0       -0.566604    4.441678   -1.241748
     63          1           0        7.702364   -0.587984   -3.089617
     64          1           0       -1.466577    4.489096    1.176228
     65          1           0       -3.213405    5.106460    0.736942
     66          1           0       -4.424292    3.883917   -2.114867
     67          1           0       -5.301627    2.686585   -1.302975
     68          1           0       -4.728245    2.229818   -2.861025
     69          1           0       -4.940798    0.220157   -1.640456
     70          1           0        9.135814   -0.636448   -0.484171
     71          1           0        9.995820   -0.413015   -2.125675
     72          1           0       -3.910003   -2.872545    3.516190
     73          1           0       -5.670768   -1.723667   -2.805110
     74          1           0       -4.535619   -5.822606   -1.007934
     75          1           0       -3.905875   -5.565074   -2.263011
     76          1           0       -2.873059   -5.881060   -0.873447
     77          1           0       -1.263393    8.052127    1.258002
     78          1           0       -7.056611   -3.541125   -3.481765
     79          1           0       -6.313380   -4.899117   -2.478747
 ---------------------------------------------------------------------

 SCF Done:  E(RB3LYP) =  -1947.73869739     A.U. after   19 cycles

 Excitation energies and oscillator strengths:

 Excited State   1:      Singlet-A      1.7994 eV  689.03 nm  f=0.3637  <S**2>=0.000
     155 ->156         0.70595
     155 <-156        -0.14810
 This state for optimization and/or second-order correction.
 Total Energy, E(TD-HF/TD-DFT) =  -1947.67257074
 Copying the excited state density for this state as the 1-particle RhoCI density.

 The electronic state is 1-A.
 Alpha  occ. eigenvalues --  -19.18041 -19.16099 -19.12989 -19.11722 -19.10132
 Alpha  occ. eigenvalues --  -19.10101 -14.37519 -14.36790 -14.35803 -14.29591
 Alpha  occ. eigenvalues --  -10.32310 -10.29258 -10.28818 -10.26637 -10.25869
 Alpha  occ. eigenvalues --  -10.25188 -10.24513 -10.23722 -10.23469 -10.23356
 Alpha  occ. eigenvalues --  -10.22894 -10.22650 -10.22635 -10.21855 -10.21780
 Alpha  occ. eigenvalues --  -10.21639 -10.21561 -10.21423 -10.20953 -10.20512
 Alpha  occ. eigenvalues --  -10.20436 -10.20288 -10.20140 -10.20085 -10.19400
 Alpha  occ. eigenvalues --  -10.19233 -10.19051 -10.18944 -10.18938 -10.18241
 Alpha  occ. eigenvalues --  -10.16985 -10.16628 -10.16583  -1.10280  -1.09204
 Alpha  occ. eigenvalues --   -1.01473  -1.01340  -1.00475  -0.99616  -0.99195
 Alpha  occ. eigenvalues --   -0.98476  -0.93135  -0.92900  -0.83678  -0.83068
 Alpha  occ. eigenvalues --   -0.82145  -0.81838  -0.79958  -0.79706  -0.78959
 Alpha  occ. eigenvalues --   -0.77699  -0.76786  -0.76060  -0.75214  -0.73598
 Alpha  occ. eigenvalues --   -0.72660  -0.72282  -0.70511  -0.69888  -0.69386
 Alpha  occ. eigenvalues --   -0.67347  -0.66416  -0.64171  -0.61675  -0.61089
 Alpha  occ. eigenvalues --   -0.60912  -0.59311  -0.58364  -0.57269  -0.56632
 Alpha  occ. eigenvalues --   -0.56309  -0.55785  -0.55287  -0.53801  -0.53583
 Alpha  occ. eigenvalues --   -0.53057  -0.52223  -0.51779  -0.51116  -0.50144
 Alpha  occ. eigenvalues --   -0.49056  -0.48698  -0.48262  -0.48155  -0.47967
 Alpha  occ. eigenvalues --   -0.47754  -0.47594  -0.46851  -0.46606  -0.46121
 Alpha  occ. eigenvalues --   -0.45979  -0.45461  -0.44951  -0.44777  -0.44092
 Alpha  occ. eigenvalues --   -0.43951  -0.43673  -0.43504  -0.43043  -0.42919
 Alpha  occ. eigenvalues --   -0.42762  -0.42423  -0.41955  -0.41504  -0.41287
 Alpha  occ. eigenvalues --   -0.41106  -0.40999  -0.40794  -0.40396  -0.40063
 Alpha  occ. eigenvalues --   -0.39770  -0.39259  -0.38974  -0.38911  -0.38791
 Alpha  occ. eigenvalues --   -0.38257  -0.37624  -0.37518  -0.37182  -0.37064
 Alpha  occ. eigenvalues --   -0.36840  -0.36552  -0.35405  -0.34396  -0.34012
 Alpha  occ. eigenvalues --   -0.33486  -0.33276  -0.32311  -0.32236  -0.31668
 Alpha  occ. eigenvalues --   -0.31623  -0.31208  -0.28911  -0.28731  -0.27500
 Alpha  occ. eigenvalues --   -0.27200  -0.26984  -0.26121  -0.25807  -0.25436
 Alpha  occ. eigenvalues --   -0.24598  -0.24546  -0.24114  -0.22538  -0.18277
 Alpha virt. eigenvalues --   -0.11578  -0.07153  -0.06232  -0.03103  -0.01675
 Alpha virt. eigenvalues --    0.00462   0.01788   0.02794   0.03146   0.03879
 Alpha virt. eigenvalues --    0.04149   0.04540   0.04691   0.05173   0.05298

 Mulliken charges:
               1
     1  O   -0.249609
     2  O   -0.238598
     3  O   -0.136875
     4  O   -0.215155
     5  O   -0.247871
     6  O   -0.233243
     7  N   -0.086390
     8  N   -0.214889
     9  N   -0.028063
    10  N   -0.202448
    11  C    0.064578
    12  C    0.065192
    13  C   -0.064238
    14  C   -0.203044
    15  C   -0.085744
    16  C    0.191613
    17  C   -0.171197
    18  C    0.022779
    19  C   -0.047789
    20  C   -0.022420
    21  C    0.017945
    22  C    0.165505
    23  C   -0.045483
    24  C    0.380923
    25  C    0.122336
    26  C   -0.139190
    27  C    0.120454
    28  C    0.127609
    29  C    0.037168
    30  C    0.003920
    31  C   -0.113063
    32  C    0.135463
    33  C   -0.131121
    34  C    0.072754
    35  C    0.056875
    36  C    0.021997
    37  C    0.164232
    38  C   -0.035371
    39  C   -0.178726
    40  C    0.102613
    41  C   -0.018347
    42  C    0.268682
    43  C   -0.011325
    44  H    0.048892
    45  H   -0.000778
    46  H    0.034300
    47  H    0.111410
    48  H    0.156685
    49  H   -0.011779
    50  H    0.033821
    51  H   -0.174918
    52  H   -0.062775
    53  H   -0.089337
    54  H    0.042286
    55  H    0.004357
    56  H    0.049963
    57  H    0.025164
    58  H    0.032465
    59  H   -0.021416
    60  H    0.119214
    61  H    0.047054
    62  H    0.049708
    63  H   -0.014990
    64  H    0.076945
    65  H    0.085801
    66  H   -0.006483
    67  H    0.018415
    68  H    0.028503
    69  H    0.014085
    70  H   -0.015367
    71  H    0.037353
    72  H    0.191844
    73  H    0.001662
    74  H   -0.068652
    75  H   -0.015693
    76  H    0.022569
    77  H    0.198590
    78  H   -0.014681
    79  H    0.043344
 Sum of Mulliken charges =  -0.00000

 Dipole moment (field-independent basis, Debye):
    X=             -0.4993    Y=              2.0529    Z=              2.9978  Tot=              3.6674
 Quadrupole moment (field-independent basis, Debye-Ang):
   XX=           -218.9631   YY=           -249.7165   ZZ=           -266.9089
   XY=             -4.5205   XZ=             34.8809   YZ=              7.0872

 Normal termination of Gaussian 16 at Mon Sep 16 20:21:36 2019.
