 Gaussian 16, Revision A.03,
 Gaussian 16:  ES64L-G16RevA.03 25-Dec-2016

 --------------------------
 # td=(NStates=1) B3LYP/SVP
 --------------------------

 --
 TD
 --
 Symbolic Z-matrix:
 Charge =  0 Multiplicity = 1

                         Standard orientation:
 ---------------------------------------------------------------------
 Center     Atomic      Atomic             Coordinates (Angstroms)
 Number     Number       Type             X           Y           Z
 ---------------------------------------------------------------------
      1          8           0       -3.064907   -1.334683   -2.899834
      2          8           0        3.155056    3.003288    3.046716
      3          8           0        3.869833    1.295498    4.286681
      4          8           0        7.528508   -1.636330   -0.573468
      5          8           0        6.704935   -2.681271   -2.447479
      6          8           0       -2.657868    1.599560    1.512691
      7          7           0       -0.294039   -2.390900    0.915471
      8          7           0       -2.561859   -1.257467   -0.686536
      9          7           0        1.033383    0.071036   -0.660533
     10          7           0       -1.002568    1.485490   -0.126972
     11          6           0       -3.365597   -1.371111    0.588757
     12          6           0       -2.668700   -2.412728    1.620385
     13          6           0       -1.295172   -2.107003    1.791508
     14          6           0       -0.629702   -1.374990    2.825827
     15          6           0        0.791182   -1.348306    2.451743
     16          6           0        0.869965   -1.784070    1.221214
     17          6           0       -4.698553   -1.824138    0.090140
     18          6           0        1.829447   -0.546296    3.223800
     19          6           0       -4.689600   -2.003186   -1.226274
     20          6           0        1.983594   -1.879983    0.298443
     21          6           0        2.102651   -0.899456   -0.675953
     22          6           0       -3.329145   -1.468357   -1.777422
     23          6           0        2.961132   -0.630124   -1.754187
     24          6           0       -1.280627   -0.719845    3.941510
     25          6           0       -5.697140   -2.093528    1.166882
     26          6           0        2.521434    0.532184   -2.387801
     27          6           0        1.940577    0.922179    2.739517
     28          6           0        1.297899    0.943665   -1.708127
     29          6           0        4.228098   -1.404320   -2.097592
     30          6           0       -5.766499   -2.385804   -2.056103
     31          6           0        5.349123   -1.082146   -1.175317
     32          6           0        3.089144    1.122693   -3.625691
     33          6           0        0.458763    2.048393   -1.870267
     34          6           0        3.131427    1.708911    3.469831
     35          6           0       -0.646747    2.349317   -1.099657
     36          6           0       -6.915202   -3.228864   -1.771826
     37          6           0        6.538197   -1.867492   -1.483518
     38          6           0       -1.494505    3.567247   -1.167959
     39          6           0       -2.288012    3.492056   -0.129258
     40          6           0       -2.053721    2.103949    0.503016
     41          6           0       -1.338299    4.669194   -2.038318
     42          6           0       -3.313318    4.319204    0.445253
     43          6           0       -1.941920    5.845325   -2.032650
     44          1           0       -3.435258   -0.323648    1.079029
     45          1           0       -2.580577   -3.364373    0.973200
     46          1           0       -3.314362   -2.851123    2.530125
     47          1           0       -0.531014   -2.670429   -0.003091
     48          1           0       -1.848042   -0.449226   -0.630290
     49          1           0        1.472695   -0.640131    4.388591
     50          1           0        2.876362   -1.062150    3.155385
     51          1           0        2.676172   -2.765617    0.254055
     52          1           0       -2.154294   -1.204395    4.517508
     53          1           0       -0.430288   -0.275033    4.674385
     54          1           0       -2.038311    0.142509    3.502498
     55          1           0       -5.897655   -1.118040    2.075328
     56          1           0       -5.676974   -3.019795    1.820293
     57          1           0       -6.697590   -1.980253    0.683437
     58          1           0        2.131017    0.768642    1.679459
     59          1           0        1.108901    1.385292    2.918798
     60          1           0        0.218451   -0.079599   -0.111454
     61          1           0        4.625976   -1.378684   -3.095759
     62          1           0        4.041195   -2.560519   -2.252448
     63          1           0       -5.614093   -2.244527   -3.105983
     64          1           0        5.085525   -1.202224   -0.020873
     65          1           0        5.726111   -0.089047   -1.222695
     66          1           0        3.663744    0.327443   -4.352749
     67          1           0        3.794663    2.011870   -3.415483
     68          1           0        2.125890    1.735713   -4.018636
     69          1           0        0.546296    2.733010   -2.739841
     70          1           0       -7.057162   -3.700087   -0.892950
     71          1           0       -7.795907   -3.092110   -2.502995
     72          1           0        3.831831    3.506056    3.424233
     73          1           0       -0.606535    4.543124   -2.896623
     74          1           0       -4.091899    4.647458   -0.348681
     75          1           0       -3.945995    3.792473    1.316459
     76          1           0       -2.886857    5.323492    0.673312
     77          1           0        8.263689   -2.104705   -1.015997
     78          1           0       -1.494627    6.505362   -2.895384
     79          1           0       -2.680987    6.272281   -1.436046
 ---------------------------------------------------------------------

 SCF Done:  E(RB3LYP) =  -1947.83828861     A.U. after   17 cycles

 Excitation energies and oscillator strengths:

 Excited State   1:      Singlet-A      1.0957 eV 1131.55 nm  f=0.0006  <S**2>=0.000
     155 ->156         0.70371
 This state for optimization and/or second-order correction.
 Total Energy, E(TD-HF/TD-DFT) =  -1947.79802239
 Copying the excited state density for this state as the 1-particle RhoCI density.

 The electronic state is 1-A.
 Alpha  occ. eigenvalues --  -19.20183 -19.16950 -19.14546 -19.12735 -19.11793
 Alpha  occ. eigenvalues --  -19.09170 -14.37818 -14.36108 -14.33452 -14.30825
 Alpha  occ. eigenvalues --  -10.34071 -10.31748 -10.28006 -10.27585 -10.26968
 Alpha  occ. eigenvalues --  -10.25776 -10.24881 -10.24331 -10.23904 -10.23557
 Alpha  occ. eigenvalues --  -10.23349 -10.23179 -10.22814 -10.22572 -10.21228
 Alpha  occ. eigenvalues --  -10.21222 -10.20972 -10.20820 -10.20721 -10.20697
 Alpha  occ. eigenvalues --  -10.20519 -10.20476 -10.20238 -10.20216 -10.19911
 Alpha  occ. eigenvalues --  -10.19877 -10.19292 -10.19024 -10.18920 -10.18917
 Alpha  occ. eigenvalues --  -10.18170 -10.16875 -10.16734  -1.10653  -1.09845
 Alpha  occ. eigenvalues --   -1.04211  -1.01539  -1.00493  -0.99969  -0.99447
 Alpha  occ. eigenvalues --   -0.98233  -0.93714  -0.92070  -0.85128  -0.83430
 Alpha  occ. eigenvalues --   -0.82921  -0.80920  -0.80608  -0.80170  -0.78840
 Alpha  occ. eigenvalues --   -0.77300  -0.75945  -0.75600  -0.74382  -0.73174
 Alpha  occ. eigenvalues --   -0.71539  -0.70604  -0.70066  -0.68612  -0.67403
 Alpha  occ. eigenvalues --   -0.66405  -0.65764  -0.63241  -0.61497  -0.60650
 Alpha  occ. eigenvalues --   -0.60317  -0.60042  -0.58948  -0.58510  -0.58105
 Alpha  occ. eigenvalues --   -0.55861  -0.55527  -0.53923  -0.53627  -0.53460
 Alpha  occ. eigenvalues --   -0.52718  -0.51993  -0.51705  -0.50637  -0.50396
 Alpha  occ. eigenvalues --   -0.49897  -0.49135  -0.48569  -0.48475  -0.48054
 Alpha  occ. eigenvalues --   -0.47661  -0.47279  -0.46566  -0.46210  -0.45869
 Alpha  occ. eigenvalues --   -0.45181  -0.44789  -0.44729  -0.44544  -0.44451
 Alpha  occ. eigenvalues --   -0.43696  -0.43335  -0.43027  -0.42470  -0.42165
 Alpha  occ. eigenvalues --   -0.42095  -0.41575  -0.41356  -0.41313  -0.40713
 Alpha  occ. eigenvalues --   -0.40611  -0.40427  -0.40216  -0.39968  -0.39872
 Alpha  occ. eigenvalues --   -0.39073  -0.38946  -0.38693  -0.38381  -0.38190
 Alpha  occ. eigenvalues --   -0.37866  -0.37763  -0.36893  -0.36833  -0.36543
 Alpha  occ. eigenvalues --   -0.35853  -0.35190  -0.34965  -0.34821  -0.34156
 Alpha  occ. eigenvalues --   -0.33306  -0.33153  -0.32777  -0.32745  -0.32431
 Alpha  occ. eigenvalues --   -0.31155  -0.30280  -0.30050  -0.29593  -0.29045
 Alpha  occ. eigenvalues --   -0.28199  -0.27669  -0.26111  -0.25507  -0.24585
 Alpha  occ. eigenvalues --   -0.24435  -0.23094  -0.22460  -0.21602  -0.19299
 Alpha virt. eigenvalues --   -0.12816  -0.07681  -0.05237  -0.03073  -0.01892
 Alpha virt. eigenvalues --    0.01355   0.01787   0.02013   0.02377   0.03145
 Alpha virt. eigenvalues --    0.03536   0.04190   0.04443   0.04875   0.05145

 Mulliken charges:
               1
     1  O   -0.158178
     2  O   -0.176449
     3  O   -0.176993
     4  O   -0.179097
     5  O   -0.286229
     6  O   -0.262246
     7  N   -0.002356
     8  N   -0.262054
     9  N   -0.120756
    10  N   -0.286279
    11  C    0.032920
    12  C    0.123966
    13  C   -0.077978
    14  C   -0.093324
    15  C   -0.050770
    16  C   -0.062699
    17  C   -0.098905
    18  C   -0.015945
    19  C   -0.046694
    20  C   -0.102328
    21  C    0.098245
    22  C    0.127386
    23  C   -0.014527
    24  C   -0.030429
    25  C   -0.037039
    26  C   -0.088255
    27  C    0.093935
    28  C    0.184405
    29  C    0.061295
    30  C   -0.065007
    31  C    0.019589
    32  C   -0.002506
    33  C   -0.124600
    34  C    0.118282
    35  C    0.073298
    36  C   -0.026546
    37  C    0.146734
    38  C    0.142462
    39  C   -0.193323
    40  C    0.180867
    41  C   -0.050163
    42  C    0.023576
    43  C   -0.037527
    44  H    0.086987
    45  H   -0.015677
    46  H    0.045681
    47  H    0.090758
    48  H    0.171697
    49  H    0.032649
    50  H    0.013691
    51  H    0.021950
    52  H    0.008450
    53  H    0.024447
    54  H    0.052385
    55  H    0.030045
    56  H    0.060581
    57  H    0.029691
    58  H    0.031345
    59  H   -0.011326
    60  H    0.182732
    61  H   -0.003488
    62  H    0.042158
    63  H    0.004091
    64  H    0.074309
    65  H    0.031960
    66  H    0.080956
    67  H    0.047203
    68  H    0.050668
    69  H   -0.025271
    70  H   -0.009223
    71  H    0.042929
    72  H    0.150685
    73  H    0.003009
    74  H    0.036633
    75  H    0.070553
    76  H    0.033647
    77  H    0.183502
    78  H    0.036988
    79  H   -0.005153
 Sum of Mulliken charges =  -0.00000

 Dipole moment (field-independent basis, Debye):
    X=              3.6035    Y=              3.5322    Z=             -1.8534  Tot=              5.3755
 Quadrupole moment (field-independent basis, Debye-Ang):
   XX=           -236.1085   YY=           -236.6967   ZZ=           -273.5408
   XY=              4.9191   XZ=            -20.7082   YZ=            -13.5816

 Normal termination of Gaussian 16 at Thu Jul 25 17:01:36 2019.
