 Gaussian 16, Revision A.03,
 Gaussian 16:  ES64L-G16RevA.03 25-Dec-2016

 --------------------------
 # td=(NStates=1) B3LYP/SVP
 --------------------------

 --
 TD
 --
 Symbolic Z-matrix:
 Charge =  0 Multiplicity = 1

                         Standard orientation:
 ---------------------------------------------------------------------
 Center     Atomic      Atomic             Coordinates (Angstroms)
 Number     Number       Type             X           Y           Z
 ---------------------------------------------------------------------
      1          8           0       -3.410691   -1.336228   -2.879848
      2          8           0        3.081171    3.264529    3.006275
      3          8           0        3.656208    1.650509    4.290469
      4          8           0        7.789758   -1.593253   -0.896557
      5          8           0        6.649068   -3.159922   -1.923607
      6          8           0       -2.614707    1.712170    1.371162
      7          7           0       -0.351261   -2.379017    1.027280
      8          7           0       -2.803777   -1.172639   -0.579443
      9          7           0        1.281582    0.120012   -0.552398
     10          7           0       -0.969978    1.367977   -0.266327
     11          6           0       -3.443319   -1.296340    0.694476
     12          6           0       -2.688665   -2.359664    1.594349
     13          6           0       -1.293694   -2.056959    1.879993
     14          6           0       -0.667747   -1.241025    2.828360
     15          6           0        0.703933   -1.062007    2.537137
     16          6           0        0.930754   -1.872247    1.310292
     17          6           0       -4.867706   -1.812003    0.331688
     18          6           0        1.819892   -0.315595    3.169614
     19          6           0       -4.928274   -1.895283   -1.087888
     20          6           0        2.017281   -1.958918    0.388342
     21          6           0        2.066713   -1.042466   -0.531852
     22          6           0       -3.536071   -1.379437   -1.658696
     23          6           0        3.030902   -0.803788   -1.655972
     24          6           0       -1.589278   -0.382936    3.777081
     25          6           0       -5.832835   -2.193088    1.266548
     26          6           0        2.734805    0.392575   -2.211317
     27          6           0        1.875691    1.109985    2.621397
     28          6           0        1.570250    0.936570   -1.626412
     29          6           0        4.248320   -1.685845   -1.821137
     30          6           0       -5.799000   -2.511736   -2.128298
     31          6           0        5.412843   -1.171506   -1.256643
     32          6           0        3.491131    1.040846   -3.394384
     33          6           0        0.690838    1.947493   -1.933982
     34          6           0        2.943596    1.912243    3.332956
     35          6           0       -0.514815    2.294520   -1.174377
     36          6           0       -6.955336   -3.204157   -1.772546
     37          6           0        6.684082   -2.116264   -1.417423
     38          6           0       -1.324392    3.514804   -1.266507
     39          6           0       -2.256902    3.471813   -0.378331
     40          6           0       -2.029770    2.094862    0.379736
     41          6           0       -1.071037    4.535571   -2.265232
     42          6           0       -3.362324    4.363971    0.101878
     43          6           0       -2.009163    5.533639   -2.665226
     44          1           0       -3.421287   -0.397249    1.168486
     45          1           0       -2.763158   -3.284290    1.220755
     46          1           0       -3.424785   -2.485832    2.457964
     47          1           0       -0.514336   -2.903050    0.241656
     48          1           0       -2.091359   -0.398868   -0.704392
     49          1           0        1.646660   -0.075633    4.290177
     50          1           0        2.800445   -0.760536    3.152019
     51          1           0        2.677849   -2.786579    0.311379
     52          1           0       -2.393382   -0.952169    4.183371
     53          1           0       -1.157514   -0.098721    4.893406
     54          1           0       -1.923120    0.468910    3.478253
     55          1           0       -5.822310   -1.575777    2.124623
     56          1           0       -5.380868   -3.295370    1.610836
     57          1           0       -6.903001   -2.107986    0.876689
     58          1           0        2.012356    1.066292    1.612021
     59          1           0        1.058169    1.907904    2.820107
     60          1           0        0.405388    0.292907   -0.124428
     61          1           0        4.566869   -1.649373   -2.892820
     62          1           0        4.009800   -2.717816   -1.589275
     63          1           0       -5.486997   -2.435719   -3.151130
     64          1           0        5.528639   -1.248801    0.024780
     65          1           0        5.652456   -0.134008   -1.363607
     66          1           0        4.056452    0.313752   -3.909319
     67          1           0        4.417154    1.672136   -2.959453
     68          1           0        2.703174    1.497906   -4.015507
     69          1           0        1.128148    2.694557   -2.660471
     70          1           0       -7.340154   -3.469772   -0.830084
     71          1           0       -7.499927   -3.403395   -2.576658
     72          1           0        3.513576    3.655142    3.756600
     73          1           0       -0.129184    4.484045   -2.874250
     74          1           0       -4.255113    4.401212   -0.683139
     75          1           0       -3.982145    4.056226    0.929137
     76          1           0       -2.920020    5.437130    0.240155
     77          1           0        8.498268   -2.183918   -0.632517
     78          1           0       -1.786512    6.259523   -3.427203
     79          1           0       -3.086869    5.574700   -1.950832
 ---------------------------------------------------------------------

 SCF Done:  E(RB3LYP) =  -1947.81194440     A.U. after   16 cycles

 Excitation energies and oscillator strengths:

 Excited State   1:      Singlet-A      1.2692 eV  976.88 nm  f=0.0021  <S**2>=0.000
     154 ->156        -0.10796
     155 ->156         0.69538
 This state for optimization and/or second-order correction.
 Total Energy, E(TD-HF/TD-DFT) =  -1947.76530254
 Copying the excited state density for this state as the 1-particle RhoCI density.

 The electronic state is 1-A.
 Alpha  occ. eigenvalues --  -19.18536 -19.15153 -19.13651 -19.13615 -19.11592
 Alpha  occ. eigenvalues --  -19.08080 -14.37022 -14.36149 -14.33786 -14.32525
 Alpha  occ. eigenvalues --  -10.33040 -10.31257 -10.29645 -10.26937 -10.26301
 Alpha  occ. eigenvalues --  -10.26201 -10.24898 -10.23144 -10.23030 -10.22987
 Alpha  occ. eigenvalues --  -10.22624 -10.22494 -10.22359 -10.22202 -10.22087
 Alpha  occ. eigenvalues --  -10.21981 -10.21787 -10.21768 -10.21582 -10.21265
 Alpha  occ. eigenvalues --  -10.21107 -10.20476 -10.20211 -10.20181 -10.20068
 Alpha  occ. eigenvalues --  -10.19608 -10.19398 -10.18674 -10.18527 -10.17900
 Alpha  occ. eigenvalues --  -10.17431 -10.16789 -10.16681  -1.11981  -1.07999
 Alpha  occ. eigenvalues --   -1.04465  -1.03332  -1.00031  -0.99684  -0.98200
 Alpha  occ. eigenvalues --   -0.97276  -0.93966  -0.93219  -0.85336  -0.83841
 Alpha  occ. eigenvalues --   -0.82832  -0.80840  -0.80463  -0.80040  -0.78519
 Alpha  occ. eigenvalues --   -0.77056  -0.76448  -0.75343  -0.74533  -0.72825
 Alpha  occ. eigenvalues --   -0.71453  -0.70600  -0.69870  -0.68510  -0.68182
 Alpha  occ. eigenvalues --   -0.67259  -0.66992  -0.64401  -0.62957  -0.61331
 Alpha  occ. eigenvalues --   -0.59820  -0.59386  -0.58288  -0.58230  -0.57013
 Alpha  occ. eigenvalues --   -0.56235  -0.55863  -0.54764  -0.54422  -0.53364
 Alpha  occ. eigenvalues --   -0.53306  -0.52475  -0.51788  -0.51297  -0.50154
 Alpha  occ. eigenvalues --   -0.49751  -0.49538  -0.49047  -0.48363  -0.47693
 Alpha  occ. eigenvalues --   -0.47388  -0.46842  -0.46482  -0.46114  -0.46077
 Alpha  occ. eigenvalues --   -0.45465  -0.45279  -0.44996  -0.44591  -0.44503
 Alpha  occ. eigenvalues --   -0.44234  -0.43996  -0.43512  -0.43245  -0.42699
 Alpha  occ. eigenvalues --   -0.42577  -0.42027  -0.41650  -0.41375  -0.41230
 Alpha  occ. eigenvalues --   -0.41049  -0.40887  -0.40645  -0.40182  -0.40046
 Alpha  occ. eigenvalues --   -0.39542  -0.39386  -0.38851  -0.38582  -0.38494
 Alpha  occ. eigenvalues --   -0.38071  -0.37659  -0.37304  -0.37231  -0.36994
 Alpha  occ. eigenvalues --   -0.36362  -0.35629  -0.35170  -0.34727  -0.34151
 Alpha  occ. eigenvalues --   -0.33910  -0.33457  -0.33260  -0.32622  -0.32046
 Alpha  occ. eigenvalues --   -0.31351  -0.30408  -0.29844  -0.29041  -0.28716
 Alpha  occ. eigenvalues --   -0.27706  -0.26634  -0.26489  -0.25383  -0.24838
 Alpha  occ. eigenvalues --   -0.23453  -0.22776  -0.22532  -0.20890  -0.19547
 Alpha virt. eigenvalues --   -0.12480  -0.07395  -0.04129  -0.02885   0.00123
 Alpha virt. eigenvalues --    0.00403   0.01623   0.02216   0.03100   0.03481
 Alpha virt. eigenvalues --    0.04020   0.04235   0.04449   0.04706   0.05303

 Mulliken charges:
               1
     1  O   -0.256991
     2  O   -0.224789
     3  O   -0.250964
     4  O   -0.182524
     5  O   -0.159734
     6  O   -0.178129
     7  N    0.016502
     8  N   -0.176213
     9  N   -0.104175
    10  N   -0.344702
    11  C    0.154943
    12  C    0.198500
    13  C   -0.067446
    14  C   -0.112692
    15  C   -0.062702
    16  C   -0.013040
    17  C   -0.185836
    18  C    0.102186
    19  C   -0.086135
    20  C   -0.126323
    21  C    0.170227
    22  C    0.111463
    23  C   -0.052786
    24  C    0.113038
    25  C    0.060789
    26  C   -0.154203
    27  C    0.021541
    28  C    0.096238
    29  C    0.196667
    30  C   -0.018831
    31  C   -0.109464
    32  C    0.107793
    33  C   -0.082299
    34  C    0.125030
    35  C    0.088177
    36  C    0.032629
    37  C    0.108613
    38  C    0.123605
    39  C   -0.191374
    40  C    0.177627
    41  C   -0.065090
    42  C    0.037228
    43  C   -0.062052
    44  H   -0.004157
    45  H   -0.067003
    46  H   -0.002967
    47  H    0.074374
    48  H    0.156653
    49  H    0.018122
    50  H    0.010270
    51  H   -0.021702
    52  H   -0.021498
    53  H   -0.014504
    54  H   -0.013742
    55  H    0.006086
    56  H    0.056507
    57  H    0.048064
    58  H    0.000808
    59  H    0.065042
    60  H    0.152315
    61  H    0.014436
    62  H    0.020619
    63  H    0.011491
    64  H    0.040759
    65  H    0.026701
    66  H   -0.005083
    67  H    0.050544
    68  H    0.049808
    69  H   -0.004883
    70  H    0.001723
    71  H   -0.019698
    72  H    0.164681
    73  H    0.009507
    74  H    0.054597
    75  H    0.025305
    76  H    0.060566
    77  H    0.186997
    78  H    0.035973
    79  H    0.058989
 Sum of Mulliken charges =  -0.00000

 Dipole moment (field-independent basis, Debye):
    X=              2.9882    Y=              2.6855    Z=             -0.8794  Tot=              4.1127
 Quadrupole moment (field-independent basis, Debye-Ang):
   XX=           -232.6006   YY=           -237.5147   ZZ=           -272.6601
   XY=             -6.9273   XZ=            -24.0041   YZ=            -16.3724

 Normal termination of Gaussian 16 at Wed Jul 31 01:04:37 2019.
