 Gaussian 16, Revision A.03,
 Gaussian 16:  ES64L-G16RevA.03 25-Dec-2016

 --------------------------
 # td=(NStates=1) B3LYP/SVP
 --------------------------

 --
 TD
 --
 Symbolic Z-matrix:
 Charge =  0 Multiplicity = 1

                         Standard orientation:
 ---------------------------------------------------------------------
 Center     Atomic      Atomic             Coordinates (Angstroms)
 Number     Number       Type             X           Y           Z
 ---------------------------------------------------------------------
      1          8           0        5.303436   -0.142968   -3.267240
      2          8           0       -3.057048   -2.645855    3.383313
      3          8           0       -3.306094   -0.455913    2.999629
      4          8           0       -1.345929    7.107449    1.394352
      5          8           0       -1.311149    7.081913   -1.013284
      6          8           0       -1.593925   -4.052581    0.211653
      7          7           0        2.274053    1.103382    0.636381
      8          7           0        4.380797   -0.567847   -1.168661
      9          7           0       -1.814160    0.565685   -0.478005
     10          7           0       -2.512609   -2.028843   -0.458609
     11          6           0        4.708708   -1.051589    0.088383
     12          6           0        4.460041   -0.140372    1.290692
     13          6           0        2.921168    0.220007    1.439260
     14          6           0        1.933727   -0.458333    2.266704
     15          6           0        0.668280    0.127585    1.857860
     16          6           0        0.989638    1.095952    0.892113
     17          6           0        6.251768   -1.178003   -0.093807
     18          6           0       -0.586889   -0.001712    2.603086
     19          6           0        6.717244   -0.855416   -1.362427
     20          6           0        0.055865    2.075123    0.184239
     21          6           0       -1.170416    1.832232   -0.400706
     22          6           0        5.349896   -0.448468   -2.034571
     23          6           0       -2.027698    2.807056   -0.906272
     24          6           0        2.199884   -1.417255    3.310505
     25          6           0        7.199153   -1.755607    1.030432
     26          6           0       -3.192542    2.177111   -1.368424
     27          6           0       -1.144858   -1.447121    2.606088
     28          6           0       -3.033144    0.680178   -1.065961
     29          6           0       -1.727789    4.299574   -1.019963
     30          6           0        7.891318   -0.690342   -2.115362
     31          6           0       -1.949158    5.052274    0.283449
     32          6           0       -4.445126    2.648403   -2.085386
     33          6           0       -3.926306   -0.231922   -1.296995
     34          6           0       -2.644752   -1.395529    3.014851
     35          6           0       -3.658518   -1.626731   -1.120873
     36          6           0        9.192735   -1.021745   -1.731567
     37          6           0       -1.571005    6.495621    0.166989
     38          6           0       -4.413222   -2.896802   -1.397002
     39          6           0       -3.669779   -3.966878   -0.947001
     40          6           0       -2.436423   -3.434282   -0.362958
     41          6           0       -5.659724   -2.869945   -2.105303
     42          6           0       -3.871059   -5.419800   -1.100543
     43          6           0       -6.392916   -3.814276   -2.502423
     44          1           0        4.234793   -2.076805    0.330958
     45          1           0        4.989387    0.854079    0.939919
     46          1           0        4.584852   -0.487837    2.325399
     47          1           0        2.749804    1.523428   -0.089966
     48          1           0        3.433158   -0.767100   -1.494142
     49          1           0       -0.457427    0.317038    3.689793
     50          1           0       -1.395413    0.761748    2.027980
     51          1           0        0.298277    3.116769    0.073211
     52          1           0        3.172431   -1.936259    3.333333
     53          1           0        1.911181   -1.070352    4.373497
     54          1           0        1.464622   -2.323670    2.995891
     55          1           0        6.641381   -2.437584    1.710422
     56          1           0        7.502294   -0.924125    1.564624
     57          1           0        7.892668   -2.370107    0.465025
     58          1           0       -1.167137   -1.844337    1.509806
     59          1           0       -0.701258   -2.101497    3.395771
     60          1           0       -1.465564   -0.258412   -0.118852
     61          1           0       -2.346968    4.657700   -1.863248
     62          1           0       -0.564071    4.438088   -1.360693
     63          1           0        7.605100   -0.322991   -3.122978
     64          1           0       -1.432197    4.620984    1.004736
     65          1           0       -2.943964    5.284090    0.545122
     66          1           0       -4.277446    3.762038   -2.220600
     67          1           0       -5.366845    2.660262   -1.299521
     68          1           0       -4.792480    2.283511   -3.260483
     69          1           0       -4.744640   -0.043703   -2.052005
     70          1           0        9.612098   -1.186299   -0.437554
     71          1           0       10.078102   -0.839795   -2.397936
     72          1           0       -3.998387   -2.758426    3.770773
     73          1           0       -5.995911   -1.751888   -2.192736
     74          1           0       -4.709297   -5.824718   -0.626653
     75          1           0       -3.926161   -5.655801   -2.008904
     76          1           0       -3.159744   -5.918793   -0.680879
     77          1           0       -1.157409    8.131480    1.178234
     78          1           0       -7.279485   -3.630790   -3.145223
     79          1           0       -6.207846   -4.856857   -2.349887
 ---------------------------------------------------------------------

 SCF Done:  E(RB3LYP) =  -1947.78857673     A.U. after   17 cycles

 Excitation energies and oscillator strengths:

 Excited State   1:      Singlet-A      2.0232 eV  612.82 nm  f=0.2718  <S**2>=0.000
     154 ->156         0.11791
     155 ->156         0.68459
 This state for optimization and/or second-order correction.
 Total Energy, E(TD-HF/TD-DFT) =  -1947.71422675
 Copying the excited state density for this state as the 1-particle RhoCI density.

 The electronic state is 1-A.
 Alpha  occ. eigenvalues --  -19.20946 -19.15772 -19.13331 -19.11215 -19.11159
 Alpha  occ. eigenvalues --  -19.09644 -14.38385 -14.37194 -14.36247 -14.28417
 Alpha  occ. eigenvalues --  -10.34085 -10.29654 -10.28654 -10.26119 -10.25856
 Alpha  occ. eigenvalues --  -10.24349 -10.24219 -10.24042 -10.23307 -10.22993
 Alpha  occ. eigenvalues --  -10.22855 -10.22596 -10.22555 -10.22514 -10.22435
 Alpha  occ. eigenvalues --  -10.22218 -10.21953 -10.21605 -10.21283 -10.20765
 Alpha  occ. eigenvalues --  -10.20470 -10.20363 -10.20132 -10.19942 -10.19747
 Alpha  occ. eigenvalues --  -10.19601 -10.19204 -10.19005 -10.18988 -10.18723
 Alpha  occ. eigenvalues --  -10.18518 -10.18459 -10.15459  -1.08262  -1.07187
 Alpha  occ. eigenvalues --   -1.03178  -1.02208  -1.00455  -0.99634  -0.98030
 Alpha  occ. eigenvalues --   -0.96024  -0.95311  -0.90889  -0.83811  -0.81667
 Alpha  occ. eigenvalues --   -0.81604  -0.81191  -0.80705  -0.79586  -0.79393
 Alpha  occ. eigenvalues --   -0.77539  -0.76399  -0.75333  -0.74543  -0.72680
 Alpha  occ. eigenvalues --   -0.71011  -0.70718  -0.70553  -0.69193  -0.68715
 Alpha  occ. eigenvalues --   -0.66705  -0.66429  -0.64851  -0.62381  -0.60907
 Alpha  occ. eigenvalues --   -0.59777  -0.59153  -0.58214  -0.57548  -0.56932
 Alpha  occ. eigenvalues --   -0.56262  -0.55995  -0.54786  -0.54028  -0.53332
 Alpha  occ. eigenvalues --   -0.52659  -0.52336  -0.51545  -0.50698  -0.49755
 Alpha  occ. eigenvalues --   -0.49393  -0.48164  -0.47920  -0.47761  -0.47248
 Alpha  occ. eigenvalues --   -0.47049  -0.46913  -0.46150  -0.46097  -0.45826
 Alpha  occ. eigenvalues --   -0.45221  -0.45069  -0.44896  -0.44739  -0.43792
 Alpha  occ. eigenvalues --   -0.43410  -0.43043  -0.42652  -0.42389  -0.42106
 Alpha  occ. eigenvalues --   -0.41879  -0.41532  -0.41377  -0.41307  -0.40991
 Alpha  occ. eigenvalues --   -0.40949  -0.40802  -0.40718  -0.39961  -0.39784
 Alpha  occ. eigenvalues --   -0.39559  -0.39148  -0.38744  -0.38638  -0.38404
 Alpha  occ. eigenvalues --   -0.37755  -0.37320  -0.36994  -0.36438  -0.36306
 Alpha  occ. eigenvalues --   -0.35767  -0.35751  -0.35251  -0.34613  -0.34428
 Alpha  occ. eigenvalues --   -0.33822  -0.33459  -0.32292  -0.32145  -0.31324
 Alpha  occ. eigenvalues --   -0.31279  -0.30984  -0.28783  -0.27825  -0.27123
 Alpha  occ. eigenvalues --   -0.26898  -0.26479  -0.26079  -0.24652  -0.24180
 Alpha  occ. eigenvalues --   -0.23607  -0.23521  -0.23295  -0.22002  -0.19500
 Alpha virt. eigenvalues --   -0.11052  -0.06734  -0.06490  -0.03276  -0.00040
 Alpha virt. eigenvalues --    0.00599   0.01525   0.01812   0.02915   0.03036
 Alpha virt. eigenvalues --    0.03726   0.03837   0.04005   0.04483   0.04996

 Mulliken charges:
               1
     1  O   -0.289898
     2  O   -0.250277
     3  O   -0.155196
     4  O   -0.243349
     5  O   -0.333667
     6  O   -0.164785
     7  N    0.061243
     8  N   -0.063468
     9  N   -0.039359
    10  N   -0.345804
    11  C    0.063241
    12  C    0.172466
    13  C   -0.184178
    14  C   -0.105877
    15  C   -0.059813
    16  C    0.019112
    17  C   -0.256989
    18  C   -0.012522
    19  C   -0.006011
    20  C   -0.077766
    21  C    0.078784
    22  C    0.097391
    23  C   -0.054879
    24  C    0.011730
    25  C    0.120438
    26  C   -0.110238
    27  C   -0.067600
    28  C    0.166942
    29  C    0.022230
    30  C   -0.000026
    31  C    0.173221
    32  C   -0.019670
    33  C   -0.121715
    34  C    0.110925
    35  C    0.055340
    36  C   -0.110669
    37  C    0.161717
    38  C    0.057610
    39  C   -0.254043
    40  C    0.154064
    41  C   -0.010380
    42  C    0.336044
    43  C   -0.030276
    44  H    0.037541
    45  H    0.006244
    46  H    0.025194
    47  H    0.087518
    48  H    0.138782
    49  H    0.016667
    50  H    0.052746
    51  H   -0.030186
    52  H    0.005874
    53  H    0.040042
    54  H    0.054988
    55  H    0.006289
    56  H    0.023017
    57  H    0.046737
    58  H    0.105788
    59  H    0.035987
    60  H    0.099428
    61  H    0.028182
    62  H    0.053750
    63  H    0.034754
    64  H   -0.005523
    65  H    0.028631
    66  H    0.010286
    67  H    0.058853
    68  H    0.080250
    69  H    0.008818
    70  H    0.058029
    71  H    0.045266
    72  H    0.199943
    73  H    0.003311
    74  H   -0.009999
    75  H   -0.040872
    76  H   -0.059497
    77  H    0.236420
    78  H    0.022730
    79  H   -0.000035
 Sum of Mulliken charges =  -0.00000

 Dipole moment (field-independent basis, Debye):
    X=             -1.4182    Y=              1.5297    Z=              3.5489  Tot=              4.1165
 Quadrupole moment (field-independent basis, Debye-Ang):
   XX=           -227.4199   YY=           -242.3556   ZZ=           -261.5760
   XY=             -0.8033   XZ=             29.3283   YZ=              9.1702

 Normal termination of Gaussian 16 at Wed Sep 25 21:27:40 2019.
