 Gaussian 16, Revision A.03,
 Gaussian 16:  ES64L-G16RevA.03 25-Dec-2016

 --------------------------
 # td=(NStates=1) B3LYP/SVP
 --------------------------

 --
 TD
 --
 Symbolic Z-matrix:
 Charge =  0 Multiplicity = 1

                         Standard orientation:
 ---------------------------------------------------------------------
 Center     Atomic      Atomic             Coordinates (Angstroms)
 Number     Number       Type             X           Y           Z
 ---------------------------------------------------------------------
      1          8           0        5.325045   -0.151240   -3.289645
      2          8           0       -2.989719   -2.952953    3.385981
      3          8           0       -3.310190   -0.748427    3.250172
      4          8           0       -1.240572    7.081430    1.657247
      5          8           0       -0.438817    7.102674   -0.472999
      6          8           0       -1.879534   -3.994603    0.025800
      7          7           0        2.375844    0.862766    0.607716
      8          7           0        4.414769   -0.615728   -1.366133
      9          7           0       -1.920096    0.635189   -0.518703
     10          7           0       -2.685819   -1.762996   -0.522679
     11          6           0        4.852465   -1.193462   -0.002998
     12          6           0        4.411541   -0.315358    1.237780
     13          6           0        2.979157   -0.040937    1.370821
     14          6           0        1.997642   -0.669347    2.093147
     15          6           0        0.664360   -0.235553    1.647963
     16          6           0        0.968647    0.915674    0.717057
     17          6           0        6.296809   -1.405093   -0.196325
     18          6           0       -0.558082   -0.303194    2.473237
     19          6           0        6.621833   -1.024479   -1.476695
     20          6           0        0.233358    1.814016    0.037688
     21          6           0       -1.070130    1.772004   -0.345397
     22          6           0        5.412526   -0.498170   -2.154658
     23          6           0       -1.906500    2.858883   -0.939031
     24          6           0        2.138259   -1.749485    3.174477
     25          6           0        7.151109   -1.857366    0.968449
     26          6           0       -3.119829    2.374416   -1.289334
     27          6           0       -1.245602   -1.673623    2.617930
     28          6           0       -3.166741    0.988187   -0.969900
     29          6           0       -1.454795    4.398968   -0.935752
     30          6           0        7.922658   -0.985665   -2.030429
     31          6           0       -1.540469    5.042541    0.425982
     32          6           0       -4.268276    3.132650   -1.791844
     33          6           0       -4.029333    0.027584   -1.331287
     34          6           0       -2.631756   -1.674917    3.098379
     35          6           0       -3.842039   -1.337332   -1.117368
     36          6           0        9.141482   -1.024354   -1.374059
     37          6           0       -1.005807    6.515984    0.410379
     38          6           0       -4.761431   -2.437672   -1.495524
     39          6           0       -4.030022   -3.626862   -1.102849
     40          6           0       -2.743852   -3.242241   -0.447864
     41          6           0       -5.938974   -2.287436   -2.260762
     42          6           0       -4.378734   -5.052129   -1.206387
     43          6           0       -6.910123   -3.240731   -2.474277
     44          1           0        4.404735   -2.160898    0.047570
     45          1           0        4.777661    0.827491    0.844782
     46          1           0        5.047924   -0.684905    2.061393
     47          1           0        2.758871    1.297072   -0.316479
     48          1           0        3.201483   -0.308423   -1.717604
     49          1           0       -0.531551    0.330247    3.454729
     50          1           0       -1.299772    0.419307    1.990458
     51          1           0        0.658447    2.623309   -0.302836
     52          1           0        3.190118   -1.884830    3.493815
     53          1           0        1.749215   -1.164491    4.119479
     54          1           0        1.762880   -2.612908    2.814995
     55          1           0        6.857261   -2.850772    1.478005
     56          1           0        7.517587   -0.931273    1.597683
     57          1           0        8.054237   -2.451543    0.681396
     58          1           0       -1.208621   -2.014212    1.609463
     59          1           0       -0.835548   -2.334910    3.103566
     60          1           0       -1.871538   -0.426216   -0.137128
     61          1           0       -1.963248    4.753376   -1.772121
     62          1           0       -0.563768    4.426999   -1.358407
     63          1           0        7.914339   -0.932401   -3.193743
     64          1           0       -0.920677    4.504191    1.293135
     65          1           0       -2.617894    4.947502    0.732223
     66          1           0       -4.016208    4.236648   -2.444088
     67          1           0       -5.126094    3.436536   -0.994240
     68          1           0       -5.022206    2.496929   -2.607004
     69          1           0       -5.081249    0.149530   -1.571212
     70          1           0        9.434465   -1.158900   -0.464814
     71          1           0        9.842052   -0.939842   -1.879546
     72          1           0       -3.903037   -2.864656    3.674050
     73          1           0       -5.964885   -1.182327   -2.681065
     74          1           0       -5.239183   -5.532933   -0.769456
     75          1           0       -4.422810   -5.322746   -2.429284
     76          1           0       -3.551301   -5.650454   -0.610003
     77          1           0       -0.722309    7.943534    1.543474
     78          1           0       -7.719556   -2.997211   -3.060722
     79          1           0       -6.748500   -4.308481   -2.067612
 ---------------------------------------------------------------------

 SCF Done:  E(RB3LYP) =  -1947.68351302     A.U. after   19 cycles

 Excitation energies and oscillator strengths:

 Excited State   1:      Singlet-A      1.9024 eV  651.74 nm  f=0.3971  <S**2>=0.000
     154 ->156         0.27199
     155 ->156         0.65354
     155 <-156        -0.11854
 This state for optimization and/or second-order correction.
 Total Energy, E(TD-HF/TD-DFT) =  -1947.61360286
 Copying the excited state density for this state as the 1-particle RhoCI density.

 The electronic state is 1-A.
 Alpha  occ. eigenvalues --  -19.18798 -19.16483 -19.14679 -19.11685 -19.11340
 Alpha  occ. eigenvalues --  -19.08010 -14.39856 -14.36969 -14.34899 -14.29457
 Alpha  occ. eigenvalues --  -10.33402 -10.29871 -10.27342 -10.26843 -10.25566
 Alpha  occ. eigenvalues --  -10.24204 -10.24100 -10.24083 -10.24039 -10.23724
 Alpha  occ. eigenvalues --  -10.23523 -10.23137 -10.22952 -10.22784 -10.22412
 Alpha  occ. eigenvalues --  -10.21295 -10.21264 -10.20938 -10.20910 -10.20696
 Alpha  occ. eigenvalues --  -10.20691 -10.20655 -10.20348 -10.20141 -10.20136
 Alpha  occ. eigenvalues --  -10.20129 -10.19962 -10.19955 -10.19886 -10.19707
 Alpha  occ. eigenvalues --  -10.18339 -10.16879 -10.16275  -1.09867  -1.09746
 Alpha  occ. eigenvalues --   -1.03657  -1.01322  -1.01279  -1.00455  -0.99739
 Alpha  occ. eigenvalues --   -0.96565  -0.93776  -0.90300  -0.83644  -0.82440
 Alpha  occ. eigenvalues --   -0.81942  -0.81261  -0.80076  -0.79799  -0.78130
 Alpha  occ. eigenvalues --   -0.77742  -0.77470  -0.75998  -0.74504  -0.72666
 Alpha  occ. eigenvalues --   -0.71912  -0.71069  -0.69768  -0.69181  -0.67819
 Alpha  occ. eigenvalues --   -0.67214  -0.66506  -0.64527  -0.62565  -0.61127
 Alpha  occ. eigenvalues --   -0.59244  -0.58626  -0.58255  -0.57328  -0.57136
 Alpha  occ. eigenvalues --   -0.56264  -0.55971  -0.55454  -0.54067  -0.53618
 Alpha  occ. eigenvalues --   -0.51984  -0.51330  -0.50579  -0.50268  -0.49624
 Alpha  occ. eigenvalues --   -0.49314  -0.49266  -0.48587  -0.48549  -0.48310
 Alpha  occ. eigenvalues --   -0.47783  -0.47324  -0.47183  -0.46852  -0.46209
 Alpha  occ. eigenvalues --   -0.45651  -0.45333  -0.44953  -0.44700  -0.44223
 Alpha  occ. eigenvalues --   -0.44126  -0.43336  -0.43065  -0.42692  -0.42399
 Alpha  occ. eigenvalues --   -0.42264  -0.42165  -0.41796  -0.41698  -0.41431
 Alpha  occ. eigenvalues --   -0.41044  -0.40955  -0.40542  -0.40238  -0.39589
 Alpha  occ. eigenvalues --   -0.39287  -0.39109  -0.38524  -0.38369  -0.38273
 Alpha  occ. eigenvalues --   -0.38088  -0.37594  -0.37119  -0.36841  -0.36715
 Alpha  occ. eigenvalues --   -0.35941  -0.35456  -0.35261  -0.34653  -0.34473
 Alpha  occ. eigenvalues --   -0.33911  -0.33416  -0.33256  -0.32370  -0.31895
 Alpha  occ. eigenvalues --   -0.31789  -0.31584  -0.29751  -0.29298  -0.28086
 Alpha  occ. eigenvalues --   -0.27521  -0.26159  -0.25618  -0.24995  -0.24725
 Alpha  occ. eigenvalues --   -0.24604  -0.24031  -0.23726  -0.21495  -0.18991
 Alpha virt. eigenvalues --   -0.11573  -0.07582  -0.06504  -0.02671  -0.01506
 Alpha virt. eigenvalues --   -0.01092   0.00630   0.01697   0.02023   0.03026
 Alpha virt. eigenvalues --    0.03254   0.03613   0.03848   0.04267   0.04855

 Mulliken charges:
               1
     1  O   -0.209245
     2  O   -0.182701
     3  O   -0.171445
     4  O   -0.225916
     5  O   -0.207437
     6  O   -0.222109
     7  N   -0.101685
     8  N   -0.266894
     9  N   -0.188856
    10  N   -0.382224
    11  C    0.158957
    12  C    0.052733
    13  C    0.026639
    14  C   -0.216956
    15  C   -0.042372
    16  C    0.104559
    17  C   -0.163636
    18  C    0.002331
    19  C   -0.024728
    20  C   -0.053365
    21  C    0.120797
    22  C    0.102280
    23  C   -0.168528
    24  C    0.140692
    25  C    0.016182
    26  C   -0.012901
    27  C    0.174382
    28  C    0.167858
    29  C    0.258027
    30  C   -0.082444
    31  C   -0.033140
    32  C   -0.118860
    33  C   -0.096715
    34  C    0.074101
    35  C    0.041605
    36  C    0.182903
    37  C    0.162706
    38  C    0.078578
    39  C   -0.164274
    40  C    0.226780
    41  C   -0.086999
    42  C   -0.023260
    43  C    0.002818
    44  H    0.018347
    45  H    0.022511
    46  H    0.030232
    47  H    0.144645
    48  H    0.210251
    49  H    0.017450
    50  H    0.010481
    51  H   -0.093922
    52  H   -0.013117
    53  H    0.042856
    54  H    0.032891
    55  H    0.033687
    56  H    0.076274
    57  H    0.025467
    58  H    0.038210
    59  H   -0.077274
    60  H    0.211142
    61  H   -0.030703
    62  H   -0.052933
    63  H    0.035951
    64  H    0.071591
    65  H    0.056433
    66  H    0.054657
    67  H    0.058969
    68  H    0.043982
    69  H   -0.020564
    70  H   -0.059411
    71  H   -0.093207
    72  H    0.159889
    73  H    0.022784
    74  H    0.035294
    75  H    0.050765
    76  H    0.046005
    77  H    0.190216
    78  H    0.006297
    79  H    0.045619
 Sum of Mulliken charges =  -0.00000

 Dipole moment (field-independent basis, Debye):
    X=              1.3143    Y=              1.4005    Z=              3.9363  Tot=              4.3798
 Quadrupole moment (field-independent basis, Debye-Ang):
   XX=           -217.9633   YY=           -251.2064   ZZ=           -265.8812
   XY=             -7.4667   XZ=             35.6167   YZ=              1.4881

 Normal termination of Gaussian 16 at Sun Sep 15 23:35:20 2019.
