 Gaussian 16, Revision A.03,
 Gaussian 16:  ES64L-G16RevA.03 25-Dec-2016

 --------------------------
 # td=(NStates=1) B3LYP/SVP
 --------------------------

 --
 TD
 --
 Symbolic Z-matrix:
 Charge =  0 Multiplicity = 1

                         Standard orientation:
 ---------------------------------------------------------------------
 Center     Atomic      Atomic             Coordinates (Angstroms)
 Number     Number       Type             X           Y           Z
 ---------------------------------------------------------------------
      1          8           0       -3.274205   -1.053129   -2.991566
      2          8           0        3.343414    2.812563    3.329079
      3          8           0        3.775249    1.022477    4.579341
      4          8           0        7.769055   -1.569349   -0.844717
      5          8           0        6.642749   -2.811073   -2.436725
      6          8           0       -2.844655    1.553687    1.448981
      7          7           0       -0.378492   -2.363239    0.697649
      8          7           0       -2.685266   -1.063547   -0.772568
      9          7           0        1.098732    0.095995   -0.822032
     10          7           0       -0.997447    1.471687   -0.141461
     11          6           0       -3.379429   -1.335306    0.527892
     12          6           0       -2.760760   -2.302378    1.531371
     13          6           0       -1.247447   -2.022929    1.754968
     14          6           0       -0.566228   -1.379792    2.804688
     15          6           0        0.787370   -1.303541    2.349328
     16          6           0        0.904252   -1.948210    1.018486
     17          6           0       -4.751639   -1.907434    0.129967
     18          6           0        1.899888   -0.772209    3.210832
     19          6           0       -4.719051   -2.023917   -1.237510
     20          6           0        1.939269   -1.934836    0.073597
     21          6           0        2.084889   -0.827693   -0.739877
     22          6           0       -3.491354   -1.350012   -1.826446
     23          6           0        2.990949   -0.604521   -1.879354
     24          6           0       -1.231967   -0.837887    4.030967
     25          6           0       -5.764894   -2.413495    1.094189
     26          6           0        2.638386    0.649658   -2.406591
     27          6           0        2.079062    0.779016    2.904434
     28          6           0        1.306713    1.126649   -1.769478
     29          6           0        4.186514   -1.398850   -2.109020
     30          6           0       -5.860484   -2.341160   -2.103426
     31          6           0        5.395187   -1.048073   -1.289861
     32          6           0        3.246699    1.622088   -3.491719
     33          6           0        0.548888    2.192227   -1.858095
     34          6           0        3.125462    1.547270    3.668120
     35          6           0       -0.715589    2.376944   -1.093808
     36          6           0       -6.791427   -3.253009   -1.845533
     37          6           0        6.721487   -1.966537   -1.601956
     38          6           0       -1.466100    3.587543   -1.008223
     39          6           0       -2.366370    3.403698   -0.061347
     40          6           0       -2.185641    2.095803    0.570428
     41          6           0       -1.221097    4.778335   -1.735943
     42          6           0       -3.404682    4.256656    0.534940
     43          6           0       -2.077609    5.865086   -1.893757
     44          1           0       -3.476617   -0.148240    0.844685
     45          1           0       -2.591277   -3.349910    1.032001
     46          1           0       -3.522165   -2.292028    2.349219
     47          1           0       -0.758883   -2.684315   -0.243179
     48          1           0       -1.874571   -0.226839   -0.562752
     49          1           0        1.804537   -1.075027    4.197108
     50          1           0        3.007569   -1.183654    2.788609
     51          1           0        2.483519   -2.649009    0.192669
     52          1           0       -1.747072   -1.729237    4.518145
     53          1           0       -0.424265   -0.471049    4.825272
     54          1           0       -1.998377    0.011102    4.006038
     55          1           0       -5.873990   -1.627740    2.101903
     56          1           0       -5.685333   -3.518260    1.591653
     57          1           0       -6.822119   -2.418815    0.806650
     58          1           0        2.026773    0.994555    1.845681
     59          1           0        1.120350    1.299973    3.128343
     60          1           0        0.310180    0.209452   -0.113942
     61          1           0        4.348223   -1.359251   -3.158232
     62          1           0        3.975030   -2.548386   -2.154514
     63          1           0       -5.568335   -1.712066   -2.926729
     64          1           0        5.116959   -1.275488   -0.122631
     65          1           0        5.875106   -0.016406   -1.253956
     66          1           0        4.152732    1.175664   -3.915597
     67          1           0        3.590420    2.561275   -2.941458
     68          1           0        2.497421    2.114900   -4.329991
     69          1           0        0.503089    2.852279   -2.787051
     70          1           0       -6.985870   -3.799568   -1.000288
     71          1           0       -7.375491   -3.495798   -2.634217
     72          1           0        4.148744    3.041495    3.954471
     73          1           0       -0.181456    4.704595   -2.248246
     74          1           0       -4.399406    4.492792   -0.102438
     75          1           0       -4.027194    3.750437    1.356641
     76          1           0       -3.183709    5.140940    1.064491
     77          1           0        8.610165   -1.827355   -1.164814
     78          1           0       -1.795539    6.754332   -2.441235
     79          1           0       -2.954193    5.821881   -1.422126
 ---------------------------------------------------------------------

 SCF Done:  E(RB3LYP) =  -1947.78081507     A.U. after   19 cycles

 Excitation energies and oscillator strengths:

 Excited State   1:      Singlet-A      0.7576 eV 1636.63 nm  f=0.0001  <S**2>=0.000
     155 ->156         0.70349
 This state for optimization and/or second-order correction.
 Total Energy, E(TD-HF/TD-DFT) =  -1947.75297541
 Copying the excited state density for this state as the 1-particle RhoCI density.

 The electronic state is 1-A.
 Alpha  occ. eigenvalues --  -19.19819 -19.18670 -19.15290 -19.14351 -19.11139
 Alpha  occ. eigenvalues --  -19.07592 -14.37032 -14.36692 -14.33122 -14.32892
 Alpha  occ. eigenvalues --  -10.33783 -10.31226 -10.30315 -10.26296 -10.26284
 Alpha  occ. eigenvalues --  -10.26267 -10.24835 -10.23929 -10.23220 -10.23005
 Alpha  occ. eigenvalues --  -10.22895 -10.22659 -10.22148 -10.22109 -10.21736
 Alpha  occ. eigenvalues --  -10.21697 -10.21347 -10.21300 -10.21253 -10.20912
 Alpha  occ. eigenvalues --  -10.20689 -10.20463 -10.20355 -10.20096 -10.19906
 Alpha  occ. eigenvalues --  -10.19805 -10.19398 -10.19364 -10.17953 -10.17905
 Alpha  occ. eigenvalues --  -10.17796 -10.17197 -10.16476  -1.10991  -1.09265
 Alpha  occ. eigenvalues --   -1.05117  -1.03653  -0.99838  -0.98365  -0.98198
 Alpha  occ. eigenvalues --   -0.95009  -0.94699  -0.90334  -0.83975  -0.82754
 Alpha  occ. eigenvalues --   -0.82050  -0.79771  -0.79243  -0.78717  -0.77367
 Alpha  occ. eigenvalues --   -0.76455  -0.75952  -0.75282  -0.73338  -0.72761
 Alpha  occ. eigenvalues --   -0.71616  -0.69530  -0.68671  -0.68632  -0.67957
 Alpha  occ. eigenvalues --   -0.66016  -0.65566  -0.63603  -0.62588  -0.61583
 Alpha  occ. eigenvalues --   -0.60338  -0.59772  -0.58199  -0.57671  -0.57135
 Alpha  occ. eigenvalues --   -0.56279  -0.54432  -0.53988  -0.53751  -0.52865
 Alpha  occ. eigenvalues --   -0.52523  -0.51484  -0.50260  -0.49738  -0.49450
 Alpha  occ. eigenvalues --   -0.49218  -0.49049  -0.48310  -0.47765  -0.47647
 Alpha  occ. eigenvalues --   -0.47181  -0.46989  -0.46587  -0.46303  -0.46071
 Alpha  occ. eigenvalues --   -0.45678  -0.45186  -0.44815  -0.44282  -0.44053
 Alpha  occ. eigenvalues --   -0.43564  -0.42920  -0.42662  -0.42317  -0.41965
 Alpha  occ. eigenvalues --   -0.41748  -0.41616  -0.41167  -0.41053  -0.40900
 Alpha  occ. eigenvalues --   -0.40372  -0.40143  -0.39952  -0.39875  -0.39384
 Alpha  occ. eigenvalues --   -0.39039  -0.38751  -0.38576  -0.38149  -0.37976
 Alpha  occ. eigenvalues --   -0.37524  -0.37282  -0.36864  -0.36620  -0.36114
 Alpha  occ. eigenvalues --   -0.35922  -0.35738  -0.35091  -0.34647  -0.34486
 Alpha  occ. eigenvalues --   -0.33594  -0.33124  -0.32948  -0.31870  -0.31530
 Alpha  occ. eigenvalues --   -0.31010  -0.30253  -0.29622  -0.28900  -0.28645
 Alpha  occ. eigenvalues --   -0.27082  -0.26941  -0.26523  -0.25093  -0.23864
 Alpha  occ. eigenvalues --   -0.23504  -0.22724  -0.22211  -0.22031  -0.18605
 Alpha virt. eigenvalues --   -0.13463  -0.08113  -0.03719  -0.03418  -0.00332
 Alpha virt. eigenvalues --    0.00951   0.01830   0.02368   0.02739   0.02840
 Alpha virt. eigenvalues --    0.03611   0.03923   0.04511   0.04692   0.04976

 Mulliken charges:
               1
     1  O   -0.246468
     2  O   -0.195461
     3  O   -0.271458
     4  O   -0.169885
     5  O   -0.185292
     6  O   -0.181541
     7  N   -0.121677
     8  N   -0.302109
     9  N   -0.150348
    10  N   -0.393839
    11  C   -0.014739
    12  C    0.178722
    13  C   -0.079905
    14  C   -0.051388
    15  C   -0.153507
    16  C   -0.008767
    17  C   -0.083489
    18  C    0.103994
    19  C   -0.160291
    20  C    0.036712
    21  C    0.135376
    22  C    0.167647
    23  C   -0.087069
    24  C    0.012129
    25  C   -0.042332
    26  C   -0.101147
    27  C    0.002211
    28  C    0.189757
    29  C    0.136660
    30  C    0.033446
    31  C   -0.086931
    32  C    0.029497
    33  C   -0.137314
    34  C    0.143782
    35  C    0.085082
    36  C    0.046072
    37  C    0.146243
    38  C    0.092494
    39  C   -0.135840
    40  C    0.210287
    41  C   -0.089887
    42  C    0.017985
    43  C    0.077583
    44  H    0.094871
    45  H    0.003869
    46  H    0.014070
    47  H    0.147968
    48  H    0.214153
    49  H    0.004830
    50  H    0.012797
    51  H   -0.119197
    52  H    0.022830
    53  H    0.014481
    54  H    0.048678
    55  H    0.031659
    56  H    0.059980
    57  H    0.027967
    58  H    0.007666
    59  H    0.025869
    60  H    0.211223
    61  H   -0.006921
    62  H    0.033600
    63  H    0.000251
    64  H    0.059512
    65  H    0.046480
    66  H    0.025013
    67  H    0.037887
    68  H    0.063060
    69  H    0.027320
    70  H   -0.008103
    71  H   -0.009714
    72  H    0.209260
    73  H    0.015972
    74  H    0.047488
    75  H    0.023375
    76  H    0.026465
    77  H    0.172313
    78  H    0.037582
    79  H   -0.019553
 Sum of Mulliken charges =  -0.00000

 Dipole moment (field-independent basis, Debye):
    X=              3.2314    Y=              4.8920    Z=             -0.5816  Tot=              5.8917
 Quadrupole moment (field-independent basis, Debye-Ang):
   XX=           -223.1807   YY=           -230.1371   ZZ=           -275.9274
   XY=              2.5483   XZ=            -27.7224   YZ=            -12.8028

 Normal termination of Gaussian 16 at Sun Jul 28 05:32:23 2019.
