 Gaussian 16, Revision A.03,
 Gaussian 16:  ES64L-G16RevA.03 25-Dec-2016

 --------------------------
 # td=(NStates=1) B3LYP/SVP
 --------------------------

 --
 TD
 --
 Symbolic Z-matrix:
 Charge =  0 Multiplicity = 1

                         Standard orientation:
 ---------------------------------------------------------------------
 Center     Atomic      Atomic             Coordinates (Angstroms)
 Number     Number       Type             X           Y           Z
 ---------------------------------------------------------------------
      1          8           0        5.200473   -0.213495   -3.233952
      2          8           0       -3.123306   -2.947148    3.179113
      3          8           0       -3.488527   -0.807804    2.902597
      4          8           0       -1.125461    7.230324    1.432212
      5          8           0       -0.177259    6.980537   -0.550469
      6          8           0       -1.901465   -3.908900   -0.094495
      7          7           0        2.474249    0.865432    0.640083
      8          7           0        4.217937   -0.660590   -1.274488
      9          7           0       -1.820827    0.784224   -0.280979
     10          7           0       -2.721283   -1.790559   -0.506718
     11          6           0        4.717348   -1.381631   -0.006187
     12          6           0        4.406090   -0.528581    1.236232
     13          6           0        2.992841   -0.090464    1.375830
     14          6           0        2.005559   -0.698131    2.204670
     15          6           0        0.705280    0.017122    1.814472
     16          6           0        1.094087    0.976194    0.889503
     17          6           0        6.219722   -1.557479   -0.178083
     18          6           0       -0.559903   -0.246983    2.607073
     19          6           0        6.502317   -1.060334   -1.442465
     20          6           0        0.301946    2.018158    0.236765
     21          6           0       -1.014730    1.882170   -0.179852
     22          6           0        5.267512   -0.605300   -2.137244
     23          6           0       -1.792094    2.929023   -0.782898
     24          6           0        2.208270   -1.852662    3.217587
     25          6           0        7.168356   -2.233231    0.783495
     26          6           0       -2.991469    2.514714   -1.183425
     27          6           0       -1.213396   -1.673320    2.580124
     28          6           0       -2.997144    1.024927   -0.877166
     29          6           0       -1.234750    4.343397   -0.978343
     30          6           0        7.798218   -0.952360   -2.073220
     31          6           0       -1.411288    5.067444    0.407021
     32          6           0       -4.144408    3.049874   -1.832618
     33          6           0       -4.059927    0.066927   -1.149699
     34          6           0       -2.691877   -1.757445    2.917676
     35          6           0       -3.843502   -1.323248   -1.041600
     36          6           0        9.084566   -1.051761   -1.543369
     37          6           0       -0.811969    6.463290    0.391560
     38          6           0       -4.754957   -2.359165   -1.463474
     39          6           0       -4.099010   -3.614903   -1.177720
     40          6           0       -2.910886   -3.221824   -0.504390
     41          6           0       -6.064481   -2.075606   -2.084160
     42          6           0       -4.611375   -4.976443   -1.343001
     43          6           0       -6.966336   -3.099227   -2.447881
     44          1           0        4.400925   -2.405548    0.038219
     45          1           0        4.997206    0.401656    1.245405
     46          1           0        4.782393   -1.052534    2.034865
     47          1           0        2.953086    1.163715   -0.067839
     48          1           0        3.355454   -0.429803   -1.607586
     49          1           0       -0.438687    0.394542    3.789662
     50          1           0       -1.350872    0.530191    2.005136
     51          1           0        0.711396    2.804525   -0.154630
     52          1           0        3.302976   -2.237655    3.204371
     53          1           0        1.880667   -1.585873    4.214908
     54          1           0        1.597864   -2.913282    2.796993
     55          1           0        6.666160   -2.909349    1.454216
     56          1           0        7.659118   -1.390209    1.256015
     57          1           0        7.876287   -2.792794    0.210023
     58          1           0       -1.240102   -2.082869    1.519655
     59          1           0       -0.729872   -2.325147    3.427542
     60          1           0       -1.591759   -0.091556   -0.023374
     61          1           0       -1.617185    4.933414   -1.630761
     62          1           0       -0.213175    4.207067   -1.188450
     63          1           0        7.683899   -0.610817   -3.109043
     64          1           0       -0.970002    4.501368    1.095078
     65          1           0       -2.477698    5.127109    0.593755
     66          1           0       -3.881137    4.300013   -1.927500
     67          1           0       -5.016043    3.028285   -1.222385
     68          1           0       -4.493578    2.559232   -2.769863
     69          1           0       -5.005435    0.454749   -1.710056
     70          1           0        9.182017   -1.102926   -0.554769
     71          1           0        9.839755   -1.099139   -2.245903
     72          1           0       -3.987891   -2.605035    3.463162
     73          1           0       -6.146336   -1.013756   -2.558907
     74          1           0       -5.576542   -5.168924   -0.806879
     75          1           0       -4.964044   -5.320229   -2.474624
     76          1           0       -3.689628   -5.511463   -0.885471
     77          1           0       -0.671801    8.051280    1.392014
     78          1           0       -7.787874   -2.720721   -3.179746
     79          1           0       -6.957371   -4.104041   -2.159856
 ---------------------------------------------------------------------

 SCF Done:  E(RB3LYP) =  -1947.81044502     A.U. after   19 cycles

 Excitation energies and oscillator strengths:

 Excited State   1:      Singlet-A      1.8280 eV  678.25 nm  f=0.2864  <S**2>=0.000
     154 ->156         0.21622
     155 ->156         0.66671
     155 <-156        -0.10810
 This state for optimization and/or second-order correction.
 Total Energy, E(TD-HF/TD-DFT) =  -1947.74326751
 Copying the excited state density for this state as the 1-particle RhoCI density.

 The electronic state is 1-A.
 Alpha  occ. eigenvalues --  -19.18817 -19.17959 -19.12582 -19.10499 -19.10126
 Alpha  occ. eigenvalues --  -19.09621 -14.38069 -14.37288 -14.35116 -14.28339
 Alpha  occ. eigenvalues --  -10.32862 -10.30538 -10.27624 -10.26171 -10.25935
 Alpha  occ. eigenvalues --  -10.25453 -10.24600 -10.24039 -10.23084 -10.23036
 Alpha  occ. eigenvalues --  -10.22706 -10.22343 -10.22212 -10.21880 -10.21620
 Alpha  occ. eigenvalues --  -10.21478 -10.21387 -10.21375 -10.21360 -10.20941
 Alpha  occ. eigenvalues --  -10.20862 -10.20840 -10.20702 -10.20690 -10.20679
 Alpha  occ. eigenvalues --  -10.20611 -10.20383 -10.20234 -10.19991 -10.19804
 Alpha  occ. eigenvalues --  -10.19771 -10.19534 -10.18554  -1.11912  -1.10886
 Alpha  occ. eigenvalues --   -1.05204  -1.00755  -1.00389  -0.99287  -0.98178
 Alpha  occ. eigenvalues --   -0.97772  -0.93675  -0.91038  -0.84279  -0.83183
 Alpha  occ. eigenvalues --   -0.82529  -0.80342  -0.80242  -0.79771  -0.78847
 Alpha  occ. eigenvalues --   -0.76950  -0.76185  -0.75654  -0.74615  -0.73061
 Alpha  occ. eigenvalues --   -0.72798  -0.71390  -0.69946  -0.69512  -0.68846
 Alpha  occ. eigenvalues --   -0.67577  -0.66775  -0.64689  -0.62526  -0.61813
 Alpha  occ. eigenvalues --   -0.61428  -0.59548  -0.59159  -0.58794  -0.57866
 Alpha  occ. eigenvalues --   -0.57477  -0.56506  -0.54761  -0.54386  -0.53324
 Alpha  occ. eigenvalues --   -0.52685  -0.51910  -0.51264  -0.50782  -0.50606
 Alpha  occ. eigenvalues --   -0.49643  -0.49041  -0.48885  -0.48259  -0.47946
 Alpha  occ. eigenvalues --   -0.47692  -0.47479  -0.46815  -0.46682  -0.46055
 Alpha  occ. eigenvalues --   -0.45760  -0.45407  -0.45064  -0.44949  -0.44101
 Alpha  occ. eigenvalues --   -0.43808  -0.43417  -0.43109  -0.42748  -0.42473
 Alpha  occ. eigenvalues --   -0.42383  -0.42036  -0.41935  -0.41680  -0.41589
 Alpha  occ. eigenvalues --   -0.41416  -0.41278  -0.41082  -0.40797  -0.40609
 Alpha  occ. eigenvalues --   -0.40139  -0.39405  -0.39336  -0.38795  -0.38604
 Alpha  occ. eigenvalues --   -0.38164  -0.38003  -0.37651  -0.37482  -0.37182
 Alpha  occ. eigenvalues --   -0.37008  -0.36301  -0.34889  -0.34593  -0.34065
 Alpha  occ. eigenvalues --   -0.33712  -0.33225  -0.32213  -0.31447  -0.30919
 Alpha  occ. eigenvalues --   -0.30474  -0.30238  -0.28725  -0.28205  -0.27273
 Alpha  occ. eigenvalues --   -0.27005  -0.26750  -0.26235  -0.25914  -0.24694
 Alpha  occ. eigenvalues --   -0.23968  -0.23434  -0.23169  -0.21854  -0.19160
 Alpha virt. eigenvalues --   -0.11627  -0.07529  -0.06099  -0.01649  -0.00979
 Alpha virt. eigenvalues --    0.01308   0.01494   0.01559   0.02276   0.03037
 Alpha virt. eigenvalues --    0.03891   0.04175   0.04989   0.05187   0.05717

 Mulliken charges:
               1
     1  O   -0.167618
     2  O   -0.112939
     3  O   -0.289712
     4  O   -0.140564
     5  O   -0.269495
     6  O   -0.270513
     7  N    0.060151
     8  N   -0.194111
     9  N    0.047616
    10  N   -0.282584
    11  C    0.145063
    12  C    0.244257
    13  C   -0.134041
    14  C   -0.131238
    15  C   -0.071174
    16  C    0.063988
    17  C   -0.239727
    18  C   -0.089505
    19  C   -0.064202
    20  C    0.020075
    21  C    0.086228
    22  C    0.103637
    23  C   -0.154742
    24  C    0.006944
    25  C    0.146528
    26  C   -0.075918
    27  C    0.019819
    28  C    0.034659
    29  C    0.230095
    30  C   -0.061787
    31  C    0.060663
    32  C    0.061661
    33  C   -0.106090
    34  C    0.103556
    35  C    0.088483
    36  C    0.067084
    37  C    0.130040
    38  C    0.012133
    39  C   -0.120830
    40  C    0.165845
    41  C   -0.051402
    42  C   -0.020268
    43  C   -0.020066
    44  H    0.024472
    45  H   -0.010913
    46  H   -0.042598
    47  H    0.041819
    48  H    0.098616
    49  H    0.052363
    50  H    0.043159
    51  H   -0.100945
    52  H    0.014481
    53  H    0.037459
    54  H    0.062463
    55  H    0.016513
    56  H    0.047965
    57  H    0.035362
    58  H    0.103068
    59  H    0.047384
    60  H    0.084387
    61  H   -0.057004
    62  H   -0.006707
    63  H    0.007648
    64  H   -0.004116
    65  H    0.036267
    66  H    0.029456
    67  H    0.021833
    68  H    0.042786
    69  H   -0.001794
    70  H   -0.035466
    71  H    0.014534
    72  H    0.158222
    73  H    0.032711
    74  H    0.044085
    75  H    0.047128
    76  H    0.058480
    77  H    0.169520
    78  H    0.043573
    79  H    0.013796
 Sum of Mulliken charges =  -0.00000

 Dipole moment (field-independent basis, Debye):
    X=              0.4924    Y=              1.7673    Z=              3.2114  Tot=              3.6985
 Quadrupole moment (field-independent basis, Debye-Ang):
   XX=           -217.3206   YY=           -251.4441   ZZ=           -260.6591
   XY=            -10.6261   XZ=             36.3255   YZ=              4.7234

 Normal termination of Gaussian 16 at Sat Sep 14 06:16:30 2019.
