 Gaussian 16, Revision A.03,
 Gaussian 16:  ES64L-G16RevA.03 25-Dec-2016

 --------------------------
 # td=(NStates=1) B3LYP/SVP
 --------------------------

 --
 TD
 --
 Symbolic Z-matrix:
 Charge =  0 Multiplicity = 1

                         Standard orientation:
 ---------------------------------------------------------------------
 Center     Atomic      Atomic             Coordinates (Angstroms)
 Number     Number       Type             X           Y           Z
 ---------------------------------------------------------------------
      1          8           0        5.542186   -0.247228   -3.362071
      2          8           0       -2.968322   -2.846435    3.429169
      3          8           0       -3.241115   -0.727949    3.060205
      4          8           0       -1.539139    7.227850    1.475697
      5          8           0       -0.645898    7.012924   -0.479646
      6          8           0       -1.850426   -4.046752    0.171887
      7          7           0        2.268353    1.022067    0.555909
      8          7           0        4.441394   -0.509179   -1.266996
      9          7           0       -1.844031    0.671832   -0.546297
     10          7           0       -2.650737   -1.830926   -0.481627
     11          6           0        4.794229   -1.067826   -0.016428
     12          6           0        4.397606   -0.210735    1.212044
     13          6           0        2.898620    0.069653    1.286953
     14          6           0        1.962630   -0.656470    1.990320
     15          6           0        0.653343    0.029658    1.760544
     16          6           0        0.948455    1.097233    0.826570
     17          6           0        6.330082   -1.338323   -0.134668
     18          6           0       -0.648176   -0.182216    2.496550
     19          6           0        6.735543   -0.971797   -1.306675
     20          6           0        0.122581    2.089648    0.081432
     21          6           0       -1.232553    1.926940   -0.345511
     22          6           0        5.538406   -0.464457   -2.127897
     23          6           0       -2.037812    2.841663   -0.912491
     24          6           0        2.063356   -1.667089    3.036163
     25          6           0        7.125670   -1.861394    1.071736
     26          6           0       -3.265964    2.263979   -1.449257
     27          6           0       -1.165204   -1.638461    2.670323
     28          6           0       -3.072391    0.965731   -1.112107
     29          6           0       -1.609275    4.365370   -0.963122
     30          6           0        8.083408   -0.871845   -1.946041
     31          6           0       -1.745735    5.070763    0.408772
     32          6           0       -4.429145    2.999208   -1.911068
     33          6           0       -3.947073   -0.148431   -1.358765
     34          6           0       -2.613266   -1.616957    3.099316
     35          6           0       -3.698495   -1.488369   -1.191795
     36          6           0        9.343048   -0.972959   -1.417993
     37          6           0       -1.245099    6.474756    0.369571
     38          6           0       -4.593643   -2.775556   -1.493317
     39          6           0       -3.961772   -3.807357   -0.986894
     40          6           0       -2.637258   -3.320111   -0.401840
     41          6           0       -5.794058   -2.542978   -2.326672
     42          6           0       -4.170225   -5.253568   -1.020470
     43          6           0       -6.790879   -3.503605   -2.554364
     44          1           0        4.167964   -1.930250    0.196688
     45          1           0        5.028930    0.692831    1.100062
     46          1           0        4.523788   -0.566404    2.083100
     47          1           0        2.693068    1.614271   -0.264956
     48          1           0        3.588671   -0.593690   -1.855797
     49          1           0       -0.340759    0.333237    3.474353
     50          1           0       -1.344950    0.370012    1.949528
     51          1           0        0.323595    2.914997   -0.450958
     52          1           0        3.128711   -2.061684    3.218530
     53          1           0        1.562162   -1.329336    4.173553
     54          1           0        1.693060   -2.658798    2.768908
     55          1           0        6.695331   -2.815683    1.660586
     56          1           0        7.160690   -1.014325    2.046615
     57          1           0        8.331038   -2.178812    0.805842
     58          1           0       -0.878208   -2.354099    1.896375
     59          1           0       -0.919320   -2.056374    3.794056
     60          1           0       -1.671053   -0.231571   -0.111392
     61          1           0       -2.303971    4.856064   -1.708312
     62          1           0       -0.592697    4.576352   -1.437048
     63          1           0        8.147248   -0.672189   -3.094853
     64          1           0       -1.044011    4.693980    1.248812
     65          1           0       -2.810334    5.030052    0.807404
     66          1           0       -4.021610    3.947313   -2.136964
     67          1           0       -5.304892    3.093705   -1.294287
     68          1           0       -4.735460    2.532850   -2.862451
     69          1           0       -4.894720   -0.010498   -1.889715
     70          1           0        9.598751   -1.251137   -0.425519
     71          1           0       10.148659   -1.062258   -2.168190
     72          1           0       -3.896588   -2.680390    4.085125
     73          1           0       -6.214223   -1.511122   -2.527403
     74          1           0       -4.982947   -5.641793   -0.368502
     75          1           0       -4.535798   -5.587569   -2.044938
     76          1           0       -3.259012   -5.831971   -0.682166
     77          1           0       -0.700243    7.886627    1.460376
     78          1           0       -7.706040   -3.386216   -3.077040
     79          1           0       -6.551679   -4.576549   -2.555771
 ---------------------------------------------------------------------

 SCF Done:  E(RB3LYP) =  -1947.78299869     A.U. after   20 cycles

 Excitation energies and oscillator strengths:

 Excited State   1:      Singlet-A      1.8982 eV  653.16 nm  f=0.4690  <S**2>=0.000
     155 ->156         0.71237
     155 <-156        -0.16961
 This state for optimization and/or second-order correction.
 Total Energy, E(TD-HF/TD-DFT) =  -1947.71324035
 Copying the excited state density for this state as the 1-particle RhoCI density.

 The electronic state is 1-A.
 Alpha  occ. eigenvalues --  -19.17408 -19.16808 -19.13115 -19.11376 -19.11160
 Alpha  occ. eigenvalues --  -19.10980 -14.39200 -14.36802 -14.34874 -14.28591
 Alpha  occ. eigenvalues --  -10.31795 -10.29606 -10.28906 -10.26666 -10.25637
 Alpha  occ. eigenvalues --  -10.25300 -10.24237 -10.23693 -10.23454 -10.23120
 Alpha  occ. eigenvalues --  -10.22967 -10.22803 -10.22456 -10.22253 -10.21795
 Alpha  occ. eigenvalues --  -10.21420 -10.21320 -10.21264 -10.21111 -10.21020
 Alpha  occ. eigenvalues --  -10.20670 -10.20508 -10.20498 -10.20178 -10.19807
 Alpha  occ. eigenvalues --  -10.19676 -10.19621 -10.19546 -10.19509 -10.19166
 Alpha  occ. eigenvalues --  -10.18654 -10.18519 -10.18001  -1.12255  -1.10617
 Alpha  occ. eigenvalues --   -1.01858  -1.01505  -1.01387  -1.00013  -0.99425
 Alpha  occ. eigenvalues --   -0.97591  -0.95060  -0.90493  -0.82644  -0.82429
 Alpha  occ. eigenvalues --   -0.81930  -0.81085  -0.80216  -0.79670  -0.78071
 Alpha  occ. eigenvalues --   -0.76613  -0.75546  -0.75224  -0.74030  -0.72761
 Alpha  occ. eigenvalues --   -0.71369  -0.70333  -0.69470  -0.68457  -0.68271
 Alpha  occ. eigenvalues --   -0.66751  -0.66332  -0.64282  -0.60889  -0.60525
 Alpha  occ. eigenvalues --   -0.58506  -0.57630  -0.57341  -0.56793  -0.56408
 Alpha  occ. eigenvalues --   -0.55944  -0.55051  -0.54622  -0.53855  -0.53191
 Alpha  occ. eigenvalues --   -0.52210  -0.51956  -0.50993  -0.50652  -0.49701
 Alpha  occ. eigenvalues --   -0.49606  -0.49076  -0.48924  -0.48196  -0.47721
 Alpha  occ. eigenvalues --   -0.47330  -0.47269  -0.46917  -0.46532  -0.46157
 Alpha  occ. eigenvalues --   -0.45572  -0.45055  -0.44141  -0.43871  -0.43445
 Alpha  occ. eigenvalues --   -0.43291  -0.43006  -0.42705  -0.42327  -0.42291
 Alpha  occ. eigenvalues --   -0.41824  -0.41557  -0.41373  -0.41221  -0.41081
 Alpha  occ. eigenvalues --   -0.40534  -0.40227  -0.39776  -0.39723  -0.39527
 Alpha  occ. eigenvalues --   -0.39206  -0.38876  -0.38769  -0.38498  -0.38084
 Alpha  occ. eigenvalues --   -0.37815  -0.37583  -0.37258  -0.37122  -0.37002
 Alpha  occ. eigenvalues --   -0.36675  -0.35747  -0.35308  -0.34951  -0.34615
 Alpha  occ. eigenvalues --   -0.34290  -0.34072  -0.32685  -0.32413  -0.32133
 Alpha  occ. eigenvalues --   -0.31800  -0.30704  -0.28700  -0.28454  -0.27284
 Alpha  occ. eigenvalues --   -0.27140  -0.26608  -0.26262  -0.25269  -0.25226
 Alpha  occ. eigenvalues --   -0.24445  -0.23693  -0.23565  -0.22373  -0.18253
 Alpha virt. eigenvalues --   -0.11399  -0.06433  -0.06159  -0.00541  -0.00153
 Alpha virt. eigenvalues --    0.00034   0.00769   0.01666   0.01991   0.02464
 Alpha virt. eigenvalues --    0.02837   0.03521   0.03933   0.04687   0.05204

 Mulliken charges:
               1
     1  O   -0.252560
     2  O   -0.258421
     3  O   -0.092182
     4  O   -0.259418
     5  O   -0.188259
     6  O   -0.200080
     7  N   -0.065593
     8  N   -0.194639
     9  N   -0.088386
    10  N   -0.326557
    11  C    0.095364
    12  C    0.309082
    13  C   -0.137945
    14  C   -0.088613
    15  C   -0.165971
    16  C    0.087646
    17  C   -0.073414
    18  C    0.147404
    19  C   -0.011068
    20  C    0.013785
    21  C    0.023567
    22  C    0.146746
    23  C   -0.087812
    24  C    0.027226
    25  C   -0.100212
    26  C   -0.130393
    27  C   -0.081884
    28  C    0.118799
    29  C    0.028979
    30  C   -0.045203
    31  C   -0.001989
    32  C    0.173859
    33  C   -0.088880
    34  C    0.090215
    35  C    0.036340
    36  C   -0.029627
    37  C    0.099765
    38  C    0.103542
    39  C   -0.202798
    40  C    0.193603
    41  C   -0.047001
    42  C    0.058687
    43  C   -0.042793
    44  H    0.003733
    45  H   -0.016155
    46  H   -0.072517
    47  H    0.158100
    48  H    0.149842
    49  H    0.030798
    50  H   -0.005553
    51  H   -0.079380
    52  H   -0.006314
    53  H    0.050633
    54  H    0.029294
    55  H    0.056274
    56  H    0.063350
    57  H    0.069725
    58  H    0.076497
    59  H    0.028263
    60  H    0.138405
    61  H    0.017707
    62  H    0.048005
    63  H    0.046090
    64  H    0.060096
    65  H    0.059126
    66  H   -0.018114
    67  H    0.037288
    68  H    0.017536
    69  H   -0.052973
    70  H   -0.000038
    71  H    0.033162
    72  H    0.224299
    73  H    0.026015
    74  H    0.021345
    75  H    0.026510
    76  H    0.037790
    77  H    0.216696
    78  H    0.014605
    79  H    0.016951
 Sum of Mulliken charges =  -0.00000

 Dipole moment (field-independent basis, Debye):
    X=              0.9739    Y=              1.5788    Z=              3.9366  Tot=              4.3517
 Quadrupole moment (field-independent basis, Debye-Ang):
   XX=           -225.1317   YY=           -258.9611   ZZ=           -254.9132
   XY=             -4.5989   XZ=             28.4886   YZ=              0.5106

 Normal termination of Gaussian 16 at Wed Sep 18 14:10:42 2019.
