 Gaussian 16, Revision A.03,
 Gaussian 16:  ES64L-G16RevA.03 25-Dec-2016

 --------------------------
 # td=(NStates=1) B3LYP/SVP
 --------------------------

 --
 TD
 --
 Symbolic Z-matrix:
 Charge =  0 Multiplicity = 1

                         Standard orientation:
 ---------------------------------------------------------------------
 Center     Atomic      Atomic             Coordinates (Angstroms)
 Number     Number       Type             X           Y           Z
 ---------------------------------------------------------------------
      1          8           0        5.358716    0.005417   -3.298896
      2          8           0       -3.180299   -2.832141    3.105702
      3          8           0       -3.310653   -0.690000    3.003476
      4          8           0       -1.498137    7.152431    1.419485
      5          8           0       -0.559658    7.057393   -0.618279
      6          8           0       -1.621384   -3.988915   -0.075756
      7          7           0        2.310220    0.914758    0.553332
      8          7           0        4.322697   -0.582078   -1.343493
      9          7           0       -1.775494    0.618264   -0.276348
     10          7           0       -2.631555   -1.880649   -0.286256
     11          6           0        4.617821   -1.227992   -0.085304
     12          6           0        4.382784   -0.380663    1.254955
     13          6           0        2.977198   -0.062251    1.398218
     14          6           0        1.962150   -0.684674    2.210898
     15          6           0        0.688236   -0.004270    1.813269
     16          6           0        0.950139    0.990691    0.913071
     17          6           0        6.186275   -1.363633   -0.221499
     18          6           0       -0.656421   -0.205393    2.577401
     19          6           0        6.579788   -0.817505   -1.347065
     20          6           0        0.172918    2.010995    0.349707
     21          6           0       -1.085490    1.843895   -0.232836
     22          6           0        5.435213   -0.416736   -2.097956
     23          6           0       -1.899482    2.866231   -0.839779
     24          6           0        2.164346   -1.820561    3.179432
     25          6           0        7.038085   -2.101575    0.925612
     26          6           0       -3.102195    2.298956   -1.167312
     27          6           0       -1.235244   -1.652971    2.675060
     28          6           0       -3.041031    0.851441   -0.874935
     29          6           0       -1.589922    4.224418   -1.008610
     30          6           0        7.864839   -0.794009   -2.019553
     31          6           0       -1.684374    5.040092    0.333005
     32          6           0       -4.279862    2.966343   -1.845275
     33          6           0       -3.988605    0.017849   -1.267423
     34          6           0       -2.610998   -1.626132    2.924304
     35          6           0       -3.662290   -1.388537   -0.936876
     36          6           0        9.116375   -0.755053   -1.393665
     37          6           0       -1.144900    6.495836    0.286870
     38          6           0       -4.512845   -2.588077   -1.404040
     39          6           0       -3.934280   -3.740479   -1.104980
     40          6           0       -2.554937   -3.309452   -0.500452
     41          6           0       -5.704534   -2.395079   -2.203954
     42          6           0       -4.239702   -5.196288   -1.270001
     43          6           0       -6.553565   -3.347911   -2.764565
     44          1           0        4.203906   -2.125792   -0.059483
     45          1           0        4.915552    0.381699    1.216143
     46          1           0        4.900795   -0.876404    2.015642
     47          1           0        2.889070    1.278522   -0.253840
     48          1           0        3.391318   -0.340285   -1.774844
     49          1           0       -0.525544    0.322827    3.593850
     50          1           0       -1.321751    0.383357    2.203649
     51          1           0        0.697978    2.963474    0.057044
     52          1           0        3.356489   -1.710040    3.497902
     53          1           0        1.459215   -1.868646    4.070605
     54          1           0        2.011702   -2.803163    2.604059
     55          1           0        6.481971   -2.752449    1.318076
     56          1           0        7.340790   -1.364845    1.834694
     57          1           0        7.776775   -2.761527    0.451392
     58          1           0       -1.140423   -2.039796    1.730523
     59          1           0       -0.702118   -2.311118    3.246132
     60          1           0       -1.764483   -0.451438   -0.136830
     61          1           0       -2.104305    4.836992   -1.896549
     62          1           0       -0.472382    4.438031   -1.403967
     63          1           0        7.667336   -0.401413   -2.978431
     64          1           0       -1.156054    4.726827    1.249342
     65          1           0       -2.676547    5.230822    0.596645
     66          1           0       -4.372285    4.273382   -1.697873
     67          1           0       -5.188967    2.449793   -1.390909
     68          1           0       -4.523564    2.885964   -2.848625
     69          1           0       -4.880717    0.223907   -1.682105
     70          1           0        9.190318   -0.821529   -0.238281
     71          1           0        9.948883   -0.717617   -1.983672
     72          1           0       -4.149624   -2.779366    3.398667
     73          1           0       -5.967619   -1.450639   -2.337060
     74          1           0       -5.279531   -5.466975   -0.762025
     75          1           0       -4.508513   -5.335435   -2.446612
     76          1           0       -3.673857   -6.073848   -0.883035
     77          1           0       -1.127080    8.002697    1.275447
     78          1           0       -7.394497   -3.026860   -3.141902
     79          1           0       -6.324926   -4.409711   -2.794589
 ---------------------------------------------------------------------

 SCF Done:  E(RB3LYP) =  -1947.77673692     A.U. after   16 cycles

 Excitation energies and oscillator strengths:

 Excited State   1:      Singlet-A      2.0242 eV  612.50 nm  f=0.3783  <S**2>=0.000
     155 ->156         0.70392
 This state for optimization and/or second-order correction.
 Total Energy, E(TD-HF/TD-DFT) =  -1947.70234780
 Copying the excited state density for this state as the 1-particle RhoCI density.

 The electronic state is 1-A.
 Alpha  occ. eigenvalues --  -19.18675 -19.15199 -19.13401 -19.12355 -19.09860
 Alpha  occ. eigenvalues --  -19.09071 -14.37567 -14.36153 -14.35527 -14.31129
 Alpha  occ. eigenvalues --  -10.32609 -10.29047 -10.28747 -10.27840 -10.25101
 Alpha  occ. eigenvalues --  -10.24699 -10.24522 -10.24128 -10.22933 -10.22510
 Alpha  occ. eigenvalues --  -10.22359 -10.22301 -10.21914 -10.21758 -10.21536
 Alpha  occ. eigenvalues --  -10.21387 -10.21315 -10.21145 -10.21003 -10.20740
 Alpha  occ. eigenvalues --  -10.20485 -10.20481 -10.20284 -10.20045 -10.19923
 Alpha  occ. eigenvalues --  -10.19789 -10.19557 -10.19438 -10.19392 -10.19301
 Alpha  occ. eigenvalues --  -10.19119 -10.18005 -10.17035  -1.10905  -1.08518
 Alpha  occ. eigenvalues --   -1.02105  -1.01079  -1.00858  -0.98357  -0.96550
 Alpha  occ. eigenvalues --   -0.95213  -0.93237  -0.92832  -0.83334  -0.82582
 Alpha  occ. eigenvalues --   -0.82027  -0.81312  -0.80574  -0.80203  -0.77553
 Alpha  occ. eigenvalues --   -0.77116  -0.76936  -0.75614  -0.74944  -0.72701
 Alpha  occ. eigenvalues --   -0.72528  -0.71039  -0.70027  -0.68783  -0.68331
 Alpha  occ. eigenvalues --   -0.67024  -0.66461  -0.64621  -0.62319  -0.61303
 Alpha  occ. eigenvalues --   -0.60503  -0.59678  -0.59623  -0.58332  -0.57264
 Alpha  occ. eigenvalues --   -0.55828  -0.55265  -0.54701  -0.54050  -0.53053
 Alpha  occ. eigenvalues --   -0.52447  -0.52093  -0.51078  -0.50624  -0.49963
 Alpha  occ. eigenvalues --   -0.49619  -0.48995  -0.48680  -0.48521  -0.48361
 Alpha  occ. eigenvalues --   -0.47827  -0.47465  -0.46920  -0.45983  -0.45692
 Alpha  occ. eigenvalues --   -0.45272  -0.44876  -0.44747  -0.43912  -0.43782
 Alpha  occ. eigenvalues --   -0.43620  -0.43349  -0.43045  -0.42603  -0.42309
 Alpha  occ. eigenvalues --   -0.41966  -0.41672  -0.41517  -0.41112  -0.40965
 Alpha  occ. eigenvalues --   -0.40863  -0.40663  -0.40171  -0.40035  -0.39840
 Alpha  occ. eigenvalues --   -0.39717  -0.39509  -0.39118  -0.38725  -0.38565
 Alpha  occ. eigenvalues --   -0.38378  -0.38001  -0.37652  -0.37548  -0.36977
 Alpha  occ. eigenvalues --   -0.36757  -0.35943  -0.35338  -0.35141  -0.34822
 Alpha  occ. eigenvalues --   -0.33996  -0.33840  -0.33135  -0.33007  -0.31884
 Alpha  occ. eigenvalues --   -0.31468  -0.30273  -0.29256  -0.28619  -0.28008
 Alpha  occ. eigenvalues --   -0.26065  -0.26034  -0.25508  -0.25314  -0.25010
 Alpha  occ. eigenvalues --   -0.24483  -0.24039  -0.23325  -0.23046  -0.18976
 Alpha virt. eigenvalues --   -0.10875  -0.06771  -0.06074  -0.01639  -0.00124
 Alpha virt. eigenvalues --    0.00245   0.01270   0.02530   0.02694   0.03344
 Alpha virt. eigenvalues --    0.03949   0.04101   0.05080   0.05295   0.05552

 Mulliken charges:
               1
     1  O   -0.294255
     2  O   -0.228308
     3  O   -0.201167
     4  O   -0.163159
     5  O   -0.230663
     6  O   -0.192935
     7  N   -0.184186
     8  N   -0.191228
     9  N   -0.159526
    10  N   -0.318274
    11  C    0.138690
    12  C    0.377531
    13  C   -0.066329
    14  C   -0.122900
    15  C   -0.135793
    16  C    0.148901
    17  C   -0.259847
    18  C    0.179971
    19  C   -0.008057
    20  C   -0.130933
    21  C    0.132237
    22  C    0.127125
    23  C    0.036597
    24  C    0.011118
    25  C    0.161717
    26  C   -0.105074
    27  C    0.159663
    28  C    0.209687
    29  C   -0.047362
    30  C    0.005554
    31  C    0.039380
    32  C    0.023315
    33  C   -0.097793
    34  C    0.068774
    35  C    0.092268
    36  C   -0.012722
    37  C    0.099367
    38  C    0.051713
    39  C   -0.160162
    40  C    0.180448
    41  C   -0.004194
    42  C   -0.002557
    43  C    0.060634
    44  H   -0.022640
    45  H   -0.113787
    46  H   -0.041114
    47  H    0.133325
    48  H    0.147921
    49  H    0.012049
    50  H   -0.080398
    51  H    0.000687
    52  H    0.031600
    53  H    0.044524
    54  H    0.049769
    55  H   -0.058313
    56  H    0.063605
    57  H    0.035145
    58  H    0.008552
    59  H   -0.017440
    60  H    0.178749
    61  H    0.045259
    62  H    0.038661
    63  H    0.008254
    64  H    0.048858
    65  H    0.019793
    66  H    0.040646
    67  H    0.029244
    68  H    0.017738
    69  H   -0.067098
    70  H    0.046394
    71  H    0.011540
    72  H    0.197723
    73  H   -0.080461
    74  H    0.037920
    75  H    0.052977
    76  H    0.048684
    77  H    0.156748
    78  H   -0.021389
    79  H    0.009008
 Sum of Mulliken charges =  -0.00000

 Dipole moment (field-independent basis, Debye):
    X=             -1.1791    Y=             -0.0408    Z=              2.7658  Tot=              3.0069
 Quadrupole moment (field-independent basis, Debye-Ang):
   XX=           -218.9618   YY=           -244.0244   ZZ=           -264.7156
   XY=             -5.9223   XZ=             37.6694   YZ=              3.5469

 Normal termination of Gaussian 16 at Sun Sep 22 17:35:23 2019.
