 Gaussian 16, Revision A.03,
 Gaussian 16:  ES64L-G16RevA.03 25-Dec-2016

 --------------------------
 # td=(NStates=1) B3LYP/SVP
 --------------------------

 --
 TD
 --
 Symbolic Z-matrix:
 Charge =  0 Multiplicity = 1

                         Standard orientation:
 ---------------------------------------------------------------------
 Center     Atomic      Atomic             Coordinates (Angstroms)
 Number     Number       Type             X           Y           Z
 ---------------------------------------------------------------------
      1          8           0        5.459660   -0.070419   -3.243460
      2          8           0       -3.014810   -2.720189    3.459012
      3          8           0       -3.361596   -0.491103    3.007437
      4          8           0       -1.980650    7.207558    1.373839
      5          8           0       -0.575490    6.953385   -0.375360
      6          8           0       -1.773161   -4.092518    0.163347
      7          7           0        2.237698    0.982662    0.605776
      8          7           0        4.382327   -0.509920   -1.165467
      9          7           0       -1.789411    0.578077   -0.487302
     10          7           0       -2.444271   -1.969933   -0.593422
     11          6           0        4.817736   -1.070900    0.075970
     12          6           0        4.383079   -0.194803    1.290847
     13          6           0        2.902937   -0.034858    1.314543
     14          6           0        1.926839   -0.636892    2.128505
     15          6           0        0.643437    0.031199    1.871528
     16          6           0        0.985149    1.132266    0.983277
     17          6           0        6.314433   -1.236809   -0.142455
     18          6           0       -0.651390   -0.150540    2.586073
     19          6           0        6.693803   -0.708932   -1.319203
     20          6           0        0.147487    1.977225    0.163987
     21          6           0       -1.070082    1.843452   -0.265017
     22          6           0        5.404328   -0.368727   -2.076482
     23          6           0       -1.946604    2.897958   -0.938087
     24          6           0        2.256704   -1.727344    3.047692
     25          6           0        7.177476   -1.915429    1.017478
     26          6           0       -3.014975    2.237277   -1.477492
     27          6           0       -1.226007   -1.596546    2.650817
     28          6           0       -2.869630    0.829640   -1.259683
     29          6           0       -1.707023    4.378895   -1.043125
     30          6           0        7.906506   -0.628723   -1.974459
     31          6           0       -2.036793    5.092925    0.280252
     32          6           0       -4.321780    2.790381   -2.047483
     33          6           0       -3.745262   -0.163152   -1.538497
     34          6           0       -2.644422   -1.499987    3.074333
     35          6           0       -3.591378   -1.617231   -1.183953
     36          6           0        9.228935   -0.955017   -1.563079
     37          6           0       -1.465560    6.479874    0.375678
     38          6           0       -4.477082   -2.761635   -1.489987
     39          6           0       -3.745582   -3.872353   -1.112837
     40          6           0       -2.599528   -3.389993   -0.507225
     41          6           0       -5.768789   -2.598684   -2.114888
     42          6           0       -4.211282   -5.320240   -0.961877
     43          6           0       -6.653633   -3.565618   -2.517519
     44          1           0        4.374900   -2.117368   -0.020626
     45          1           0        4.831336    0.800002    1.090384
     46          1           0        4.584152   -0.665018    2.161091
     47          1           0        2.773334    1.436007   -0.125029
     48          1           0        3.164626   -0.918532   -1.398114
     49          1           0       -0.294720    0.288840    3.611228
     50          1           0       -1.395815    0.448124    2.024478
     51          1           0        0.644367    3.002347   -0.093703
     52          1           0        3.262969   -1.932080    3.285297
     53          1           0        1.953980   -1.579130    4.006442
     54          1           0        1.867974   -2.817997    2.770105
     55          1           0        6.424587   -2.574211    1.538396
     56          1           0        7.702520   -0.951838    1.592750
     57          1           0        8.292368   -2.417145    0.464025
     58          1           0       -1.220598   -2.110129    1.614524
     59          1           0       -0.639431   -2.177918    3.427706
     60          1           0       -1.498752   -0.473364   -0.187827
     61          1           0       -2.296755    4.732489   -1.912865
     62          1           0       -0.724201    4.706207   -1.235592
     63          1           0        7.825990    0.012773   -2.966436
     64          1           0       -1.520801    4.576649    1.079543
     65          1           0       -2.927107    4.835399    0.580243
     66          1           0       -4.264202    4.079611   -1.905377
     67          1           0       -5.327111    2.373396   -1.643206
     68          1           0       -4.076758    2.707667   -3.179008
     69          1           0       -4.674408    0.101481   -2.001675
     70          1           0        9.414281   -1.533954   -0.484803
     71          1           0       10.053224   -0.825063   -2.237567
     72          1           0       -4.103261   -2.420289    3.609651
     73          1           0       -6.318884   -1.525703   -2.430771
     74          1           0       -5.188612   -5.340188   -0.358222
     75          1           0       -4.439354   -5.830785   -2.072456
     76          1           0       -3.734927   -5.896617   -0.297226
     77          1           0       -1.434800    8.003884    1.470636
     78          1           0       -7.692898   -3.316068   -2.915481
     79          1           0       -6.385524   -4.601456   -2.421942
 ---------------------------------------------------------------------

 SCF Done:  E(RB3LYP) =  -1947.76072471     A.U. after   18 cycles

 Excitation energies and oscillator strengths:

 Excited State   1:      Singlet-A      1.8238 eV  679.81 nm  f=0.2889  <S**2>=0.000
     155 ->156         0.70110
 This state for optimization and/or second-order correction.
 Total Energy, E(TD-HF/TD-DFT) =  -1947.69370135
 Copying the excited state density for this state as the 1-particle RhoCI density.

 The electronic state is 1-A.
 Alpha  occ. eigenvalues --  -19.19587 -19.18900 -19.13193 -19.11962 -19.10477
 Alpha  occ. eigenvalues --  -19.10346 -14.37782 -14.37188 -14.35990 -14.30141
 Alpha  occ. eigenvalues --  -10.33552 -10.30785 -10.28738 -10.26359 -10.24817
 Alpha  occ. eigenvalues --  -10.24524 -10.24253 -10.24132 -10.23765 -10.23348
 Alpha  occ. eigenvalues --  -10.22544 -10.22475 -10.22113 -10.22087 -10.21947
 Alpha  occ. eigenvalues --  -10.21851 -10.21428 -10.21290 -10.21212 -10.21065
 Alpha  occ. eigenvalues --  -10.20977 -10.20697 -10.20570 -10.20564 -10.20505
 Alpha  occ. eigenvalues --  -10.20317 -10.19353 -10.19306 -10.19237 -10.19220
 Alpha  occ. eigenvalues --  -10.19042 -10.18855 -10.18645  -1.10535  -1.08158
 Alpha  occ. eigenvalues --   -1.02952  -0.99605  -0.99520  -0.98660  -0.98546
 Alpha  occ. eigenvalues --   -0.96215  -0.94713  -0.92231  -0.83235  -0.81964
 Alpha  occ. eigenvalues --   -0.81116  -0.81051  -0.80773  -0.79497  -0.78651
 Alpha  occ. eigenvalues --   -0.76672  -0.76309  -0.75039  -0.73854  -0.71961
 Alpha  occ. eigenvalues --   -0.71146  -0.70276  -0.69736  -0.68501  -0.67895
 Alpha  occ. eigenvalues --   -0.66662  -0.66180  -0.65060  -0.62179  -0.61205
 Alpha  occ. eigenvalues --   -0.60495  -0.57983  -0.56916  -0.56739  -0.56225
 Alpha  occ. eigenvalues --   -0.55637  -0.54870  -0.54178  -0.53580  -0.53121
 Alpha  occ. eigenvalues --   -0.52212  -0.51511  -0.51222  -0.50454  -0.49401
 Alpha  occ. eigenvalues --   -0.48728  -0.48464  -0.48298  -0.48095  -0.47305
 Alpha  occ. eigenvalues --   -0.47070  -0.46809  -0.46448  -0.46009  -0.45768
 Alpha  occ. eigenvalues --   -0.44888  -0.44517  -0.43860  -0.43740  -0.43465
 Alpha  occ. eigenvalues --   -0.43377  -0.43120  -0.42853  -0.42393  -0.42245
 Alpha  occ. eigenvalues --   -0.42040  -0.41267  -0.41134  -0.40942  -0.40773
 Alpha  occ. eigenvalues --   -0.40652  -0.40315  -0.39757  -0.39723  -0.39358
 Alpha  occ. eigenvalues --   -0.39250  -0.39020  -0.38560  -0.38198  -0.38151
 Alpha  occ. eigenvalues --   -0.37778  -0.37592  -0.37342  -0.36785  -0.36560
 Alpha  occ. eigenvalues --   -0.36127  -0.36038  -0.35128  -0.34794  -0.34124
 Alpha  occ. eigenvalues --   -0.33755  -0.33250  -0.32524  -0.32476  -0.31446
 Alpha  occ. eigenvalues --   -0.31289  -0.31235  -0.28988  -0.28918  -0.28718
 Alpha  occ. eigenvalues --   -0.27474  -0.26917  -0.25825  -0.25505  -0.24565
 Alpha  occ. eigenvalues --   -0.24016  -0.23513  -0.23125  -0.22285  -0.19025
 Alpha virt. eigenvalues --   -0.11570  -0.06792  -0.06037  -0.02556  -0.01345
 Alpha virt. eigenvalues --   -0.01090   0.00754   0.01020   0.01230   0.01746
 Alpha virt. eigenvalues --    0.02494   0.02834   0.03027   0.04176   0.04815

 Mulliken charges:
               1
     1  O   -0.201753
     2  O   -0.221203
     3  O   -0.271623
     4  O   -0.161738
     5  O   -0.274084
     6  O   -0.252783
     7  N   -0.040478
     8  N   -0.304706
     9  N   -0.186891
    10  N   -0.294246
    11  C    0.018710
    12  C    0.379053
    13  C   -0.177962
    14  C   -0.082055
    15  C   -0.152370
    16  C    0.047128
    17  C   -0.170897
    18  C    0.054638
    19  C   -0.022796
    20  C   -0.109564
    21  C    0.145598
    22  C    0.172333
    23  C   -0.103110
    24  C    0.105662
    25  C   -0.048956
    26  C   -0.110012
    27  C   -0.041082
    28  C    0.162041
    29  C    0.133667
    30  C   -0.071610
    31  C    0.087493
    32  C   -0.009229
    33  C   -0.108595
    34  C    0.159304
    35  C    0.056339
    36  C   -0.066070
    37  C    0.161538
    38  C    0.117414
    39  C   -0.135129
    40  C    0.154435
    41  C   -0.107137
    42  C    0.079457
    43  C   -0.043733
    44  H    0.027315
    45  H   -0.000884
    46  H   -0.050634
    47  H    0.113828
    48  H    0.210705
    49  H    0.038247
    50  H    0.025648
    51  H    0.014574
    52  H   -0.033983
    53  H   -0.021877
    54  H    0.043715
    55  H    0.056112
    56  H    0.075253
    57  H    0.072099
    58  H    0.105410
    59  H    0.036379
    60  H    0.212863
    61  H    0.017357
    62  H   -0.000137
    63  H    0.044254
    64  H    0.029050
    65  H   -0.038227
    66  H    0.037855
    67  H    0.080789
    68  H    0.052854
    69  H   -0.055260
    70  H    0.034427
    71  H    0.032189
    72  H    0.221287
    73  H    0.043716
    74  H    0.024841
    75  H    0.058604
    76  H   -0.012691
    77  H    0.185724
    78  H    0.045464
    79  H    0.008137
 Sum of Mulliken charges =  -0.00000

 Dipole moment (field-independent basis, Debye):
    X=             -2.0176    Y=              1.3727    Z=              3.0709  Tot=              3.9225
 Quadrupole moment (field-independent basis, Debye-Ang):
   XX=           -223.6314   YY=           -249.3067   ZZ=           -261.0355
   XY=             -3.8670   XZ=             33.1490   YZ=              6.4400

 Normal termination of Gaussian 16 at Tue Oct  1 10:22:00 2019.
