 Gaussian 16, Revision A.03,
 Gaussian 16:  ES64L-G16RevA.03 25-Dec-2016

 --------------------------
 # td=(NStates=1) B3LYP/SVP
 --------------------------

 --
 TD
 --
 Symbolic Z-matrix:
 Charge =  0 Multiplicity = 1

                         Standard orientation:
 ---------------------------------------------------------------------
 Center     Atomic      Atomic             Coordinates (Angstroms)
 Number     Number       Type             X           Y           Z
 ---------------------------------------------------------------------
      1          8           0       -3.194599   -1.544968   -2.722721
      2          8           0        2.614234    3.634356    2.939600
      3          8           0        3.471406    2.156744    4.362220
      4          8           0        7.829242   -1.788021   -0.565605
      5          8           0        6.696316   -3.261532   -1.938948
      6          8           0       -2.717190    1.680048    1.114352
      7          7           0       -0.364618   -2.288870    1.233754
      8          7           0       -2.684815   -1.232140   -0.571964
      9          7           0        1.235644   -0.081931   -0.618864
     10          7           0       -1.050929    1.424204   -0.401155
     11          6           0       -3.332042   -1.345849    0.683650
     12          6           0       -2.673356   -2.219581    1.831675
     13          6           0       -1.244780   -1.799079    1.983374
     14          6           0       -0.665964   -0.883703    2.948118
     15          6           0        0.675928   -0.856544    2.584498
     16          6           0        0.911192   -1.702764    1.520787
     17          6           0       -4.684237   -1.930006    0.388391
     18          6           0        1.715396    0.017678    3.191738
     19          6           0       -4.687728   -2.194825   -0.964669
     20          6           0        2.163806   -1.750835    0.688354
     21          6           0        2.193799   -0.919346   -0.451637
     22          6           0       -3.382810   -1.589292   -1.570630
     23          6           0        2.956650   -0.850760   -1.631575
     24          6           0       -1.291605   -0.039857    4.004095
     25          6           0       -5.715326   -2.159425    1.472751
     26          6           0        2.626123    0.230364   -2.457840
     27          6           0        1.698655    1.465559    2.847402
     28          6           0        1.443970    0.675495   -1.804648
     29          6           0        4.364497   -1.669382   -1.691641
     30          6           0       -5.798262   -2.712119   -1.842895
     31          6           0        5.535941   -1.230678   -0.872438
     32          6           0        3.190775    0.793989   -3.702015
     33          6           0        0.649252    1.748877   -2.203538
     34          6           0        2.733355    2.413066    3.417437
     35          6           0       -0.463013    2.130486   -1.434551
     36          6           0       -6.789518   -3.493553   -1.451291
     37          6           0        6.736125   -2.165710   -1.176374
     38          6           0       -1.400535    3.283266   -1.744225
     39          6           0       -2.307176    3.286406   -0.695686
     40          6           0       -2.028711    2.017113    0.144006
     41          6           0       -1.177127    4.294443   -2.774063
     42          6           0       -3.378043    4.247064   -0.259445
     43          6           0       -1.886078    5.364396   -3.020816
     44          1           0       -3.438023   -0.418234    1.265635
     45          1           0       -2.655434   -3.255567    1.547545
     46          1           0       -3.214163   -2.205089    2.701146
     47          1           0       -0.570752   -2.878851    0.351332
     48          1           0       -1.927778   -0.619493   -0.655631
     49          1           0        1.438903   -0.118338    4.262719
     50          1           0        2.701103   -0.330336    2.753011
     51          1           0        2.847483   -2.531108    0.827653
     52          1           0       -2.260623   -0.643998    4.388992
     53          1           0       -0.629360    0.298659    4.564184
     54          1           0       -1.830549    0.788623    3.541131
     55          1           0       -5.501538   -1.331473    2.129607
     56          1           0       -5.739089   -3.202529    1.927726
     57          1           0       -6.626816   -1.811344    0.915791
     58          1           0        1.575061    1.577239    1.759894
     59          1           0        0.878924    2.041454    3.130476
     60          1           0        0.355963    0.156632   -0.078081
     61          1           0        4.710976   -1.768898   -2.859728
     62          1           0        3.934402   -2.767943   -1.568207
     63          1           0       -5.435774   -2.529039   -2.935029
     64          1           0        5.348487   -1.151173    0.064954
     65          1           0        5.861765   -0.230171   -1.249886
     66          1           0        4.329971    0.202104   -3.787792
     67          1           0        3.339878    2.024318   -3.634568
     68          1           0        2.628255    0.468752   -4.663996
     69          1           0        0.984561    2.409103   -2.956688
     70          1           0       -7.056035   -3.607091   -0.572070
     71          1           0       -7.534535   -3.706108   -2.215980
     72          1           0        3.385853    3.985033    3.342071
     73          1           0       -0.153934    4.239170   -3.330534
     74          1           0       -4.258175    4.308808   -1.088238
     75          1           0       -3.719969    3.998239    0.850384
     76          1           0       -3.093518    5.375159   -0.299359
     77          1           0        8.403629   -2.512059   -0.903820
     78          1           0       -1.848218    5.865676   -3.907782
     79          1           0       -2.908075    5.388665   -2.358245
 ---------------------------------------------------------------------

 SCF Done:  E(RB3LYP) =  -1947.75892445     A.U. after   19 cycles

 Excitation energies and oscillator strengths:

 Excited State   1:      Singlet-A      0.6087 eV 2037.03 nm  f=0.0004  <S**2>=0.000
     155 ->156         0.70463
 This state for optimization and/or second-order correction.
 Total Energy, E(TD-HF/TD-DFT) =  -1947.73655686
 Copying the excited state density for this state as the 1-particle RhoCI density.

 The electronic state is 1-A.
 Alpha  occ. eigenvalues --  -19.22426 -19.18877 -19.14136 -19.12151 -19.11154
 Alpha  occ. eigenvalues --  -19.07654 -14.38226 -14.38107 -14.33632 -14.30676
 Alpha  occ. eigenvalues --  -10.35114 -10.31866 -10.27281 -10.27171 -10.26595
 Alpha  occ. eigenvalues --  -10.25743 -10.25690 -10.25667 -10.24126 -10.23797
 Alpha  occ. eigenvalues --  -10.23742 -10.23481 -10.22835 -10.21835 -10.21756
 Alpha  occ. eigenvalues --  -10.21678 -10.21249 -10.21174 -10.21137 -10.20572
 Alpha  occ. eigenvalues --  -10.20542 -10.19803 -10.19496 -10.19406 -10.19342
 Alpha  occ. eigenvalues --  -10.19339 -10.18947 -10.18567 -10.17220 -10.17049
 Alpha  occ. eigenvalues --  -10.16932 -10.16267 -10.15751  -1.13579  -1.12342
 Alpha  occ. eigenvalues --   -1.03688  -1.02586  -1.02176  -1.00114  -0.99114
 Alpha  occ. eigenvalues --   -0.97311  -0.95240  -0.94300  -0.84863  -0.83196
 Alpha  occ. eigenvalues --   -0.82079  -0.81372  -0.80575  -0.80413  -0.78551
 Alpha  occ. eigenvalues --   -0.77328  -0.76853  -0.75508  -0.74799  -0.73593
 Alpha  occ. eigenvalues --   -0.71612  -0.70518  -0.69979  -0.69024  -0.68176
 Alpha  occ. eigenvalues --   -0.67876  -0.66414  -0.64286  -0.62373  -0.61911
 Alpha  occ. eigenvalues --   -0.60749  -0.60280  -0.59646  -0.58251  -0.57201
 Alpha  occ. eigenvalues --   -0.56328  -0.55892  -0.55302  -0.53829  -0.53152
 Alpha  occ. eigenvalues --   -0.52950  -0.52167  -0.51822  -0.51445  -0.50583
 Alpha  occ. eigenvalues --   -0.50363  -0.49819  -0.49570  -0.49053  -0.48864
 Alpha  occ. eigenvalues --   -0.48506  -0.47812  -0.47288  -0.46975  -0.46021
 Alpha  occ. eigenvalues --   -0.45776  -0.45702  -0.45354  -0.44787  -0.44627
 Alpha  occ. eigenvalues --   -0.44307  -0.43727  -0.43521  -0.43400  -0.43180
 Alpha  occ. eigenvalues --   -0.42659  -0.42514  -0.42097  -0.41927  -0.41852
 Alpha  occ. eigenvalues --   -0.41408  -0.41318  -0.41168  -0.40396  -0.39986
 Alpha  occ. eigenvalues --   -0.39782  -0.39504  -0.38960  -0.38519  -0.38080
 Alpha  occ. eigenvalues --   -0.37895  -0.37510  -0.37161  -0.36617  -0.36419
 Alpha  occ. eigenvalues --   -0.36168  -0.35831  -0.35315  -0.34663  -0.34271
 Alpha  occ. eigenvalues --   -0.34067  -0.33088  -0.32327  -0.32296  -0.32129
 Alpha  occ. eigenvalues --   -0.30966  -0.29841  -0.29648  -0.29255  -0.28241
 Alpha  occ. eigenvalues --   -0.27840  -0.27729  -0.25704  -0.25306  -0.24117
 Alpha  occ. eigenvalues --   -0.23477  -0.23394  -0.23072  -0.21944  -0.18863
 Alpha virt. eigenvalues --   -0.13958  -0.07999  -0.03717  -0.02867  -0.02290
 Alpha virt. eigenvalues --    0.00624   0.00837   0.02578   0.02992   0.03577
 Alpha virt. eigenvalues --    0.03921   0.04264   0.04525   0.04723   0.05138

 Mulliken charges:
               1
     1  O   -0.190505
     2  O   -0.118193
     3  O   -0.251232
     4  O   -0.113754
     5  O   -0.338928
     6  O   -0.234434
     7  N   -0.009028
     8  N   -0.045897
     9  N   -0.068410
    10  N   -0.246848
    11  C    0.050894
    12  C    0.258638
    13  C   -0.187964
    14  C   -0.152993
    15  C   -0.105596
    16  C   -0.064696
    17  C   -0.197377
    18  C    0.163684
    19  C   -0.148139
    20  C   -0.077026
    21  C    0.099436
    22  C    0.052561
    23  C   -0.099123
    24  C    0.225735
    25  C    0.107149
    26  C   -0.065059
    27  C    0.024746
    28  C    0.133412
    29  C   -0.056584
    30  C   -0.031320
    31  C    0.162550
    32  C   -0.043163
    33  C   -0.067905
    34  C    0.093891
    35  C    0.104777
    36  C    0.084913
    37  C    0.147951
    38  C    0.058761
    39  C   -0.181485
    40  C    0.122293
    41  C   -0.049554
    42  C   -0.022678
    43  C   -0.022721
    44  H    0.044295
    45  H   -0.045138
    46  H   -0.041396
    47  H    0.148338
    48  H    0.104701
    49  H    0.024151
    50  H   -0.000820
    51  H   -0.005108
    52  H    0.005525
    53  H   -0.077148
    54  H    0.018891
    55  H    0.005944
    56  H    0.063077
    57  H    0.039602
    58  H    0.002925
    59  H    0.006854
    60  H    0.209488
    61  H    0.043076
    62  H    0.048716
    63  H    0.028826
    64  H   -0.017719
    65  H    0.043184
    66  H    0.052302
    67  H    0.076019
    68  H    0.080195
    69  H   -0.036086
    70  H   -0.079556
    71  H    0.014749
    72  H    0.148008
    73  H    0.005943
    74  H    0.061098
    75  H    0.066166
    76  H    0.044152
    77  H    0.189304
    78  H    0.005059
    79  H    0.021606
 Sum of Mulliken charges =  -0.00000

 Dipole moment (field-independent basis, Debye):
    X=              4.8909    Y=              2.5341    Z=             -1.3364  Tot=              5.6683
 Quadrupole moment (field-independent basis, Debye-Ang):
   XX=           -237.7920   YY=           -247.3927   ZZ=           -270.5635
   XY=              3.5191   XZ=            -24.8821   YZ=            -20.3768

 Normal termination of Gaussian 16 at Wed Jul 24 15:00:29 2019.
