 Gaussian 16, Revision A.03,
 Gaussian 16:  ES64L-G16RevA.03 25-Dec-2016

 --------------------------
 # td=(NStates=1) B3LYP/SVP
 --------------------------

 --
 TD
 --
 Symbolic Z-matrix:
 Charge =  0 Multiplicity = 1

                         Standard orientation:
 ---------------------------------------------------------------------
 Center     Atomic      Atomic             Coordinates (Angstroms)
 Number     Number       Type             X           Y           Z
 ---------------------------------------------------------------------
      1          8           0       -3.203374   -0.941583   -3.024693
      2          8           0        2.901050    2.582847    3.485600
      3          8           0        4.037583    0.670592    4.177413
      4          8           0        7.836938   -1.245551   -1.037663
      5          8           0        6.708228   -2.661716   -2.391163
      6          8           0       -2.710357    1.556428    1.565939
      7          7           0       -0.359110   -2.538664    0.514178
      8          7           0       -2.747069   -1.185784   -0.793825
      9          7           0        1.106630    0.158330   -0.588396
     10          7           0       -1.016937    1.549929   -0.009366
     11          6           0       -3.479307   -1.386794    0.373381
     12          6           0       -2.811104   -2.626514    1.303767
     13          6           0       -1.333361   -2.407805    1.484010
     14          6           0       -0.666213   -1.731833    2.614943
     15          6           0        0.640181   -1.524263    2.295435
     16          6           0        0.868719   -2.133830    1.012177
     17          6           0       -4.801577   -1.777767    0.001289
     18          6           0        1.773644   -0.914128    3.011610
     19          6           0       -4.887393   -1.788907   -1.398930
     20          6           0        1.996174   -1.970050    0.125029
     21          6           0        2.079119   -0.820131   -0.639102
     22          6           0       -3.571640   -1.263324   -1.909236
     23          6           0        3.069534   -0.544765   -1.727049
     24          6           0       -1.328170   -1.208435    3.791878
     25          6           0       -5.923661   -2.035273    0.939335
     26          6           0        2.570215    0.652087   -2.301509
     27          6           0        1.783162    0.646021    3.003896
     28          6           0        1.416344    1.191916   -1.567558
     29          6           0        4.291835   -1.411730   -1.969029
     30          6           0       -5.974193   -2.072372   -2.319516
     31          6           0        5.460577   -0.937816   -1.178691
     32          6           0        3.290025    1.547562   -3.356955
     33          6           0        0.637207    2.261849   -1.738672
     34          6           0        3.004023    1.225716    3.598210
     35          6           0       -0.470731    2.493167   -0.891991
     36          6           0       -7.015299   -2.807947   -2.029909
     37          6           0        6.666779   -1.853174   -1.569993
     38          6           0       -1.314266    3.713697   -0.855683
     39          6           0       -2.228122    3.435930    0.141988
     40          6           0       -1.998785    2.143226    0.661627
     41          6           0       -1.144009    4.890948   -1.632336
     42          6           0       -3.294832    4.309840    0.724472
     43          6           0       -1.617745    6.144288   -1.424542
     44          1           0       -3.548077   -0.429670    1.075683
     45          1           0       -2.829197   -3.809953    1.055374
     46          1           0       -3.145304   -2.666427    2.311825
     47          1           0       -0.500213   -3.149619   -0.292117
     48          1           0       -2.061548   -0.320614   -0.595130
     49          1           0        1.795306   -1.389452    4.068417
     50          1           0        2.805207   -1.300249    2.536763
     51          1           0        2.883608   -2.562385    0.150692
     52          1           0       -2.311058   -1.819895    4.239233
     53          1           0       -0.475322   -0.935549    4.647363
     54          1           0       -1.842193   -0.286398    3.398468
     55          1           0       -5.718911   -1.530489    1.900878
     56          1           0       -5.836237   -3.214045    1.045594
     57          1           0       -6.881449   -1.646438    0.532345
     58          1           0        1.814790    0.937740    2.102502
     59          1           0        0.917550    1.242829    3.177232
     60          1           0        0.317989    0.466102    0.146018
     61          1           0        4.451261   -1.591651   -3.337543
     62          1           0        3.938579   -2.549760   -1.928789
     63          1           0       -5.741414   -1.600420   -3.247300
     64          1           0        5.171223   -1.099120   -0.126950
     65          1           0        5.860133    0.110170   -1.207283
     66          1           0        4.005288    0.856145   -3.861541
     67          1           0        3.948342    2.302278   -2.875080
     68          1           0        2.599599    2.057292   -4.049004
     69          1           0        0.947778    3.104042   -2.397096
     70          1           0       -7.580513   -3.446180   -1.162107
     71          1           0       -7.584378   -3.159702   -2.961709
     72          1           0        3.676710    2.859198    4.153729
     73          1           0       -0.418506    4.697215   -2.443227
     74          1           0       -3.995768    4.787809   -0.138369
     75          1           0       -4.156904    3.798991    1.484095
     76          1           0       -2.888456    5.218471    1.365047
     77          1           0        8.475144   -1.612237   -1.487767
     78          1           0       -1.365409    6.897098   -2.203284
     79          1           0       -2.295573    6.573730   -0.572658
 ---------------------------------------------------------------------

 SCF Done:  E(RB3LYP) =  -1947.78064164     A.U. after   19 cycles

 Excitation energies and oscillator strengths:

 Excited State   1:      Singlet-A      0.6278 eV 1974.78 nm  f=0.0057  <S**2>=0.000
     155 ->156         0.70491
 This state for optimization and/or second-order correction.
 Total Energy, E(TD-HF/TD-DFT) =  -1947.75756901
 Copying the excited state density for this state as the 1-particle RhoCI density.

 The electronic state is 1-A.
 Alpha  occ. eigenvalues --  -19.19219 -19.17214 -19.16079 -19.12784 -19.11484
 Alpha  occ. eigenvalues --  -19.07946 -14.37265 -14.37253 -14.32210 -14.31522
 Alpha  occ. eigenvalues --  -10.33814 -10.32756 -10.27366 -10.26801 -10.26479
 Alpha  occ. eigenvalues --  -10.26146 -10.25511 -10.25503 -10.24064 -10.23640
 Alpha  occ. eigenvalues --  -10.23572 -10.22454 -10.22238 -10.22142 -10.22085
 Alpha  occ. eigenvalues --  -10.21942 -10.21921 -10.21751 -10.21713 -10.21091
 Alpha  occ. eigenvalues --  -10.20839 -10.20640 -10.20527 -10.20508 -10.20009
 Alpha  occ. eigenvalues --  -10.19808 -10.19632 -10.19274 -10.19110 -10.18467
 Alpha  occ. eigenvalues --  -10.17762 -10.17243 -10.16898  -1.12676  -1.07714
 Alpha  occ. eigenvalues --   -1.04541  -1.00669  -1.00313  -0.97347  -0.96320
 Alpha  occ. eigenvalues --   -0.95982  -0.93390  -0.92475  -0.83686  -0.82754
 Alpha  occ. eigenvalues --   -0.82083  -0.81587  -0.80115  -0.79160  -0.78424
 Alpha  occ. eigenvalues --   -0.77937  -0.76280  -0.75969  -0.74458  -0.72361
 Alpha  occ. eigenvalues --   -0.70783  -0.70146  -0.69022  -0.68506  -0.66684
 Alpha  occ. eigenvalues --   -0.66408  -0.65716  -0.63684  -0.61968  -0.60708
 Alpha  occ. eigenvalues --   -0.59984  -0.59195  -0.58620  -0.56828  -0.56349
 Alpha  occ. eigenvalues --   -0.55541  -0.55078  -0.53855  -0.53343  -0.52614
 Alpha  occ. eigenvalues --   -0.52367  -0.51301  -0.50791  -0.50370  -0.49968
 Alpha  occ. eigenvalues --   -0.49326  -0.48974  -0.48512  -0.48187  -0.47973
 Alpha  occ. eigenvalues --   -0.47861  -0.46828  -0.46022  -0.45797  -0.45681
 Alpha  occ. eigenvalues --   -0.45350  -0.45164  -0.44570  -0.44515  -0.44201
 Alpha  occ. eigenvalues --   -0.43612  -0.43281  -0.42539  -0.42136  -0.42029
 Alpha  occ. eigenvalues --   -0.41608  -0.41565  -0.41132  -0.40911  -0.40456
 Alpha  occ. eigenvalues --   -0.40356  -0.40122  -0.39780  -0.39682  -0.39459
 Alpha  occ. eigenvalues --   -0.39228  -0.38882  -0.38592  -0.38242  -0.37866
 Alpha  occ. eigenvalues --   -0.37766  -0.37390  -0.37075  -0.36977  -0.36305
 Alpha  occ. eigenvalues --   -0.35931  -0.35494  -0.34908  -0.34746  -0.34424
 Alpha  occ. eigenvalues --   -0.33164  -0.32746  -0.32562  -0.32458  -0.31793
 Alpha  occ. eigenvalues --   -0.31094  -0.31002  -0.29485  -0.29206  -0.28628
 Alpha  occ. eigenvalues --   -0.27803  -0.26987  -0.25950  -0.24551  -0.23984
 Alpha  occ. eigenvalues --   -0.23549  -0.23059  -0.22959  -0.21780  -0.18324
 Alpha virt. eigenvalues --   -0.13768  -0.08309  -0.03919  -0.02884  -0.01859
 Alpha virt. eigenvalues --   -0.01761   0.01020   0.01684   0.02752   0.02944
 Alpha virt. eigenvalues --    0.03517   0.03625   0.03912   0.04525   0.04822

 Mulliken charges:
               1
     1  O   -0.231899
     2  O   -0.233035
     3  O   -0.316104
     4  O   -0.176597
     5  O   -0.139248
     6  O   -0.274120
     7  N   -0.053746
     8  N   -0.210247
     9  N   -0.195944
    10  N   -0.308060
    11  C    0.052721
    12  C    0.177439
    13  C   -0.157639
    14  C   -0.076539
    15  C   -0.075999
    16  C    0.020109
    17  C   -0.182289
    18  C    0.029499
    19  C   -0.110169
    20  C   -0.088356
    21  C    0.100414
    22  C    0.133377
    23  C   -0.009082
    24  C   -0.040432
    25  C    0.077796
    26  C   -0.145345
    27  C    0.178565
    28  C    0.179477
    29  C   -0.091017
    30  C    0.059667
    31  C    0.025354
    32  C    0.063334
    33  C   -0.101198
    34  C    0.160672
    35  C    0.093692
    36  C   -0.102670
    37  C    0.141627
    38  C    0.074173
    39  C   -0.118795
    40  C    0.158618
    41  C   -0.021200
    42  C   -0.070749
    43  C   -0.052867
    44  H    0.085649
    45  H    0.014618
    46  H   -0.037182
    47  H    0.124616
    48  H    0.187690
    49  H    0.036718
    50  H    0.021713
    51  H   -0.006119
    52  H    0.028263
    53  H    0.034454
    54  H    0.051269
    55  H    0.019324
    56  H    0.055762
    57  H    0.047366
    58  H   -0.074129
    59  H    0.025281
    60  H    0.238093
    61  H    0.056972
    62  H    0.070829
    63  H    0.002285
    64  H    0.048964
    65  H    0.069256
    66  H    0.022872
    67  H    0.038845
    68  H    0.039349
    69  H    0.002243
    70  H    0.052918
    71  H    0.015695
    72  H    0.216334
    73  H   -0.004222
    74  H    0.048762
    75  H    0.065407
    76  H    0.056150
    77  H    0.110475
    78  H    0.033642
    79  H    0.056653
 Sum of Mulliken charges =  -0.00000

 Dipole moment (field-independent basis, Debye):
    X=              3.2712    Y=              3.3390    Z=             -0.6859  Tot=              4.7244
 Quadrupole moment (field-independent basis, Debye-Ang):
   XX=           -244.1467   YY=           -227.6649   ZZ=           -271.4597
   XY=              7.0305   XZ=            -25.9121   YZ=             -7.2693

 Normal termination of Gaussian 16 at Sun Jul 28 02:32:26 2019.
