 Gaussian 16, Revision A.03,
 Gaussian 16:  ES64L-G16RevA.03 25-Dec-2016

 --------------------------
 # td=(NStates=1) B3LYP/SVP
 --------------------------

 --
 TD
 --
 Symbolic Z-matrix:
 Charge =  0 Multiplicity = 1

                         Standard orientation:
 ---------------------------------------------------------------------
 Center     Atomic      Atomic             Coordinates (Angstroms)
 Number     Number       Type             X           Y           Z
 ---------------------------------------------------------------------
      1          8           0        5.586827    0.088039   -3.309160
      2          8           0       -2.982130   -3.045420    3.228822
      3          8           0       -3.350536   -0.801492    2.861643
      4          8           0       -1.669379    7.236881    1.600655
      5          8           0       -0.957622    7.081333   -0.585897
      6          8           0       -1.616796   -3.976006    0.091028
      7          7           0        2.406802    1.073283    0.808374
      8          7           0        4.405346   -0.143595   -1.270830
      9          7           0       -1.916077    0.713160   -0.467981
     10          7           0       -2.580851   -1.921274   -0.532435
     11          6           0        4.721833   -1.028285   -0.077051
     12          6           0        4.454716   -0.208099    1.313420
     13          6           0        2.943732   -0.022618    1.406507
     14          6           0        1.963537   -0.662640    2.125358
     15          6           0        0.706927   -0.009229    1.882126
     16          6           0        0.985390    0.953374    0.919851
     17          6           0        6.157411   -1.358658   -0.212817
     18          6           0       -0.572996   -0.326811    2.482254
     19          6           0        6.637160   -0.847936   -1.430387
     20          6           0        0.143875    2.034128    0.295144
     21          6           0       -1.130874    1.890870   -0.293558
     22          6           0        5.493117   -0.212164   -2.138903
     23          6           0       -1.995310    2.870624   -0.837210
     24          6           0        2.107038   -1.762922    3.170500
     25          6           0        6.977929   -2.005083    0.902810
     26          6           0       -3.158268    2.408215   -1.338106
     27          6           0       -1.162051   -1.764623    2.457730
     28          6           0       -3.113866    0.913186   -1.047269
     29          6           0       -1.559964    4.328868   -0.930313
     30          6           0        7.892604   -0.745453   -1.984724
     31          6           0       -1.790022    5.114458    0.472371
     32          6           0       -4.303891    2.966639   -1.982460
     33          6           0       -3.983284   -0.120593   -1.385010
     34          6           0       -2.568710   -1.854222    2.886037
     35          6           0       -3.631789   -1.509450   -1.023434
     36          6           0        9.223292   -1.110226   -1.398549
     37          6           0       -1.462231    6.556958    0.367262
     38          6           0       -4.526936   -2.678183   -1.479570
     39          6           0       -3.807680   -3.805259   -1.080340
     40          6           0       -2.517240   -3.313274   -0.434612
     41          6           0       -5.788867   -2.609457   -2.147349
     42          6           0       -4.204431   -5.330267   -1.118116
     43          6           0       -6.687375   -3.567179   -2.555895
     44          1           0        3.954081   -1.994015   -0.043611
     45          1           0        5.056308    0.854260    1.257353
     46          1           0        5.032681   -0.653175    2.143387
     47          1           0        2.985827    1.356405    0.023266
     48          1           0        3.569507   -0.017886   -1.753256
     49          1           0       -0.453970   -0.155173    3.661416
     50          1           0       -1.210688    0.349519    2.093327
     51          1           0        0.682898    2.995621    0.121757
     52          1           0        3.430188   -1.716127    3.290459
     53          1           0        1.620831   -1.752205    3.956978
     54          1           0        1.862010   -2.803940    2.898859
     55          1           0        6.312922   -2.323244    1.708243
     56          1           0        7.611803   -1.147128    1.472423
     57          1           0        7.614333   -2.786087    0.373303
     58          1           0       -1.122721   -2.152349    1.478695
     59          1           0       -0.615405   -2.515493    3.139941
     60          1           0       -1.717161   -0.199770   -0.292055
     61          1           0       -2.155949    4.776969   -1.577952
     62          1           0       -0.426355    4.548928   -0.993269
     63          1           0        7.882096   -0.652388   -3.050759
     64          1           0       -1.248494    4.458195    1.348622
     65          1           0       -2.853246    5.035817    0.934274
     66          1           0       -3.992609    3.953322   -2.118357
     67          1           0       -5.152098    3.020398   -1.215109
     68          1           0       -4.563921    2.544940   -2.927670
     69          1           0       -4.778933    0.060169   -2.014128
     70          1           0        9.509864   -1.292287   -0.553700
     71          1           0       10.202046   -1.052800   -2.063913
     72          1           0       -4.065966   -2.870314    3.161952
     73          1           0       -5.961458   -1.471716   -2.834233
     74          1           0       -5.147804   -5.274051   -0.500955
     75          1           0       -4.320366   -5.466139   -2.253266
     76          1           0       -3.365582   -5.899322   -0.767511
     77          1           0       -1.238086    8.297271    1.360983
     78          1           0       -7.532466   -3.382132   -3.034247
     79          1           0       -6.350226   -4.499897   -2.002058
 ---------------------------------------------------------------------

 SCF Done:  E(RB3LYP) =  -1947.72102048     A.U. after   16 cycles

 Excitation energies and oscillator strengths:

 Excited State   1:      Singlet-A      2.0928 eV  592.43 nm  f=0.4080  <S**2>=0.000
     155 ->156         0.70002
 This state for optimization and/or second-order correction.
 Total Energy, E(TD-HF/TD-DFT) =  -1947.64411177
 Copying the excited state density for this state as the 1-particle RhoCI density.

 The electronic state is 1-A.
 Alpha  occ. eigenvalues --  -19.19891 -19.18561 -19.14140 -19.12385 -19.10714
 Alpha  occ. eigenvalues --  -19.10546 -14.37801 -14.36428 -14.35881 -14.29616
 Alpha  occ. eigenvalues --  -10.32713 -10.31236 -10.28699 -10.28384 -10.27563
 Alpha  occ. eigenvalues --  -10.24984 -10.24537 -10.24204 -10.23838 -10.23551
 Alpha  occ. eigenvalues --  -10.23181 -10.22918 -10.22900 -10.22897 -10.22826
 Alpha  occ. eigenvalues --  -10.22508 -10.21173 -10.21044 -10.20915 -10.20871
 Alpha  occ. eigenvalues --  -10.20822 -10.20808 -10.20648 -10.20611 -10.20100
 Alpha  occ. eigenvalues --  -10.19878 -10.19801 -10.19800 -10.19297 -10.19255
 Alpha  occ. eigenvalues --  -10.19117 -10.19028 -10.18932  -1.09064  -1.07927
 Alpha  occ. eigenvalues --   -1.03388  -1.02325  -0.98768  -0.98657  -0.98347
 Alpha  occ. eigenvalues --   -0.95031  -0.94957  -0.94092  -0.83566  -0.82780
 Alpha  occ. eigenvalues --   -0.82257  -0.80833  -0.80549  -0.78993  -0.77533
 Alpha  occ. eigenvalues --   -0.77022  -0.76388  -0.75127  -0.73944  -0.73104
 Alpha  occ. eigenvalues --   -0.71844  -0.71341  -0.69851  -0.69029  -0.68557
 Alpha  occ. eigenvalues --   -0.68036  -0.66404  -0.64801  -0.62782  -0.61102
 Alpha  occ. eigenvalues --   -0.59595  -0.58510  -0.58142  -0.57886  -0.56686
 Alpha  occ. eigenvalues --   -0.56020  -0.55305  -0.54910  -0.54319  -0.53357
 Alpha  occ. eigenvalues --   -0.52024  -0.51929  -0.51036  -0.50224  -0.49774
 Alpha  occ. eigenvalues --   -0.49056  -0.48633  -0.48226  -0.47847  -0.47775
 Alpha  occ. eigenvalues --   -0.47308  -0.47145  -0.46735  -0.46377  -0.45905
 Alpha  occ. eigenvalues --   -0.45802  -0.45403  -0.45110  -0.44747  -0.44292
 Alpha  occ. eigenvalues --   -0.43943  -0.43589  -0.43119  -0.42873  -0.42736
 Alpha  occ. eigenvalues --   -0.42396  -0.42242  -0.41896  -0.41689  -0.41531
 Alpha  occ. eigenvalues --   -0.41327  -0.41147  -0.40942  -0.40636  -0.40264
 Alpha  occ. eigenvalues --   -0.39923  -0.39865  -0.39219  -0.38982  -0.38713
 Alpha  occ. eigenvalues --   -0.38480  -0.37934  -0.37346  -0.36863  -0.36493
 Alpha  occ. eigenvalues --   -0.36185  -0.35643  -0.35330  -0.35186  -0.34780
 Alpha  occ. eigenvalues --   -0.34562  -0.32962  -0.32618  -0.32380  -0.31390
 Alpha  occ. eigenvalues --   -0.31087  -0.29777  -0.29461  -0.29246  -0.28175
 Alpha  occ. eigenvalues --   -0.27824  -0.26166  -0.25966  -0.25815  -0.25108
 Alpha  occ. eigenvalues --   -0.24613  -0.23982  -0.23048  -0.22660  -0.19474
 Alpha virt. eigenvalues --   -0.11044  -0.07966  -0.07099  -0.01741  -0.01519
 Alpha virt. eigenvalues --   -0.00474  -0.00142  -0.00048   0.00806   0.01863
 Alpha virt. eigenvalues --    0.02387   0.03275   0.03753   0.04249   0.04636

 Mulliken charges:
               1
     1  O   -0.215472
     2  O   -0.186827
     3  O   -0.344840
     4  O   -0.320744
     5  O   -0.209394
     6  O   -0.209071
     7  N   -0.078789
     8  N   -0.201089
     9  N   -0.037053
    10  N   -0.187375
    11  C    0.051538
    12  C    0.042003
    13  C   -0.054812
    14  C   -0.119179
    15  C   -0.061679
    16  C    0.024333
    17  C   -0.148489
    18  C    0.131604
    19  C    0.000351
    20  C   -0.088024
    21  C    0.142864
    22  C    0.134470
    23  C   -0.094925
    24  C    0.137437
    25  C    0.047814
    26  C   -0.149194
    27  C    0.050390
    28  C    0.068472
    29  C    0.172641
    30  C   -0.040488
    31  C   -0.140163
    32  C    0.180068
    33  C   -0.059676
    34  C    0.139926
    35  C    0.060206
    36  C    0.009163
    37  C    0.209641
    38  C    0.028130
    39  C   -0.268290
    40  C    0.167918
    41  C   -0.120861
    42  C    0.093250
    43  C    0.032498
    44  H    0.075287
    45  H    0.034982
    46  H    0.021379
    47  H    0.114718
    48  H    0.115383
    49  H    0.021587
    50  H   -0.032601
    51  H    0.011501
    52  H    0.009998
    53  H   -0.062073
    54  H    0.023308
    55  H    0.021796
    56  H    0.058640
    57  H    0.070506
    58  H    0.050962
    59  H    0.021927
    60  H    0.080429
    61  H   -0.035704
    62  H    0.041813
    63  H    0.021646
    64  H    0.079407
    65  H    0.050795
    66  H   -0.029931
    67  H    0.047326
    68  H    0.031710
    69  H   -0.064834
    70  H   -0.071583
    71  H    0.042604
    72  H    0.237018
    73  H    0.021953
    74  H    0.066518
    75  H    0.054097
    76  H    0.028945
    77  H    0.247040
    78  H   -0.011019
    79  H    0.016186
 Sum of Mulliken charges =  -0.00000

 Dipole moment (field-independent basis, Debye):
    X=             -0.2007    Y=              0.4106    Z=              2.1381  Tot=              2.1864
 Quadrupole moment (field-independent basis, Debye-Ang):
   XX=           -227.4977   YY=           -247.7516   ZZ=           -266.5257
   XY=             -5.3418   XZ=             33.5949   YZ=              1.3075

 Normal termination of Gaussian 16 at Fri Oct  4 01:07:38 2019.
