 Gaussian 16, Revision A.03,
 Gaussian 16:  ES64L-G16RevA.03 25-Dec-2016

 --------------------------
 # td=(NStates=1) B3LYP/SVP
 --------------------------

 --
 TD
 --
 Symbolic Z-matrix:
 Charge =  0 Multiplicity = 1

                         Standard orientation:
 ---------------------------------------------------------------------
 Center     Atomic      Atomic             Coordinates (Angstroms)
 Number     Number       Type             X           Y           Z
 ---------------------------------------------------------------------
      1          8           0       -3.248032   -1.290566   -2.939101
      2          8           0        3.215193    2.894439    3.375263
      3          8           0        4.023856    0.959521    4.199271
      4          8           0        7.743262   -1.457258   -0.743380
      5          8           0        6.791364   -2.746370   -2.326481
      6          8           0       -2.856323    1.563841    1.548462
      7          7           0       -0.259786   -2.479618    0.752280
      8          7           0       -2.598674   -1.237165   -0.708371
      9          7           0        1.135396    0.105311   -0.723338
     10          7           0       -1.122756    1.522998   -0.015435
     11          6           0       -3.264666   -1.380888    0.599547
     12          6           0       -2.613240   -2.565270    1.452049
     13          6           0       -1.208839   -2.093725    1.689470
     14          6           0       -0.622445   -1.394269    2.771674
     15          6           0        0.699060   -1.265168    2.362545
     16          6           0        0.959569   -1.957882    1.154328
     17          6           0       -4.693066   -1.926636    0.170169
     18          6           0        1.867541   -0.404143    3.111869
     19          6           0       -4.700457   -2.066451   -1.206335
     20          6           0        2.084222   -1.904701    0.155808
     21          6           0        2.121596   -0.916232   -0.737528
     22          6           0       -3.492232   -1.536669   -1.736809
     23          6           0        3.026654   -0.591433   -1.888926
     24          6           0       -1.291378   -0.686222    3.867748
     25          6           0       -5.731358   -2.151216    1.185238
     26          6           0        2.527602    0.708562   -2.384051
     27          6           0        2.097812    0.951496    2.664344
     28          6           0        1.394358    1.057189   -1.660522
     29          6           0        4.275660   -1.254387   -2.213990
     30          6           0       -5.841631   -2.496191   -1.954931
     31          6           0        5.415019   -0.894801   -1.202032
     32          6           0        3.090477    1.430166   -3.487782
     33          6           0        0.445163    2.050981   -1.821651
     34          6           0        3.237723    1.576130    3.475272
     35          6           0       -0.741839    2.300593   -1.111177
     36          6           0       -6.897237   -3.211243   -1.738763
     37          6           0        6.666113   -1.867761   -1.473489
     38          6           0       -1.647168    3.525352   -1.142912
     39          6           0       -2.496350    3.421531    0.032457
     40          6           0       -2.255967    2.114847    0.579333
     41          6           0       -1.399475    4.680685   -2.017210
     42          6           0       -3.573855    4.321193    0.539965
     43          6           0       -2.190713    5.714982   -2.030817
     44          1           0       -3.190711   -0.400337    1.183717
     45          1           0       -2.778002   -3.424253    0.992101
     46          1           0       -3.134984   -2.662578    2.289689
     47          1           0       -0.556405   -2.873868   -0.127513
     48          1           0       -1.931031   -0.435970   -0.617599
     49          1           0        1.516103   -0.371968    4.088834
     50          1           0        2.924081   -0.962993    3.060648
     51          1           0        2.967041   -2.503257    0.284277
     52          1           0       -2.134441   -1.545781    4.241855
     53          1           0       -0.620414   -0.495552    4.781320
     54          1           0       -1.926447    0.206307    3.433736
     55          1           0       -5.267283   -1.693727    2.151973
     56          1           0       -5.762096   -3.322706    1.237298
     57          1           0       -6.759815   -1.587495    0.886197
     58          1           0        2.593407    1.107250    1.598687
     59          1           0        1.135601    1.440450    3.008512
     60          1           0        0.346236    0.280136    0.005470
     61          1           0        4.574161   -1.120985   -3.357721
     62          1           0        4.292736   -2.354917   -2.168399
     63          1           0       -5.703230   -2.018601   -2.931562
     64          1           0        5.179776   -1.084370   -0.083535
     65          1           0        5.721469    0.201317   -1.424054
     66          1           0        3.508831    0.691841   -4.268017
     67          1           0        3.983607    2.206858   -3.044218
     68          1           0        2.286459    2.272357   -3.919818
     69          1           0        0.674985    2.949858   -2.612900
     70          1           0       -7.148818   -3.447947   -0.662217
     71          1           0       -7.774587   -3.251011   -2.555566
     72          1           0        4.157170    2.936954    3.872658
     73          1           0       -0.432789    4.662903   -2.515641
     74          1           0       -4.312470    4.561960   -0.110802
     75          1           0       -3.773824    3.852205    1.525785
     76          1           0       -3.048783    5.198355    0.855038
     77          1           0        8.586069   -1.963559   -0.992125
     78          1           0       -1.938291    6.658115   -2.652930
     79          1           0       -3.167051    5.794956   -1.518731
 ---------------------------------------------------------------------

 SCF Done:  E(RB3LYP) =  -1947.83236277     A.U. after   22 cycles

 Excitation energies and oscillator strengths:

 Excited State   1:      Singlet-A      0.9271 eV 1337.29 nm  f=0.0080  <S**2>=0.000
     155 ->156         0.70406
 This state for optimization and/or second-order correction.
 Total Energy, E(TD-HF/TD-DFT) =  -1947.79829129
 Copying the excited state density for this state as the 1-particle RhoCI density.

 The electronic state is 1-A.
 Alpha  occ. eigenvalues --  -19.19798 -19.19754 -19.14782 -19.13119 -19.11907
 Alpha  occ. eigenvalues --  -19.07146 -14.37485 -14.36801 -14.32155 -14.30727
 Alpha  occ. eigenvalues --  -10.34503 -10.32046 -10.27786 -10.26370 -10.26121
 Alpha  occ. eigenvalues --  -10.25807 -10.25541 -10.25221 -10.24529 -10.24296
 Alpha  occ. eigenvalues --  -10.23328 -10.23243 -10.22754 -10.22709 -10.22143
 Alpha  occ. eigenvalues --  -10.21809 -10.21708 -10.21326 -10.21314 -10.21157
 Alpha  occ. eigenvalues --  -10.20950 -10.20885 -10.20729 -10.20707 -10.20205
 Alpha  occ. eigenvalues --  -10.19109 -10.18748 -10.18332 -10.18070 -10.17935
 Alpha  occ. eigenvalues --  -10.17503 -10.17499 -10.17253  -1.11012  -1.09824
 Alpha  occ. eigenvalues --   -1.00901  -1.00817  -1.00071  -0.99097  -0.98418
 Alpha  occ. eigenvalues --   -0.96387  -0.91365  -0.90205  -0.83968  -0.83237
 Alpha  occ. eigenvalues --   -0.81346  -0.80799  -0.80685  -0.79039  -0.78518
 Alpha  occ. eigenvalues --   -0.77626  -0.77079  -0.75894  -0.74520  -0.72676
 Alpha  occ. eigenvalues --   -0.70664  -0.70289  -0.69602  -0.69201  -0.67452
 Alpha  occ. eigenvalues --   -0.66087  -0.65128  -0.62519  -0.61864  -0.60929
 Alpha  occ. eigenvalues --   -0.59543  -0.58877  -0.57439  -0.57351  -0.56163
 Alpha  occ. eigenvalues --   -0.55365  -0.54910  -0.54341  -0.53213  -0.52947
 Alpha  occ. eigenvalues --   -0.51786  -0.51155  -0.50566  -0.50481  -0.50067
 Alpha  occ. eigenvalues --   -0.49587  -0.49310  -0.48983  -0.48076  -0.47669
 Alpha  occ. eigenvalues --   -0.47464  -0.47046  -0.46487  -0.46264  -0.45944
 Alpha  occ. eigenvalues --   -0.45447  -0.44955  -0.44853  -0.44548  -0.43958
 Alpha  occ. eigenvalues --   -0.43807  -0.42898  -0.42820  -0.42447  -0.42373
 Alpha  occ. eigenvalues --   -0.42166  -0.41754  -0.41638  -0.41511  -0.41141
 Alpha  occ. eigenvalues --   -0.40966  -0.40608  -0.40178  -0.39809  -0.39609
 Alpha  occ. eigenvalues --   -0.39365  -0.38992  -0.38762  -0.38433  -0.38269
 Alpha  occ. eigenvalues --   -0.38016  -0.37627  -0.37256  -0.36465  -0.36314
 Alpha  occ. eigenvalues --   -0.35654  -0.35289  -0.34931  -0.34553  -0.34246
 Alpha  occ. eigenvalues --   -0.33677  -0.33589  -0.32636  -0.32485  -0.32266
 Alpha  occ. eigenvalues --   -0.31316  -0.29965  -0.29541  -0.28869  -0.28391
 Alpha  occ. eigenvalues --   -0.28271  -0.26226  -0.25924  -0.24084  -0.23683
 Alpha  occ. eigenvalues --   -0.23450  -0.22809  -0.22553  -0.21976  -0.19216
 Alpha virt. eigenvalues --   -0.13461  -0.08657  -0.04148  -0.02564  -0.01528
 Alpha virt. eigenvalues --    0.00108   0.01123   0.01633   0.01941   0.02636
 Alpha virt. eigenvalues --    0.02994   0.03235   0.03726   0.04043   0.04330

 Mulliken charges:
               1
     1  O   -0.269671
     2  O   -0.185775
     3  O   -0.266917
     4  O   -0.219990
     5  O   -0.235208
     6  O   -0.262329
     7  N   -0.058783
     8  N   -0.226651
     9  N   -0.155349
    10  N   -0.360131
    11  C   -0.073770
    12  C    0.379219
    13  C   -0.143019
    14  C   -0.055132
    15  C   -0.117972
    16  C   -0.007200
    17  C   -0.182806
    18  C    0.092536
    19  C   -0.005133
    20  C   -0.108794
    21  C    0.161629
    22  C    0.158491
    23  C   -0.014002
    24  C   -0.025619
    25  C    0.009346
    26  C   -0.094020
    27  C    0.014100
    28  C    0.173676
    29  C    0.039764
    30  C   -0.000595
    31  C   -0.074470
    32  C   -0.049846
    33  C   -0.142823
    34  C    0.112663
    35  C    0.106090
    36  C   -0.077257
    37  C    0.166549
    38  C    0.022847
    39  C   -0.234624
    40  C    0.206964
    41  C    0.015527
    42  C    0.185116
    43  C   -0.043874
    44  H    0.086969
    45  H   -0.075925
    46  H   -0.075267
    47  H    0.119063
    48  H    0.146705
    49  H   -0.027901
    50  H    0.019849
    51  H   -0.000137
    52  H    0.017240
    53  H    0.032593
    54  H    0.087031
    55  H    0.049125
    56  H    0.067447
    57  H    0.078010
    58  H    0.058010
    59  H    0.053382
    60  H    0.223058
    61  H    0.044936
    62  H    0.027760
    63  H   -0.001481
    64  H    0.076666
    65  H    0.069978
    66  H    0.065581
    67  H    0.056555
    68  H    0.057478
    69  H    0.017179
    70  H    0.006253
    71  H    0.044216
    72  H    0.197635
    73  H   -0.006467
    74  H    0.031553
    75  H    0.022445
    76  H    0.004597
    77  H    0.210977
    78  H    0.037551
    79  H    0.024583
 Sum of Mulliken charges =  -0.00000

 Dipole moment (field-independent basis, Debye):
    X=              4.7968    Y=              3.9104    Z=             -0.0848  Tot=              6.1893
 Quadrupole moment (field-independent basis, Debye-Ang):
   XX=           -229.6829   YY=           -238.1952   ZZ=           -273.5931
   XY=              1.2779   XZ=            -22.5489   YZ=            -14.9587

 Normal termination of Gaussian 16 at Thu Jul 25 05:38:24 2019.
