 Gaussian 16, Revision A.03,
 Gaussian 16:  ES64L-G16RevA.03 25-Dec-2016

 --------------------------
 # td=(NStates=1) B3LYP/SVP
 --------------------------

 --
 TD
 --
 Symbolic Z-matrix:
 Charge =  0 Multiplicity = 1

                         Standard orientation:
 ---------------------------------------------------------------------
 Center     Atomic      Atomic             Coordinates (Angstroms)
 Number     Number       Type             X           Y           Z
 ---------------------------------------------------------------------
      1          8           0       -3.331171   -1.003696   -3.101863
      2          8           0        3.256013    2.320094    3.630088
      3          8           0        3.799823    0.370931    4.457124
      4          8           0        7.769418   -1.386520   -0.857674
      5          8           0        6.732907   -2.357434   -2.635371
      6          8           0       -2.675306    1.300370    1.566358
      7          7           0       -0.249407   -2.610202    0.389824
      8          7           0       -2.714681   -1.115700   -0.796939
      9          7           0        1.102459    0.179779   -0.748219
     10          7           0       -1.052147    1.466527   -0.063205
     11          6           0       -3.400109   -1.469738    0.461128
     12          6           0       -2.686128   -2.583418    1.092739
     13          6           0       -1.222575   -2.320237    1.330621
     14          6           0       -0.520817   -1.754578    2.473592
     15          6           0        0.746530   -1.624383    2.153624
     16          6           0        0.984707   -2.109103    0.816804
     17          6           0       -4.765595   -1.856627   -0.090636
     18          6           0        1.812270   -0.973652    2.893163
     19          6           0       -4.865363   -1.780137   -1.341585
     20          6           0        2.067132   -1.978892   -0.212458
     21          6           0        2.147190   -0.829074   -0.936147
     22          6           0       -3.683740   -1.211813   -1.883433
     23          6           0        3.089443   -0.289997   -1.887822
     24          6           0       -1.254855   -1.235205    3.785159
     25          6           0       -5.725541   -2.356510    1.013097
     26          6           0        2.619642    0.965644   -2.315282
     27          6           0        1.943845    0.524743    2.905444
     28          6           0        1.372861    1.266130   -1.571901
     29          6           0        4.342939   -1.062513   -2.274152
     30          6           0       -6.054057   -1.949153   -2.227515
     31          6           0        5.485717   -0.901803   -1.104441
     32          6           0        3.262498    1.927921   -3.213074
     33          6           0        0.525799    2.388333   -1.677416
     34          6           0        3.126042    1.013394    3.688199
     35          6           0       -0.623910    2.533278   -0.902429
     36          6           0       -7.060629   -2.765177   -1.994305
     37          6           0        6.698817   -1.633412   -1.707595
     38          6           0       -1.510528    3.715013   -0.607965
     39          6           0       -2.359339    3.410577    0.419250
     40          6           0       -2.017859    1.958998    0.705732
     41          6           0       -1.312226    5.075884   -1.317788
     42          6           0       -3.436468    4.125494    1.043338
     43          6           0       -2.189847    6.058324   -1.127211
     44          1           0       -3.553643   -0.685948    1.024197
     45          1           0       -2.600862   -3.618896    0.630417
     46          1           0       -3.292808   -2.556899    2.107769
     47          1           0       -0.350665   -3.226636   -0.663501
     48          1           0       -1.919463   -0.646974   -0.743154
     49          1           0        1.623620   -1.262826    3.853507
     50          1           0        2.807374   -1.458624    2.786034
     51          1           0        2.914996   -2.660329   -0.112659
     52          1           0       -1.845291   -1.891359    4.140981
     53          1           0       -0.435345   -1.067672    4.502280
     54          1           0       -1.836965   -0.338844    3.506126
     55          1           0       -5.429907   -1.619759    1.779685
     56          1           0       -5.471991   -3.550290    1.246674
     57          1           0       -6.824791   -2.074390    0.788961
     58          1           0        2.055225    0.905158    1.933688
     59          1           0        0.907822    1.027561    3.392624
     60          1           0        0.309144    0.316173   -0.252719
     61          1           0        4.692178   -0.563907   -3.212011
     62          1           0        4.012072   -2.066032   -2.315116
     63          1           0       -6.212626   -1.017601   -2.949755
     64          1           0        5.148855   -1.004563   -0.237348
     65          1           0        5.788306    0.306101   -1.107070
     66          1           0        4.043314    1.581198   -3.693484
     67          1           0        3.393531    3.011411   -2.686512
     68          1           0        2.523141    2.061526   -4.106005
     69          1           0        0.914970    3.259790   -2.418551
     70          1           0       -7.199713   -3.532417   -1.179105
     71          1           0       -7.901910   -2.804887   -2.684287
     72          1           0        4.068560    2.694168    3.992183
     73          1           0       -0.373880    5.381911   -1.990487
     74          1           0       -4.157249    4.428362    0.452410
     75          1           0       -3.707874    3.390106    1.902561
     76          1           0       -2.826746    5.072704    1.370248
     77          1           0        8.532122   -1.777058   -1.216058
     78          1           0       -1.839327    7.049254   -1.392692
     79          1           0       -3.186291    5.877845   -0.721761
 ---------------------------------------------------------------------

 SCF Done:  E(RB3LYP) =  -1947.75205196     A.U. after   19 cycles

 Excitation energies and oscillator strengths:

 Excited State   1:      Singlet-A      0.8772 eV 1413.34 nm  f=0.0019  <S**2>=0.000
     155 ->156         0.70473
 This state for optimization and/or second-order correction.
 Total Energy, E(TD-HF/TD-DFT) =  -1947.71981399
 Copying the excited state density for this state as the 1-particle RhoCI density.

 The electronic state is 1-A.
 Alpha  occ. eigenvalues --  -19.18580 -19.17477 -19.15616 -19.11274 -19.10489
 Alpha  occ. eigenvalues --  -19.07316 -14.38314 -14.36875 -14.30530 -14.30083
 Alpha  occ. eigenvalues --  -10.34297 -10.31068 -10.27049 -10.26794 -10.26330
 Alpha  occ. eigenvalues --  -10.26289 -10.25581 -10.23343 -10.23307 -10.23212
 Alpha  occ. eigenvalues --  -10.23008 -10.22815 -10.22120 -10.22091 -10.21807
 Alpha  occ. eigenvalues --  -10.21431 -10.21014 -10.20459 -10.20439 -10.20412
 Alpha  occ. eigenvalues --  -10.20153 -10.20122 -10.19799 -10.19637 -10.19430
 Alpha  occ. eigenvalues --  -10.19222 -10.19177 -10.18310 -10.17426 -10.16981
 Alpha  occ. eigenvalues --  -10.16551 -10.16462 -10.16409  -1.11481  -1.10095
 Alpha  occ. eigenvalues --   -1.03711  -1.00060  -0.99688  -0.98129  -0.96680
 Alpha  occ. eigenvalues --   -0.94977  -0.91724  -0.90416  -0.84179  -0.82196
 Alpha  occ. eigenvalues --   -0.81260  -0.81134  -0.80895  -0.79052  -0.77878
 Alpha  occ. eigenvalues --   -0.76959  -0.76072  -0.75827  -0.74632  -0.73873
 Alpha  occ. eigenvalues --   -0.71235  -0.70678  -0.70240  -0.69830  -0.67420
 Alpha  occ. eigenvalues --   -0.67239  -0.65651  -0.62561  -0.62167  -0.60838
 Alpha  occ. eigenvalues --   -0.59603  -0.59112  -0.58647  -0.57529  -0.57244
 Alpha  occ. eigenvalues --   -0.56487  -0.54775  -0.54513  -0.53200  -0.52997
 Alpha  occ. eigenvalues --   -0.52409  -0.51509  -0.50868  -0.49961  -0.49806
 Alpha  occ. eigenvalues --   -0.49599  -0.48871  -0.48616  -0.48223  -0.47885
 Alpha  occ. eigenvalues --   -0.46998  -0.46722  -0.46325  -0.45982  -0.45963
 Alpha  occ. eigenvalues --   -0.45688  -0.44987  -0.44221  -0.44008  -0.43907
 Alpha  occ. eigenvalues --   -0.43596  -0.42982  -0.42599  -0.42269  -0.41815
 Alpha  occ. eigenvalues --   -0.41726  -0.41362  -0.41013  -0.40772  -0.40723
 Alpha  occ. eigenvalues --   -0.40389  -0.40288  -0.40038  -0.39606  -0.39457
 Alpha  occ. eigenvalues --   -0.38948  -0.38857  -0.38645  -0.38190  -0.37898
 Alpha  occ. eigenvalues --   -0.37726  -0.37254  -0.37138  -0.36702  -0.36304
 Alpha  occ. eigenvalues --   -0.35795  -0.35405  -0.35001  -0.34621  -0.34580
 Alpha  occ. eigenvalues --   -0.34279  -0.33288  -0.32218  -0.31677  -0.31357
 Alpha  occ. eigenvalues --   -0.31216  -0.30789  -0.29170  -0.28425  -0.28128
 Alpha  occ. eigenvalues --   -0.27181  -0.26759  -0.25085  -0.24344  -0.24089
 Alpha  occ. eigenvalues --   -0.23518  -0.22938  -0.22403  -0.22069  -0.18331
 Alpha virt. eigenvalues --   -0.12466  -0.07155  -0.02884  -0.01911  -0.01580
 Alpha virt. eigenvalues --    0.00396   0.00569   0.01659   0.01770   0.02388
 Alpha virt. eigenvalues --    0.03326   0.03831   0.04572   0.04583   0.05241

 Mulliken charges:
               1
     1  O   -0.299291
     2  O   -0.158635
     3  O   -0.226657
     4  O   -0.191550
     5  O   -0.169458
     6  O   -0.274828
     7  N   -0.169857
     8  N   -0.216453
     9  N   -0.061115
    10  N   -0.292557
    11  C    0.202891
    12  C    0.160607
    13  C   -0.111748
    14  C   -0.141120
    15  C   -0.078510
    16  C   -0.027096
    17  C   -0.216720
    18  C    0.150025
    19  C   -0.000612
    20  C   -0.139286
    21  C    0.202139
    22  C    0.175059
    23  C   -0.099327
    24  C    0.200590
    25  C    0.037055
    26  C   -0.137810
    27  C   -0.002627
    28  C    0.070041
    29  C    0.140486
    30  C   -0.007874
    31  C    0.002312
    32  C    0.123986
    33  C   -0.114188
    34  C    0.094307
    35  C    0.128083
    36  C   -0.059626
    37  C    0.182410
    38  C    0.035348
    39  C   -0.204121
    40  C    0.167139
    41  C   -0.052795
    42  C    0.092849
    43  C   -0.023943
    44  H   -0.022628
    45  H    0.003108
    46  H   -0.001536
    47  H    0.196840
    48  H    0.067730
    49  H   -0.040212
    50  H   -0.013629
    51  H    0.015856
    52  H   -0.052442
    53  H   -0.007120
    54  H    0.043477
    55  H    0.023174
    56  H    0.078750
    57  H    0.039225
    58  H    0.000027
    59  H    0.076576
    60  H    0.111416
    61  H    0.028926
    62  H    0.027842
    63  H    0.050045
    64  H   -0.027749
    65  H    0.057679
    66  H   -0.041342
    67  H    0.064650
    68  H    0.041894
    69  H    0.025596
    70  H    0.027486
    71  H    0.017394
    72  H    0.180865
    73  H    0.029682
    74  H    0.012863
    75  H    0.057236
    76  H    0.044357
    77  H    0.155004
    78  H    0.020502
    79  H    0.020932
 Sum of Mulliken charges =  -0.00000

 Dipole moment (field-independent basis, Debye):
    X=              4.6241    Y=              3.0510    Z=             -0.7183  Tot=              5.5863
 Quadrupole moment (field-independent basis, Debye-Ang):
   XX=           -223.3683   YY=           -228.6332   ZZ=           -277.5761
   XY=             10.6644   XZ=            -24.7077   YZ=             -7.2752

 Normal termination of Gaussian 16 at Fri Jul 26 13:19:04 2019.
