 Gaussian 16, Revision A.03,
 Gaussian 16:  ES64L-G16RevA.03 25-Dec-2016

 --------------------------
 # td=(NStates=1) B3LYP/SVP
 --------------------------

 --
 TD
 --
 Symbolic Z-matrix:
 Charge =  0 Multiplicity = 1

                         Standard orientation:
 ---------------------------------------------------------------------
 Center     Atomic      Atomic             Coordinates (Angstroms)
 Number     Number       Type             X           Y           Z
 ---------------------------------------------------------------------
      1          8           0       -3.191397   -1.685385   -2.732686
      2          8           0        2.710602    3.634894    2.765018
      3          8           0        3.750163    2.053071    4.094797
      4          8           0        7.753010   -1.798915   -0.681331
      5          8           0        6.551521   -3.452177   -1.594028
      6          8           0       -2.760850    1.698584    1.291774
      7          7           0       -0.089057   -2.360122    1.168479
      8          7           0       -2.646285   -1.314419   -0.432781
      9          7           0        1.196519    0.202598   -0.664042
     10          7           0       -1.060148    1.457572   -0.338267
     11          6           0       -3.307165   -1.341796    0.715624
     12          6           0       -2.523936   -2.276966    1.879674
     13          6           0       -1.070871   -1.866159    1.976501
     14          6           0       -0.504942   -0.994546    2.906231
     15          6           0        0.851288   -0.796883    2.591792
     16          6           0        1.015192   -1.672407    1.466284
     17          6           0       -4.661480   -2.026911    0.388507
     18          6           0        1.859339    0.011886    3.217727
     19          6           0       -4.595856   -2.308747   -0.936735
     20          6           0        2.110459   -1.681244    0.515064
     21          6           0        2.141288   -0.786641   -0.598303
     22          6           0       -3.458436   -1.799442   -1.516538
     23          6           0        3.060668   -0.662529   -1.719170
     24          6           0       -1.333615   -0.144366    3.948622
     25          6           0       -5.699135   -2.156493    1.402996
     26          6           0        2.474536    0.339087   -2.475102
     27          6           0        1.936526    1.512362    2.635799
     28          6           0        1.431146    0.880984   -1.834021
     29          6           0        4.269654   -1.609309   -2.003345
     30          6           0       -5.704886   -2.915791   -1.707987
     31          6           0        5.516562   -1.199671   -1.136116
     32          6           0        3.245687    0.969727   -3.669466
     33          6           0        0.423099    1.884565   -2.232593
     34          6           0        2.914866    2.332213    3.221962
     35          6           0       -0.697073    2.203601   -1.395722
     36          6           0       -6.763172   -3.675710   -1.395400
     37          6           0        6.614466   -2.246790   -1.186353
     38          6           0       -1.579910    3.400987   -1.555850
     39          6           0       -2.437533    3.339561   -0.494893
     40          6           0       -2.102771    2.130343    0.301735
     41          6           0       -1.461903    4.310970   -2.609427
     42          6           0       -3.465157    4.232391   -0.052062
     43          6           0       -2.385538    5.326204   -2.883392
     44          1           0       -3.180300   -0.369554    1.245902
     45          1           0       -2.512448   -3.244585    1.498315
     46          1           0       -2.978050   -2.227333    2.754633
     47          1           0       -0.131031   -2.909840    0.266703
     48          1           0       -2.047269   -0.576591   -0.582244
     49          1           0        1.941662    0.206288    4.343024
     50          1           0        2.859054   -0.469405    2.875803
     51          1           0        3.052454   -2.444362    0.722732
     52          1           0       -2.172455   -0.768890    4.275224
     53          1           0       -0.636843    0.224118    4.634548
     54          1           0       -1.599224    0.782914    3.483376
     55          1           0       -5.402815   -1.651254    2.537402
     56          1           0       -6.244845   -3.107940    1.881438
     57          1           0       -6.648693   -1.699199    1.074585
     58          1           0        1.934528    1.622603    1.519370
     59          1           0        0.939620    2.117104    2.933958
     60          1           0        0.345563    0.291716   -0.164500
     61          1           0        4.442903   -1.424219   -2.961237
     62          1           0        4.092402   -2.571371   -1.718147
     63          1           0       -5.568661   -2.612328   -2.657125
     64          1           0        5.358834   -0.911597    0.024861
     65          1           0        5.966047   -0.288077   -1.509199
     66          1           0        3.803770    0.119171   -3.919436
     67          1           0        3.838830    1.794730   -3.487787
     68          1           0        2.509405    1.173185   -4.461890
     69          1           0        0.547903    2.475088   -3.302827
     70          1           0       -6.866738   -4.069661   -0.470303
     71          1           0       -7.186884   -3.992078   -2.265394
     72          1           0        3.301881    4.193161    3.421403
     73          1           0       -0.416474    4.111137   -3.061044
     74          1           0       -4.351143    4.494393   -0.762854
     75          1           0       -3.974433    3.894988    0.829824
     76          1           0       -2.928457    5.097993    0.115088
     77          1           0        8.531364   -2.344512   -0.931275
     78          1           0       -2.220974    6.064438   -3.660626
     79          1           0       -3.378469    5.244914   -2.400636
 ---------------------------------------------------------------------

 SCF Done:  E(RB3LYP) =  -1947.82527447     A.U. after   20 cycles

 Excitation energies and oscillator strengths:

 Excited State   1:      Singlet-A      0.8185 eV 1514.85 nm  f=0.0005  <S**2>=0.000
     155 ->156         0.70290
 This state for optimization and/or second-order correction.
 Total Energy, E(TD-HF/TD-DFT) =  -1947.79519659
 Copying the excited state density for this state as the 1-particle RhoCI density.

 The electronic state is 1-A.
 Alpha  occ. eigenvalues --  -19.19945 -19.17613 -19.13393 -19.12725 -19.12014
 Alpha  occ. eigenvalues --  -19.08298 -14.37953 -14.37412 -14.31895 -14.30810
 Alpha  occ. eigenvalues --  -10.34016 -10.31516 -10.28018 -10.26481 -10.26402
 Alpha  occ. eigenvalues --  -10.26092 -10.25169 -10.24431 -10.24131 -10.23974
 Alpha  occ. eigenvalues --  -10.22786 -10.22307 -10.22219 -10.21837 -10.21591
 Alpha  occ. eigenvalues --  -10.21311 -10.21298 -10.21027 -10.20957 -10.20773
 Alpha  occ. eigenvalues --  -10.20735 -10.20589 -10.20325 -10.20199 -10.20058
 Alpha  occ. eigenvalues --  -10.18629 -10.17951 -10.17761 -10.17678 -10.17651
 Alpha  occ. eigenvalues --  -10.17029 -10.16896 -10.16603  -1.10925  -1.07051
 Alpha  occ. eigenvalues --   -1.01385  -1.00846  -0.99804  -0.98841  -0.98566
 Alpha  occ. eigenvalues --   -0.98451  -0.93693  -0.93320  -0.84833  -0.82300
 Alpha  occ. eigenvalues --   -0.82019  -0.81493  -0.80808  -0.79675  -0.78055
 Alpha  occ. eigenvalues --   -0.77056  -0.76366  -0.75531  -0.74046  -0.73608
 Alpha  occ. eigenvalues --   -0.72137  -0.71751  -0.70578  -0.70213  -0.68329
 Alpha  occ. eigenvalues --   -0.67673  -0.65472  -0.63400  -0.62738  -0.61341
 Alpha  occ. eigenvalues --   -0.61207  -0.59303  -0.58817  -0.57617  -0.57145
 Alpha  occ. eigenvalues --   -0.57041  -0.55567  -0.55209  -0.53595  -0.53312
 Alpha  occ. eigenvalues --   -0.52670  -0.52411  -0.51814  -0.50683  -0.50339
 Alpha  occ. eigenvalues --   -0.49459  -0.49034  -0.48606  -0.48031  -0.47638
 Alpha  occ. eigenvalues --   -0.47280  -0.47119  -0.46938  -0.46761  -0.46134
 Alpha  occ. eigenvalues --   -0.45929  -0.45613  -0.45012  -0.44372  -0.44205
 Alpha  occ. eigenvalues --   -0.43853  -0.43420  -0.43145  -0.42570  -0.42394
 Alpha  occ. eigenvalues --   -0.41976  -0.41622  -0.41410  -0.41249  -0.40981
 Alpha  occ. eigenvalues --   -0.40539  -0.40481  -0.40338  -0.40217  -0.39837
 Alpha  occ. eigenvalues --   -0.39526  -0.39309  -0.39212  -0.38845  -0.38643
 Alpha  occ. eigenvalues --   -0.38110  -0.37829  -0.37542  -0.37147  -0.36858
 Alpha  occ. eigenvalues --   -0.36517  -0.35633  -0.35411  -0.35177  -0.34852
 Alpha  occ. eigenvalues --   -0.34354  -0.32803  -0.32549  -0.32182  -0.31658
 Alpha  occ. eigenvalues --   -0.31323  -0.29440  -0.29345  -0.29158  -0.28850
 Alpha  occ. eigenvalues --   -0.28056  -0.27884  -0.25898  -0.24226  -0.23976
 Alpha  occ. eigenvalues --   -0.23248  -0.22987  -0.22796  -0.21759  -0.18903
 Alpha virt. eigenvalues --   -0.13213  -0.08358  -0.05050  -0.02765  -0.02168
 Alpha virt. eigenvalues --   -0.01004   0.01228   0.01648   0.01960   0.03278
 Alpha virt. eigenvalues --    0.03752   0.04307   0.04411   0.04448   0.04986

 Mulliken charges:
               1
     1  O   -0.263633
     2  O   -0.261499
     3  O   -0.255095
     4  O   -0.167242
     5  O   -0.283169
     6  O   -0.248379
     7  N   -0.016500
     8  N   -0.121610
     9  N   -0.042772
    10  N   -0.310203
    11  C   -0.060257
    12  C    0.350740
    13  C   -0.158582
    14  C   -0.174795
    15  C   -0.005914
    16  C   -0.068553
    17  C   -0.030310
    18  C    0.057991
    19  C   -0.030609
    20  C   -0.168481
    21  C    0.077637
    22  C    0.134503
    23  C   -0.108398
    24  C    0.172201
    25  C   -0.058519
    26  C   -0.189149
    27  C   -0.071569
    28  C    0.116495
    29  C    0.316069
    30  C   -0.002633
    31  C   -0.076204
    32  C    0.161386
    33  C   -0.136393
    34  C    0.162674
    35  C    0.089210
    36  C    0.077310
    37  C    0.147580
    38  C    0.058823
    39  C   -0.194774
    40  C    0.194442
    41  C   -0.049118
    42  C    0.098942
    43  C   -0.017316
    44  H    0.060481
    45  H   -0.064478
    46  H   -0.065115
    47  H    0.143751
    48  H    0.101831
    49  H    0.037513
    50  H    0.011232
    51  H    0.055685
    52  H    0.015094
    53  H   -0.029538
    54  H    0.020361
    55  H    0.043296
    56  H    0.051161
    57  H    0.040081
    58  H    0.049366
    59  H    0.070515
    60  H    0.158312
    61  H   -0.037283
    62  H    0.005471
    63  H   -0.040922
    64  H    0.086478
    65  H    0.028799
    66  H   -0.014416
    67  H    0.031765
    68  H    0.025257
    69  H    0.044539
    70  H   -0.028645
    71  H    0.003629
    72  H    0.205732
    73  H    0.004466
    74  H    0.044198
    75  H    0.015223
    76  H    0.015259
    77  H    0.202509
    78  H    0.031128
    79  H    0.032943
 Sum of Mulliken charges =  -0.00000

 Dipole moment (field-independent basis, Debye):
    X=              3.9217    Y=              2.9282    Z=             -1.3119  Tot=              5.0671
 Quadrupole moment (field-independent basis, Debye-Ang):
   XX=           -227.3632   YY=           -245.1691   ZZ=           -263.5989
   XY=              3.3536   XZ=            -27.6966   YZ=            -15.1080

 Normal termination of Gaussian 16 at Fri Jul 26 20:48:46 2019.
