 Gaussian 16, Revision A.03,
 Gaussian 16:  ES64L-G16RevA.03 25-Dec-2016

 --------------------------
 # td=(NStates=1) B3LYP/SVP
 --------------------------

 --
 TD
 --
 Symbolic Z-matrix:
 Charge =  0 Multiplicity = 1

                         Standard orientation:
 ---------------------------------------------------------------------
 Center     Atomic      Atomic             Coordinates (Angstroms)
 Number     Number       Type             X           Y           Z
 ---------------------------------------------------------------------
      1          8           0        5.419117   -0.102809   -3.281570
      2          8           0       -3.093779   -2.926484    3.183174
      3          8           0       -3.347992   -0.683000    2.979616
      4          8           0       -1.284137    7.157031    1.678710
      5          8           0       -0.254816    7.022444   -0.369410
      6          8           0       -1.976001   -3.929138    0.108058
      7          7           0        2.353062    0.865537    0.590136
      8          7           0        4.326532   -0.712406   -1.327238
      9          7           0       -1.812148    0.702869   -0.486101
     10          7           0       -2.729225   -1.716959   -0.419072
     11          6           0        4.786597   -1.314885   -0.019580
     12          6           0        4.327761   -0.483811    1.345463
     13          6           0        2.864433   -0.188358    1.275678
     14          6           0        1.948023   -0.818495    2.099838
     15          6           0        0.665607   -0.132300    1.813624
     16          6           0        1.039186    0.891583    0.926130
     17          6           0        6.336944   -1.405687   -0.191001
     18          6           0       -0.662772   -0.349758    2.429705
     19          6           0        6.721560   -0.918658   -1.410737
     20          6           0        0.215245    1.899958    0.322197
     21          6           0       -1.003772    1.934884   -0.294215
     22          6           0        5.467602   -0.526198   -2.212900
     23          6           0       -1.834927    2.947567   -0.820460
     24          6           0        2.127132   -2.026939    3.036184
     25          6           0        7.169478   -2.120684    0.798732
     26          6           0       -2.977258    2.492174   -1.386715
     27          6           0       -1.212503   -1.703201    2.529108
     28          6           0       -3.037642    1.070315   -1.184246
     29          6           0       -1.331266    4.311153   -0.761825
     30          6           0        8.062954   -0.882134   -1.981115
     31          6           0       -1.632259    5.117172    0.429562
     32          6           0       -4.230964    3.148183   -2.054126
     33          6           0       -3.965413    0.052211   -1.335824
     34          6           0       -2.687401   -1.720734    2.914890
     35          6           0       -3.835034   -1.358051   -1.084266
     36          6           0        9.367887   -0.915819   -1.400715
     37          6           0       -1.022428    6.537155    0.510352
     38          6           0       -4.731815   -2.403133   -1.502277
     39          6           0       -4.121244   -3.644555   -1.048451
     40          6           0       -2.870344   -3.206180   -0.455523
     41          6           0       -5.976449   -2.236896   -2.189961
     42          6           0       -4.611865   -5.025607   -1.210759
     43          6           0       -6.933488   -3.147670   -2.529068
     44          1           0        4.455182   -2.210585   -0.005117
     45          1           0        4.790905    0.442249    1.475761
     46          1           0        4.763853   -1.078083    2.338933
     47          1           0        2.895706    1.528184   -0.049527
     48          1           0        3.356371   -0.839641   -1.663435
     49          1           0       -0.480394    0.084377    3.412231
     50          1           0       -1.392297    0.275524    1.991879
     51          1           0        0.654019    3.009911    0.285702
     52          1           0        3.192613   -2.347357    3.086233
     53          1           0        1.958415   -1.797862    3.997439
     54          1           0        1.298415   -2.843256    2.784099
     55          1           0        6.559078   -2.789702    1.324114
     56          1           0        7.626115   -1.205009    1.577507
     57          1           0        8.086919   -2.559387    0.289483
     58          1           0       -1.133475   -2.160276    1.596881
     59          1           0       -0.592915   -2.347303    3.078843
     60          1           0       -1.585360   -0.310486   -0.316924
     61          1           0       -1.885600    5.033015   -1.504718
     62          1           0       -0.203567    4.102086   -1.167978
     63          1           0        7.894535   -0.307547   -2.910924
     64          1           0       -1.180703    4.708143    1.317868
     65          1           0       -2.710549    5.170495    0.510258
     66          1           0       -4.011525    4.244653   -2.374844
     67          1           0       -4.930742    3.246302   -1.148183
     68          1           0       -4.762380    2.521156   -2.865601
     69          1           0       -4.936440    0.442425   -1.640661
     70          1           0        9.336735   -1.144718   -0.359430
     71          1           0       10.282918   -0.852069   -1.913437
     72          1           0       -4.091316   -2.954654    3.458587
     73          1           0       -6.184432   -1.314274   -2.434995
     74          1           0       -5.496912   -5.206813   -0.590153
     75          1           0       -4.809821   -5.293734   -2.161797
     76          1           0       -3.914195   -5.686362   -0.778007
     77          1           0       -0.926131    8.067266    1.466348
     78          1           0       -8.122278   -2.805765   -2.804119
     79          1           0       -6.996798   -4.334139   -2.341226
 ---------------------------------------------------------------------

 SCF Done:  E(RB3LYP) =  -1947.82299015     A.U. after   17 cycles

 Excitation energies and oscillator strengths:

 Excited State   1:      Singlet-A      1.7725 eV  699.50 nm  f=0.3225  <S**2>=0.000
     153 ->156         0.10737
     155 ->156         0.69484
     155 <-156        -0.11472
 This state for optimization and/or second-order correction.
 Total Energy, E(TD-HF/TD-DFT) =  -1947.75785335
 Copying the excited state density for this state as the 1-particle RhoCI density.

 The electronic state is 1-A.
 Alpha  occ. eigenvalues --  -19.20311 -19.18194 -19.13432 -19.11185 -19.10750
 Alpha  occ. eigenvalues --  -19.10132 -14.38622 -14.34564 -14.34273 -14.29590
 Alpha  occ. eigenvalues --  -10.33454 -10.30200 -10.28904 -10.26979 -10.24157
 Alpha  occ. eigenvalues --  -10.24006 -10.23670 -10.23170 -10.22753 -10.22541
 Alpha  occ. eigenvalues --  -10.22384 -10.22345 -10.22263 -10.22203 -10.22132
 Alpha  occ. eigenvalues --  -10.21930 -10.21636 -10.21584 -10.21454 -10.21388
 Alpha  occ. eigenvalues --  -10.21001 -10.20887 -10.20723 -10.20350 -10.20042
 Alpha  occ. eigenvalues --  -10.20037 -10.19441 -10.19025 -10.19002 -10.18810
 Alpha  occ. eigenvalues --  -10.18103 -10.16772 -10.16312  -1.10324  -1.08677
 Alpha  occ. eigenvalues --   -1.06180  -0.99287  -0.99018  -0.98446  -0.98044
 Alpha  occ. eigenvalues --   -0.94053  -0.91205  -0.90903  -0.83342  -0.81371
 Alpha  occ. eigenvalues --   -0.81214  -0.80902  -0.80435  -0.78504  -0.77976
 Alpha  occ. eigenvalues --   -0.76768  -0.76267  -0.75504  -0.73641  -0.71996
 Alpha  occ. eigenvalues --   -0.70934  -0.70723  -0.70455  -0.68629  -0.67661
 Alpha  occ. eigenvalues --   -0.67047  -0.66026  -0.64485  -0.61347  -0.60941
 Alpha  occ. eigenvalues --   -0.60177  -0.59295  -0.58010  -0.57097  -0.56551
 Alpha  occ. eigenvalues --   -0.56170  -0.55164  -0.54266  -0.53070  -0.52642
 Alpha  occ. eigenvalues --   -0.51668  -0.51305  -0.50480  -0.49917  -0.49636
 Alpha  occ. eigenvalues --   -0.49435  -0.49159  -0.48677  -0.48006  -0.47216
 Alpha  occ. eigenvalues --   -0.46825  -0.46393  -0.46263  -0.46055  -0.44962
 Alpha  occ. eigenvalues --   -0.44651  -0.44432  -0.44309  -0.44194  -0.43937
 Alpha  occ. eigenvalues --   -0.43350  -0.43268  -0.43011  -0.42513  -0.42174
 Alpha  occ. eigenvalues --   -0.41916  -0.41547  -0.41477  -0.41189  -0.41115
 Alpha  occ. eigenvalues --   -0.40880  -0.40757  -0.40663  -0.40312  -0.39890
 Alpha  occ. eigenvalues --   -0.39737  -0.39325  -0.39003  -0.38852  -0.38410
 Alpha  occ. eigenvalues --   -0.38201  -0.37784  -0.37629  -0.36790  -0.36458
 Alpha  occ. eigenvalues --   -0.36266  -0.34976  -0.34412  -0.34175  -0.34000
 Alpha  occ. eigenvalues --   -0.33357  -0.33108  -0.32657  -0.32144  -0.31009
 Alpha  occ. eigenvalues --   -0.30655  -0.30369  -0.28588  -0.28399  -0.28294
 Alpha  occ. eigenvalues --   -0.26736  -0.26127  -0.25924  -0.25282  -0.24038
 Alpha  occ. eigenvalues --   -0.23703  -0.23225  -0.22738  -0.22084  -0.18810
 Alpha virt. eigenvalues --   -0.11652  -0.07268  -0.06286  -0.01554  -0.01255
 Alpha virt. eigenvalues --    0.00429   0.01417   0.02613   0.02756   0.02995
 Alpha virt. eigenvalues --    0.03770   0.04065   0.04179   0.04528   0.05023

 Mulliken charges:
               1
     1  O   -0.129461
     2  O   -0.165912
     3  O   -0.260649
     4  O   -0.177735
     5  O   -0.274292
     6  O   -0.253418
     7  N   -0.050723
     8  N   -0.311489
     9  N   -0.234742
    10  N   -0.313483
    11  C    0.215237
    12  C    0.113925
    13  C   -0.073553
    14  C   -0.160189
    15  C   -0.110735
    16  C    0.074925
    17  C   -0.195778
    18  C    0.164173
    19  C   -0.089132
    20  C   -0.124118
    21  C    0.106087
    22  C    0.166736
    23  C   -0.039007
    24  C    0.135635
    25  C    0.051279
    26  C   -0.077270
    27  C    0.056459
    28  C    0.105651
    29  C   -0.041050
    30  C   -0.031742
    31  C    0.079279
    32  C    0.034716
    33  C   -0.105754
    34  C    0.137240
    35  C    0.127174
    36  C   -0.006987
    37  C    0.137694
    38  C    0.051533
    39  C   -0.192642
    40  C    0.184372
    41  C    0.076138
    42  C    0.194386
    43  C   -0.134272
    44  H   -0.045362
    45  H   -0.023399
    46  H    0.035511
    47  H    0.152932
    48  H    0.140922
    49  H   -0.003166
    50  H   -0.008946
    51  H    0.006870
    52  H   -0.009303
    53  H   -0.020527
    54  H    0.065268
    55  H    0.015810
    56  H    0.058687
    57  H    0.056888
    58  H    0.017824
    59  H   -0.018787
    60  H    0.165739
    61  H    0.016701
    62  H    0.062114
    63  H    0.019477
    64  H    0.026764
    65  H    0.035995
    66  H    0.034146
    67  H    0.047924
    68  H    0.058879
    69  H   -0.036872
    70  H    0.003817
    71  H    0.030101
    72  H    0.209585
    73  H   -0.075675
    74  H    0.016646
    75  H    0.008050
    76  H   -0.003857
    77  H    0.196170
    78  H    0.052586
    79  H    0.051985
 Sum of Mulliken charges =  -0.00000

 Dipole moment (field-independent basis, Debye):
    X=             -1.3933    Y=              1.0188    Z=              3.0500  Tot=              3.5045
 Quadrupole moment (field-independent basis, Debye-Ang):
   XX=           -215.4589   YY=           -239.2244   ZZ=           -262.5261
   XY=             -6.0158   XZ=             31.0081   YZ=              2.5297

 Normal termination of Gaussian 16 at Thu Sep 26 19:34:31 2019.
