 Gaussian 16, Revision A.03,
 Gaussian 16:  ES64L-G16RevA.03 25-Dec-2016

 --------------------------
 # td=(NStates=1) B3LYP/SVP
 --------------------------

 --
 TD
 --
 Symbolic Z-matrix:
 Charge =  0 Multiplicity = 1

                         Standard orientation:
 ---------------------------------------------------------------------
 Center     Atomic      Atomic             Coordinates (Angstroms)
 Number     Number       Type             X           Y           Z
 ---------------------------------------------------------------------
      1          8           0       -3.436735   -1.092405   -2.916558
      2          8           0        3.292542    2.973427    3.073509
      3          8           0        3.814661    1.198304    4.355551
      4          8           0        7.726067   -1.460055   -0.920036
      5          8           0        6.608371   -3.186570   -1.840754
      6          8           0       -2.561890    1.533737    1.578503
      7          7           0       -0.359620   -2.437115    0.732268
      8          7           0       -2.733898   -1.150087   -0.683452
      9          7           0        1.058770   -0.042509   -0.831563
     10          7           0       -0.910175    1.435004   -0.108228
     11          6           0       -3.417369   -1.281619    0.574982
     12          6           0       -2.738808   -2.321747    1.526193
     13          6           0       -1.271542   -2.169342    1.604899
     14          6           0       -0.627963   -1.278863    2.694366
     15          6           0        0.761910   -1.191793    2.385544
     16          6           0        0.864527   -1.898841    1.134732
     17          6           0       -4.857443   -1.810581    0.309244
     18          6           0        1.870747   -0.543777    3.170478
     19          6           0       -4.852253   -1.960852   -1.110134
     20          6           0        1.954118   -1.988584    0.198087
     21          6           0        2.089593   -0.932388   -0.754822
     22          6           0       -3.632946   -1.326356   -1.738370
     23          6           0        3.102392   -0.569903   -1.804005
     24          6           0       -1.312751   -0.632399    3.745082
     25          6           0       -5.819336   -2.159587    1.312249
     26          6           0        2.628976    0.532489   -2.431493
     27          6           0        2.034184    0.997318    2.708533
     28          6           0        1.399131    0.942724   -1.813558
     29          6           0        4.294053   -1.364934   -2.047851
     30          6           0       -5.906123   -2.404140   -1.975747
     31          6           0        5.378075   -1.175628   -1.157006
     32          6           0        3.348925    1.270629   -3.621770
     33          6           0        0.607129    2.162400   -1.942381
     34          6           0        3.119845    1.772022    3.447250
     35          6           0       -0.499647    2.303567   -1.033665
     36          6           0       -6.988487   -3.140553   -1.805346
     37          6           0        6.593968   -1.985551   -1.354977
     38          6           0       -1.424326    3.472920   -1.104284
     39          6           0       -2.291960    3.317769   -0.083611
     40          6           0       -1.925557    2.008440    0.592009
     41          6           0       -1.218734    4.655732   -2.036862
     42          6           0       -3.383962    4.291190    0.394911
     43          6           0       -1.993985    5.891703   -1.903665
     44          1           0       -3.341219   -0.305258    1.205967
     45          1           0       -2.879979   -3.394156    1.203099
     46          1           0       -3.141709   -2.285154    2.494054
     47          1           0       -0.707094   -2.685645   -0.195054
     48          1           0       -2.143348   -0.266027   -0.572077
     49          1           0        1.957133   -0.531923    4.441475
     50          1           0        2.734061   -1.161864    2.790706
     51          1           0        2.691067   -2.749846    0.166343
     52          1           0       -2.373924   -1.191600    4.285661
     53          1           0       -0.591578   -0.403089    4.606158
     54          1           0       -1.818350    0.228901    3.301979
     55          1           0       -5.465030   -1.296773    2.078618
     56          1           0       -5.921296   -3.201772    1.806096
     57          1           0       -6.856098   -1.826753    0.855878
     58          1           0        2.322586    1.054394    1.727956
     59          1           0        1.020742    1.486621    2.854842
     60          1           0        0.126633    0.049670   -0.421912
     61          1           0        4.425258   -0.981747   -3.141068
     62          1           0        3.958928   -2.408501   -2.033712
     63          1           0       -5.767638   -1.957308   -3.076474
     64          1           0        5.282338   -1.562540    0.070199
     65          1           0        5.776635   -0.158981   -1.070814
     66          1           0        3.978040    0.573386   -4.435358
     67          1           0        4.012263    2.284417   -3.209220
     68          1           0        2.495002    1.706495   -4.153295
     69          1           0        0.839196    2.774652   -2.715918
     70          1           0       -7.250013   -3.722798   -0.913539
     71          1           0       -7.716186   -3.291370   -2.458040
     72          1           0        4.060994    3.255624    3.404303
     73          1           0       -0.624658    4.726165   -2.934469
     74          1           0       -4.457236    4.326793   -0.251732
     75          1           0       -3.608312    3.922057    1.522924
     76          1           0       -3.097521    5.463926    0.315546
     77          1           0        8.200159   -2.421000   -0.829158
     78          1           0       -1.622744    6.611743   -2.555857
     79          1           0       -2.733052    6.081907   -1.043056
 ---------------------------------------------------------------------

 SCF Done:  E(RB3LYP) =  -1947.75522864     A.U. after   21 cycles

 Excitation energies and oscillator strengths:

 Excited State   1:      Singlet-A      0.5262 eV 2356.20 nm  f=0.0045  <S**2>=0.000
     155 ->156         0.70468
 This state for optimization and/or second-order correction.
 Total Energy, E(TD-HF/TD-DFT) =  -1947.73589098
 Copying the excited state density for this state as the 1-particle RhoCI density.

 The electronic state is 1-A.
 Alpha  occ. eigenvalues --  -19.20870 -19.20067 -19.12819 -19.12706 -19.11163
 Alpha  occ. eigenvalues --  -19.09533 -14.37849 -14.37681 -14.33933 -14.31896
 Alpha  occ. eigenvalues --  -10.33532 -10.32019 -10.29212 -10.27724 -10.27646
 Alpha  occ. eigenvalues --  -10.26124 -10.25945 -10.25330 -10.24416 -10.23552
 Alpha  occ. eigenvalues --  -10.23470 -10.22978 -10.22937 -10.22670 -10.22658
 Alpha  occ. eigenvalues --  -10.22481 -10.21879 -10.21841 -10.21814 -10.21644
 Alpha  occ. eigenvalues --  -10.21558 -10.21278 -10.21082 -10.20914 -10.20256
 Alpha  occ. eigenvalues --  -10.19976 -10.19136 -10.18983 -10.18953 -10.18503
 Alpha  occ. eigenvalues --  -10.18153 -10.17069 -10.16813  -1.14567  -1.11130
 Alpha  occ. eigenvalues --   -1.01976  -1.01418  -0.99412  -0.98140  -0.97599
 Alpha  occ. eigenvalues --   -0.97587  -0.94869  -0.92581  -0.86222  -0.82505
 Alpha  occ. eigenvalues --   -0.80935  -0.80640  -0.80263  -0.79803  -0.78256
 Alpha  occ. eigenvalues --   -0.76655  -0.76190  -0.74976  -0.74201  -0.73273
 Alpha  occ. eigenvalues --   -0.70927  -0.70408  -0.70059  -0.69690  -0.68191
 Alpha  occ. eigenvalues --   -0.66577  -0.65522  -0.63546  -0.62573  -0.60763
 Alpha  occ. eigenvalues --   -0.60642  -0.60296  -0.59929  -0.57624  -0.56390
 Alpha  occ. eigenvalues --   -0.55633  -0.55227  -0.54722  -0.54166  -0.53016
 Alpha  occ. eigenvalues --   -0.52409  -0.52014  -0.51309  -0.50694  -0.49999
 Alpha  occ. eigenvalues --   -0.49761  -0.49637  -0.49218  -0.49055  -0.48698
 Alpha  occ. eigenvalues --   -0.48225  -0.47859  -0.46731  -0.46444  -0.46153
 Alpha  occ. eigenvalues --   -0.45619  -0.45020  -0.44463  -0.44330  -0.43964
 Alpha  occ. eigenvalues --   -0.43597  -0.43372  -0.42906  -0.42642  -0.42364
 Alpha  occ. eigenvalues --   -0.42284  -0.41991  -0.41887  -0.41115  -0.40901
 Alpha  occ. eigenvalues --   -0.40745  -0.40656  -0.40519  -0.40059  -0.39998
 Alpha  occ. eigenvalues --   -0.39394  -0.38588  -0.38383  -0.38185  -0.37908
 Alpha  occ. eigenvalues --   -0.37774  -0.37363  -0.37044  -0.36935  -0.36318
 Alpha  occ. eigenvalues --   -0.35889  -0.35720  -0.35399  -0.35217  -0.34001
 Alpha  occ. eigenvalues --   -0.33526  -0.31694  -0.31554  -0.31170  -0.30993
 Alpha  occ. eigenvalues --   -0.30378  -0.30322  -0.29522  -0.29346  -0.28450
 Alpha  occ. eigenvalues --   -0.27596  -0.26667  -0.26584  -0.25904  -0.24677
 Alpha  occ. eigenvalues --   -0.23946  -0.23397  -0.22672  -0.22228  -0.17615
 Alpha virt. eigenvalues --   -0.13203  -0.08159  -0.05179  -0.03452  -0.02884
 Alpha virt. eigenvalues --    0.00165   0.01077   0.01499   0.01601   0.02161
 Alpha virt. eigenvalues --    0.02389   0.03005   0.04008   0.04383   0.04588

 Mulliken charges:
               1
     1  O   -0.218021
     2  O   -0.030491
     3  O   -0.308790
     4  O   -0.193484
     5  O   -0.328359
     6  O   -0.257183
     7  N    0.016845
     8  N   -0.227988
     9  N   -0.097332
    10  N   -0.297212
    11  C   -0.037562
    12  C    0.249090
    13  C   -0.178804
    14  C   -0.127278
    15  C    0.005882
    16  C   -0.016705
    17  C   -0.076883
    18  C    0.009386
    19  C   -0.082172
    20  C   -0.095288
    21  C    0.077297
    22  C    0.163803
    23  C   -0.079059
    24  C   -0.018844
    25  C   -0.024618
    26  C   -0.105846
    27  C    0.024813
    28  C    0.082064
    29  C    0.156399
    30  C   -0.032883
    31  C   -0.008461
    32  C   -0.032092
    33  C   -0.017850
    34  C    0.097476
    35  C    0.107617
    36  C   -0.009269
    37  C    0.130760
    38  C    0.067406
    39  C   -0.145780
    40  C    0.193115
    41  C   -0.060923
    42  C   -0.071930
    43  C   -0.013922
    44  H    0.079587
    45  H   -0.022334
    46  H   -0.034588
    47  H    0.128875
    48  H    0.177226
    49  H    0.071637
    50  H    0.004966
    51  H   -0.015392
    52  H    0.006257
    53  H    0.023679
    54  H    0.043696
    55  H    0.048510
    56  H    0.078083
    57  H    0.057545
    58  H    0.003290
    59  H    0.062116
    60  H    0.178553
    61  H    0.029314
    62  H    0.031922
    63  H    0.035090
    64  H    0.092393
    65  H    0.025634
    66  H    0.081409
    67  H    0.070132
    68  H    0.037692
    69  H   -0.066133
    70  H   -0.002179
    71  H   -0.022295
    72  H    0.131736
    73  H    0.006945
    74  H    0.065420
    75  H    0.064829
    76  H    0.057633
    77  H    0.229164
    78  H    0.013312
    79  H    0.039350
 Sum of Mulliken charges =  -0.00000

 Dipole moment (field-independent basis, Debye):
    X=              3.1502    Y=              3.9360    Z=             -1.8413  Tot=              5.3672
 Quadrupole moment (field-independent basis, Debye-Ang):
   XX=           -240.7329   YY=           -239.1399   ZZ=           -275.2300
   XY=             13.0251   XZ=            -20.6465   YZ=            -13.7069

 Normal termination of Gaussian 16 at Thu Jul 25 03:55:33 2019.
