 Gaussian 16, Revision A.03,
 Gaussian 16:  ES64L-G16RevA.03 25-Dec-2016

 --------------------------
 # td=(NStates=1) B3LYP/SVP
 --------------------------

 --
 TD
 --
 Symbolic Z-matrix:
 Charge =  0 Multiplicity = 1

                         Standard orientation:
 ---------------------------------------------------------------------
 Center     Atomic      Atomic             Coordinates (Angstroms)
 Number     Number       Type             X           Y           Z
 ---------------------------------------------------------------------
      1          8           0        5.314031   -0.039311   -3.295460
      2          8           0       -2.960690   -2.794364    3.447085
      3          8           0       -3.463493   -0.608169    2.983460
      4          8           0       -1.502413    7.085069    1.552828
      5          8           0       -0.726394    7.016130   -0.628828
      6          8           0       -1.587489   -3.985064    0.206371
      7          7           0        2.321657    1.009185    0.636746
      8          7           0        4.356491   -0.487647   -1.180374
      9          7           0       -1.823149    0.669754   -0.441261
     10          7           0       -2.489464   -1.925246   -0.497015
     11          6           0        4.726191   -1.116918    0.083273
     12          6           0        4.250970   -0.260100    1.196317
     13          6           0        2.923027    0.066689    1.390903
     14          6           0        1.858914   -0.591544    2.108810
     15          6           0        0.649453   -0.069855    1.800381
     16          6           0        0.950183    0.925000    0.830510
     17          6           0        6.214195   -1.288553   -0.112973
     18          6           0       -0.642086   -0.176825    2.631903
     19          6           0        6.514634   -0.888608   -1.375348
     20          6           0        0.162598    1.923484    0.125877
     21          6           0       -1.143300    1.880806   -0.395100
     22          6           0        5.292259   -0.472560   -2.149388
     23          6           0       -1.982224    2.795020   -0.986503
     24          6           0        2.126556   -1.744620    3.099532
     25          6           0        7.089416   -1.922042    0.991072
     26          6           0       -3.131904    2.246014   -1.399352
     27          6           0       -1.161190   -1.562820    2.613323
     28          6           0       -2.962204    0.869008   -1.074846
     29          6           0       -1.677256    4.318921   -1.083823
     30          6           0        7.842055   -0.696192   -2.066685
     31          6           0       -1.885533    5.107744    0.284435
     32          6           0       -4.393702    2.863441   -1.879098
     33          6           0       -3.911969   -0.138577   -1.319365
     34          6           0       -2.641687   -1.566014    3.076686
     35          6           0       -3.540429   -1.566138   -1.103141
     36          6           0        9.031576   -0.705783   -1.456943
     37          6           0       -1.246926    6.523557    0.319955
     38          6           0       -4.408353   -2.658871   -1.479637
     39          6           0       -3.740009   -3.843407   -1.044948
     40          6           0       -2.537898   -3.390715   -0.384784
     41          6           0       -5.642722   -2.511655   -2.143240
     42          6           0       -3.950153   -5.261227   -1.235111
     43          6           0       -6.428738   -3.581242   -2.685070
     44          1           0        4.084278   -2.035464    0.186354
     45          1           0        4.810327    0.638801    1.215535
     46          1           0        4.717331   -0.473063    2.290259
     47          1           0        2.704036    1.610194   -0.086272
     48          1           0        3.276379   -0.393818   -1.599603
     49          1           0       -0.604128   -0.043280    3.686260
     50          1           0       -1.284125    0.734537    2.285450
     51          1           0        0.739265    2.863262   -0.072761
     52          1           0        3.000338   -2.009746    3.530254
     53          1           0        1.506651   -1.608400    3.923994
     54          1           0        1.812790   -2.674027    2.640963
     55          1           0        6.526016   -2.653587    1.609285
     56          1           0        7.595961   -1.216428    1.484875
     57          1           0        7.825708   -2.458422    0.380926
     58          1           0       -1.107877   -2.036994    1.591831
     59          1           0       -0.402796   -2.194069    3.260174
     60          1           0       -1.555919   -0.297364   -0.289702
     61          1           0       -2.333624    4.794083   -1.777701
     62          1           0       -0.566369    4.472243   -1.105919
     63          1           0        7.670717   -0.443269   -3.060363
     64          1           0       -1.626179    4.575044    1.173352
     65          1           0       -2.895931    5.381721    0.408269
     66          1           0       -4.518460    3.966817   -1.788189
     67          1           0       -5.167289    2.604825   -1.120851
     68          1           0       -4.705043    2.226622   -2.767726
     69          1           0       -5.008296    0.213599   -1.808803
     70          1           0        9.066313   -0.794249   -0.283966
     71          1           0       10.000801   -0.610064   -1.934244
     72          1           0       -3.800526   -2.744825    3.674162
     73          1           0       -5.832201   -1.521841   -2.440019
     74          1           0       -4.801944   -5.673319   -0.715089
     75          1           0       -4.021625   -5.725210   -2.327540
     76          1           0       -3.217846   -5.638218   -0.728078
     77          1           0       -1.168818    8.009498    1.594604
     78          1           0       -7.231091   -3.345683   -3.203300
     79          1           0       -6.256472   -4.789063   -2.642472
 ---------------------------------------------------------------------

 SCF Done:  E(RB3LYP) =  -1947.83801094     A.U. after   17 cycles

 Excitation energies and oscillator strengths:

 Excited State   1:      Singlet-A      1.7925 eV  691.69 nm  f=0.3951  <S**2>=0.000
     154 ->156         0.11443
     155 ->156         0.70094
     155 <-156        -0.12703
 This state for optimization and/or second-order correction.
 Total Energy, E(TD-HF/TD-DFT) =  -1947.77213832
 Copying the excited state density for this state as the 1-particle RhoCI density.

 The electronic state is 1-A.
 Alpha  occ. eigenvalues --  -19.18974 -19.17561 -19.13943 -19.11483 -19.10813
 Alpha  occ. eigenvalues --  -19.10359 -14.39247 -14.36827 -14.35394 -14.28474
 Alpha  occ. eigenvalues --  -10.32792 -10.31310 -10.28447 -10.26670 -10.25506
 Alpha  occ. eigenvalues --  -10.23656 -10.23444 -10.23074 -10.22744 -10.22366
 Alpha  occ. eigenvalues --  -10.22296 -10.22224 -10.21167 -10.20971 -10.20956
 Alpha  occ. eigenvalues --  -10.20895 -10.20673 -10.20438 -10.20251 -10.20164
 Alpha  occ. eigenvalues --  -10.20129 -10.20072 -10.20004 -10.19929 -10.19771
 Alpha  occ. eigenvalues --  -10.19605 -10.19448 -10.19425 -10.19329 -10.18946
 Alpha  occ. eigenvalues --  -10.18930 -10.17937 -10.17534  -1.11088  -1.09547
 Alpha  occ. eigenvalues --   -1.02381  -1.02320  -1.00110  -0.99799  -0.99231
 Alpha  occ. eigenvalues --   -0.97829  -0.95012  -0.92479  -0.82812  -0.82729
 Alpha  occ. eigenvalues --   -0.82152  -0.81360  -0.80512  -0.80016  -0.77586
 Alpha  occ. eigenvalues --   -0.77208  -0.76740  -0.76230  -0.74614  -0.72273
 Alpha  occ. eigenvalues --   -0.71694  -0.71473  -0.70431  -0.69739  -0.68478
 Alpha  occ. eigenvalues --   -0.67813  -0.66724  -0.64463  -0.61311  -0.60679
 Alpha  occ. eigenvalues --   -0.60468  -0.59853  -0.58556  -0.58467  -0.56946
 Alpha  occ. eigenvalues --   -0.56617  -0.56003  -0.55755  -0.54412  -0.53552
 Alpha  occ. eigenvalues --   -0.52646  -0.52051  -0.51372  -0.50464  -0.49746
 Alpha  occ. eigenvalues --   -0.49074  -0.48530  -0.48270  -0.47973  -0.47742
 Alpha  occ. eigenvalues --   -0.47204  -0.47061  -0.46611  -0.46388  -0.45478
 Alpha  occ. eigenvalues --   -0.45376  -0.45035  -0.44852  -0.44307  -0.44090
 Alpha  occ. eigenvalues --   -0.43634  -0.43211  -0.43022  -0.42965  -0.42834
 Alpha  occ. eigenvalues --   -0.42526  -0.42359  -0.42293  -0.41244  -0.40956
 Alpha  occ. eigenvalues --   -0.40788  -0.40607  -0.40060  -0.39822  -0.39413
 Alpha  occ. eigenvalues --   -0.39345  -0.39051  -0.39013  -0.38702  -0.38468
 Alpha  occ. eigenvalues --   -0.38172  -0.37868  -0.37585  -0.37053  -0.36745
 Alpha  occ. eigenvalues --   -0.36605  -0.35893  -0.35412  -0.34784  -0.34626
 Alpha  occ. eigenvalues --   -0.34004  -0.33819  -0.33570  -0.31855  -0.31453
 Alpha  occ. eigenvalues --   -0.30665  -0.30624  -0.28869  -0.28706  -0.27240
 Alpha  occ. eigenvalues --   -0.27030  -0.26878  -0.26166  -0.25877  -0.25616
 Alpha  occ. eigenvalues --   -0.24346  -0.24082  -0.23311  -0.21511  -0.18140
 Alpha virt. eigenvalues --   -0.11134  -0.07348  -0.05622  -0.01153   0.00324
 Alpha virt. eigenvalues --    0.00365   0.00902   0.01121   0.02350   0.03192
 Alpha virt. eigenvalues --    0.03240   0.04177   0.04848   0.05048   0.05565

 Mulliken charges:
               1
     1  O   -0.234972
     2  O   -0.063180
     3  O   -0.281387
     4  O   -0.218922
     5  O   -0.189174
     6  O   -0.245698
     7  N   -0.049479
     8  N   -0.271865
     9  N   -0.011678
    10  N   -0.263387
    11  C    0.172524
    12  C    0.157722
    13  C   -0.092038
    14  C   -0.144254
    15  C   -0.038231
    16  C    0.022908
    17  C   -0.194924
    18  C    0.082654
    19  C   -0.108608
    20  C   -0.123539
    21  C    0.100397
    22  C    0.168672
    23  C   -0.088342
    24  C    0.170747
    25  C    0.152656
    26  C   -0.130337
    27  C   -0.080631
    28  C    0.049343
    29  C    0.147101
    30  C    0.064377
    31  C   -0.010576
    32  C    0.112111
    33  C   -0.173867
    34  C    0.141850
    35  C    0.068290
    36  C   -0.046590
    37  C    0.132723
    38  C    0.028361
    39  C   -0.196912
    40  C    0.177468
    41  C   -0.013216
    42  C    0.175693
    43  C   -0.005828
    44  H    0.024372
    45  H   -0.046191
    46  H    0.015674
    47  H    0.120197
    48  H    0.170344
    49  H   -0.006744
    50  H    0.037831
    51  H   -0.009838
    52  H   -0.036864
    53  H   -0.006722
    54  H    0.024277
    55  H    0.030792
    56  H    0.010494
    57  H    0.033191
    58  H    0.094990
    59  H    0.033224
    60  H    0.134197
    61  H    0.006897
    62  H    0.017514
    63  H   -0.015992
    64  H    0.028595
    65  H    0.010895
    66  H    0.021644
    67  H    0.026756
    68  H    0.040424
    69  H    0.030981
    70  H    0.023633
    71  H    0.029830
    72  H    0.112025
    73  H   -0.032364
    74  H    0.002044
    75  H    0.043908
    76  H   -0.050722
    77  H    0.187742
    78  H   -0.015067
    79  H    0.060070
 Sum of Mulliken charges =  -0.00000

 Dipole moment (field-independent basis, Debye):
    X=              0.1932    Y=              2.0812    Z=              3.6505  Tot=              4.2066
 Quadrupole moment (field-independent basis, Debye-Ang):
   XX=           -222.8487   YY=           -240.6792   ZZ=           -260.2082
   XY=             -6.1997   XZ=             34.6062   YZ=              7.7361

 Normal termination of Gaussian 16 at Fri Sep 20 02:07:09 2019.
