 Gaussian 16, Revision A.03,
 Gaussian 16:  ES64L-G16RevA.03 25-Dec-2016

 --------------------------
 # td=(NStates=1) B3LYP/SVP
 --------------------------

 --
 TD
 --
 Symbolic Z-matrix:
 Charge =  0 Multiplicity = 1

                         Standard orientation:
 ---------------------------------------------------------------------
 Center     Atomic      Atomic             Coordinates (Angstroms)
 Number     Number       Type             X           Y           Z
 ---------------------------------------------------------------------
      1          8           0        5.233639   -0.113639   -3.256267
      2          8           0       -2.984159   -2.986883    2.806885
      3          8           0       -3.368603   -0.751176    2.904633
      4          8           0       -1.292419    7.185107    1.595179
      5          8           0       -0.163476    6.979604   -0.318986
      6          8           0       -1.921800   -3.985042   -0.030448
      7          7           0        2.448567    0.897814    0.656207
      8          7           0        4.287337   -0.707327   -1.142862
      9          7           0       -1.734690    0.737317   -0.534254
     10          7           0       -2.681157   -1.888340   -0.518269
     11          6           0        4.634351   -1.323118    0.042878
     12          6           0        4.440644   -0.438293    1.243029
     13          6           0        2.950904   -0.048402    1.359334
     14          6           0        1.925675   -0.678355    2.097414
     15          6           0        0.712137   -0.019903    1.784664
     16          6           0        1.023940    0.909008    0.826744
     17          6           0        6.236655   -1.520113   -0.241202
     18          6           0       -0.588659   -0.130278    2.566418
     19          6           0        6.535692   -0.985561   -1.398154
     20          6           0        0.298883    1.964207    0.152509
     21          6           0       -0.994983    1.845048   -0.349267
     22          6           0        5.331640   -0.534620   -2.127427
     23          6           0       -1.791795    2.935795   -0.801907
     24          6           0        2.094232   -1.729879    3.111047
     25          6           0        6.984129   -2.230283    0.793106
     26          6           0       -3.047074    2.405984   -1.344721
     27          6           0       -1.152573   -1.640522    2.512339
     28          6           0       -3.006108    1.068370   -1.048980
     29          6           0       -1.331299    4.345986   -0.910084
     30          6           0        7.850877   -0.867905   -2.016915
     31          6           0       -1.483655    5.191133    0.428913
     32          6           0       -4.087579    3.165179   -2.113283
     33          6           0       -3.926526    0.058992   -1.419868
     34          6           0       -2.555108   -1.673097    2.746783
     35          6           0       -3.703680   -1.374105   -1.013307
     36          6           0        9.099049   -1.187913   -1.470172
     37          6           0       -0.905228    6.555342    0.503127
     38          6           0       -4.731534   -2.427927   -1.341083
     39          6           0       -4.207471   -3.635739   -0.963909
     40          6           0       -2.889216   -3.293119   -0.361101
     41          6           0       -6.021859   -2.193655   -1.972981
     42          6           0       -4.600000   -5.021672   -0.982282
     43          6           0       -6.972437   -3.168744   -2.215608
     44          1           0        4.170357   -2.395437    0.088040
     45          1           0        5.108553    0.462019    1.274029
     46          1           0        4.731171   -0.923544    2.064898
     47          1           0        2.871451    1.142567   -0.291975
     48          1           0        3.374644   -0.970274   -1.377598
     49          1           0       -0.237664   -0.096728    3.622654
     50          1           0       -1.406300    0.730698    2.359292
     51          1           0        0.696669    2.925095   -0.202312
     52          1           0        3.085500   -1.959822    3.399341
     53          1           0        1.590752   -1.602557    4.026645
     54          1           0        1.521140   -2.684276    2.703408
     55          1           0        6.510256   -3.012669    1.371811
     56          1           0        7.279281   -1.575994    1.669495
     57          1           0        7.757274   -2.719856    0.230436
     58          1           0       -0.973333   -1.840061    1.495966
     59          1           0       -0.580703   -2.265005    3.181448
     60          1           0       -1.717204   -0.215714   -0.212322
     61          1           0       -1.902396    5.014237   -1.672262
     62          1           0       -0.330205    4.407996   -1.253354
     63          1           0        7.519727   -0.456805   -2.999928
     64          1           0       -1.275451    4.495105    1.449108
     65          1           0       -2.548294    5.337164    0.831982
     66          1           0       -3.955523    4.079053   -2.661869
     67          1           0       -4.986522    3.390489   -1.427117
     68          1           0       -4.479647    2.411115   -2.839417
     69          1           0       -4.844409    0.497306   -1.837689
     70          1           0        9.159088   -1.619342   -0.458782
     71          1           0       10.107765   -0.948591   -2.076849
     72          1           0       -4.046590   -2.943689    2.946603
     73          1           0       -6.329280   -1.318150   -2.324220
     74          1           0       -5.410085   -5.353709   -0.299672
     75          1           0       -4.613454   -5.302149   -2.110004
     76          1           0       -3.563233   -5.617035   -0.800141
     77          1           0       -0.695305    8.098656    1.496612
     78          1           0       -7.936901   -2.915916   -2.770519
     79          1           0       -6.649126   -4.085228   -1.885791
 ---------------------------------------------------------------------

 SCF Done:  E(RB3LYP) =  -1947.86631154     A.U. after   17 cycles

 Excitation energies and oscillator strengths:

 Excited State   1:      Singlet-A      1.9310 eV  642.06 nm  f=0.4816  <S**2>=0.000
     155 ->156         0.70576
     155 <-156        -0.13699
 This state for optimization and/or second-order correction.
 Total Energy, E(TD-HF/TD-DFT) =  -1947.79534753
 Copying the excited state density for this state as the 1-particle RhoCI density.

 The electronic state is 1-A.
 Alpha  occ. eigenvalues --  -19.19668 -19.16725 -19.12788 -19.12752 -19.11446
 Alpha  occ. eigenvalues --  -19.10809 -14.38039 -14.35193 -14.34939 -14.28744
 Alpha  occ. eigenvalues --  -10.31823 -10.30700 -10.30466 -10.26584 -10.25135
 Alpha  occ. eigenvalues --  -10.23173 -10.23129 -10.23054 -10.22951 -10.22575
 Alpha  occ. eigenvalues --  -10.22279 -10.22100 -10.21740 -10.21336 -10.21302
 Alpha  occ. eigenvalues --  -10.21290 -10.21265 -10.21157 -10.20906 -10.20789
 Alpha  occ. eigenvalues --  -10.20449 -10.20420 -10.20217 -10.20107 -10.19890
 Alpha  occ. eigenvalues --  -10.19497 -10.19408 -10.19239 -10.19180 -10.19171
 Alpha  occ. eigenvalues --  -10.19087 -10.18852 -10.18846  -1.10956  -1.05992
 Alpha  occ. eigenvalues --   -1.04595  -1.01682  -1.01092  -0.99989  -0.97687
 Alpha  occ. eigenvalues --   -0.97004  -0.96131  -0.93287  -0.83635  -0.82288
 Alpha  occ. eigenvalues --   -0.81554  -0.81010  -0.80753  -0.79743  -0.77532
 Alpha  occ. eigenvalues --   -0.77046  -0.76392  -0.75801  -0.74463  -0.72663
 Alpha  occ. eigenvalues --   -0.72270  -0.71267  -0.69323  -0.68714  -0.68250
 Alpha  occ. eigenvalues --   -0.67181  -0.65745  -0.63994  -0.62567  -0.60482
 Alpha  occ. eigenvalues --   -0.59413  -0.58583  -0.57984  -0.57026  -0.56996
 Alpha  occ. eigenvalues --   -0.55740  -0.55395  -0.54883  -0.54063  -0.53678
 Alpha  occ. eigenvalues --   -0.52190  -0.51875  -0.51547  -0.50205  -0.50058
 Alpha  occ. eigenvalues --   -0.49083  -0.48898  -0.48670  -0.48069  -0.47815
 Alpha  occ. eigenvalues --   -0.47604  -0.47345  -0.46726  -0.45997  -0.45750
 Alpha  occ. eigenvalues --   -0.45514  -0.45052  -0.44757  -0.44536  -0.44129
 Alpha  occ. eigenvalues --   -0.43798  -0.43423  -0.42754  -0.42648  -0.42461
 Alpha  occ. eigenvalues --   -0.41926  -0.41610  -0.41381  -0.41249  -0.41098
 Alpha  occ. eigenvalues --   -0.40961  -0.40785  -0.40534  -0.40358  -0.39948
 Alpha  occ. eigenvalues --   -0.39695  -0.39561  -0.39197  -0.38975  -0.38753
 Alpha  occ. eigenvalues --   -0.38601  -0.38254  -0.37659  -0.37473  -0.37303
 Alpha  occ. eigenvalues --   -0.36554  -0.35268  -0.34942  -0.34475  -0.33996
 Alpha  occ. eigenvalues --   -0.33199  -0.33022  -0.32930  -0.32473  -0.31640
 Alpha  occ. eigenvalues --   -0.30734  -0.30212  -0.28961  -0.28721  -0.28327
 Alpha  occ. eigenvalues --   -0.27404  -0.26828  -0.26705  -0.25729  -0.24602
 Alpha  occ. eigenvalues --   -0.24524  -0.24462  -0.23308  -0.22358  -0.17916
 Alpha virt. eigenvalues --   -0.10645  -0.06877  -0.06578  -0.00706  -0.00181
 Alpha virt. eigenvalues --    0.00166   0.00727   0.01296   0.01749   0.02991
 Alpha virt. eigenvalues --    0.03737   0.04330   0.04488   0.05016   0.05399

 Mulliken charges:
               1
     1  O   -0.186979
     2  O   -0.259592
     3  O   -0.255619
     4  O   -0.211595
     5  O   -0.211579
     6  O   -0.203886
     7  N   -0.038588
     8  N   -0.195813
     9  N   -0.062660
    10  N   -0.220695
    11  C   -0.018815
    12  C    0.315866
    13  C   -0.168018
    14  C   -0.138649
    15  C   -0.044571
    16  C    0.043955
    17  C   -0.198174
    18  C    0.027569
    19  C   -0.078974
    20  C   -0.086755
    21  C    0.067209
    22  C    0.202516
    23  C   -0.098837
    24  C    0.106263
    25  C    0.090551
    26  C   -0.094149
    27  C    0.050261
    28  C    0.070193
    29  C    0.119130
    30  C    0.023355
    31  C   -0.120277
    32  C    0.071899
    33  C   -0.102963
    34  C    0.146062
    35  C    0.068620
    36  C   -0.068467
    37  C    0.138181
    38  C    0.074792
    39  C   -0.234464
    40  C    0.154424
    41  C   -0.031145
    42  C    0.057051
    43  C    0.033100
    44  H    0.042249
    45  H    0.003894
    46  H   -0.068881
    47  H    0.149148
    48  H    0.117669
    49  H    0.008843
    50  H    0.072200
    51  H   -0.007575
    52  H   -0.013231
    53  H   -0.007605
    54  H    0.043593
    55  H    0.007691
    56  H    0.044808
    57  H    0.037511
    58  H    0.063344
    59  H    0.035141
    60  H    0.128005
    61  H    0.023621
    62  H    0.014341
    63  H    0.012729
    64  H    0.063629
    65  H    0.035766
    66  H    0.019766
    67  H    0.032927
    68  H    0.022977
    69  H   -0.015956
    70  H    0.029466
    71  H    0.063879
    72  H    0.218496
    73  H   -0.077484
    74  H    0.059968
    75  H    0.036666
    76  H    0.037265
    77  H    0.225526
    78  H    0.041888
    79  H   -0.032007
 Sum of Mulliken charges =  -0.00000

 Dipole moment (field-independent basis, Debye):
    X=              1.5646    Y=              1.0736    Z=              3.2048  Tot=              3.7244
 Quadrupole moment (field-independent basis, Debye-Ang):
   XX=           -220.5151   YY=           -245.1777   ZZ=           -260.3395
   XY=            -14.3290   XZ=             32.4264   YZ=              0.6065

 Normal termination of Gaussian 16 at Mon Sep 16 17:13:40 2019.
