 Gaussian 16, Revision A.03,
 Gaussian 16:  ES64L-G16RevA.03 25-Dec-2016

 --------------------------
 # td=(NStates=1) B3LYP/SVP
 --------------------------

 --
 TD
 --
 Symbolic Z-matrix:
 Charge =  0 Multiplicity = 1

                         Standard orientation:
 ---------------------------------------------------------------------
 Center     Atomic      Atomic             Coordinates (Angstroms)
 Number     Number       Type             X           Y           Z
 ---------------------------------------------------------------------
      1          8           0        5.409420   -0.110063   -3.291459
      2          8           0       -3.107631   -3.024112    2.961919
      3          8           0       -3.385825   -0.814095    2.788938
      4          8           0       -1.388990    7.071715    1.742543
      5          8           0       -0.360422    6.993352   -0.300252
      6          8           0       -1.991811   -3.904846    0.086039
      7          7           0        2.404692    0.831009    0.596562
      8          7           0        4.383474   -0.602645   -1.319930
      9          7           0       -1.811971    0.713870   -0.410706
     10          7           0       -2.679207   -1.806292   -0.560884
     11          6           0        4.783368   -1.346457   -0.013229
     12          6           0        4.425377   -0.541073    1.224194
     13          6           0        2.955425   -0.229812    1.380759
     14          6           0        1.965619   -0.867014    2.062134
     15          6           0        0.785989   -0.218604    1.838854
     16          6           0        0.983180    0.785710    0.801508
     17          6           0        6.272537   -1.377036   -0.217121
     18          6           0       -0.542014   -0.339445    2.566731
     19          6           0        6.772022   -0.886527   -1.395622
     20          6           0        0.276272    1.847721    0.188507
     21          6           0       -1.054512    1.833778   -0.354833
     22          6           0        5.456653   -0.541752   -2.210118
     23          6           0       -1.868576    2.922772   -0.826838
     24          6           0        2.173340   -2.065399    2.933799
     25          6           0        7.063821   -2.088843    0.788051
     26          6           0       -3.108070    2.484626   -1.235264
     27          6           0       -1.114696   -1.804315    2.502833
     28          6           0       -3.096327    1.029622   -0.988224
     29          6           0       -1.328966    4.312929   -0.823117
     30          6           0        8.044548   -0.674590   -1.946713
     31          6           0       -1.467077    5.034398    0.484032
     32          6           0       -4.269838    3.250319   -1.783400
     33          6           0       -4.092109    0.082470   -1.241613
     34          6           0       -2.613463   -1.757326    2.802522
     35          6           0       -3.862171   -1.279260   -0.966224
     36          6           0        9.270178   -0.705945   -1.313613
     37          6           0       -0.916043    6.452512    0.554802
     38          6           0       -4.813496   -2.416807   -1.336126
     39          6           0       -4.129605   -3.554596   -1.150305
     40          6           0       -2.814292   -3.186041   -0.438738
     41          6           0       -6.108330   -2.128572   -2.065855
     42          6           0       -4.567575   -4.918710   -1.244765
     43          6           0       -7.062396   -2.927617   -2.535829
     44          1           0        4.341977   -2.301980   -0.086439
     45          1           0        5.007865    0.508242    0.911314
     46          1           0        4.956831   -1.107913    2.062202
     47          1           0        2.834836    1.285921   -0.031694
     48          1           0        3.578279   -0.828261   -2.002121
     49          1           0       -0.334019   -0.136231    3.596982
     50          1           0       -1.341027    0.086398    2.156871
     51          1           0        0.845374    2.807818    0.058638
     52          1           0        3.200766   -2.260880    3.122042
     53          1           0        1.840078   -1.844963    3.960793
     54          1           0        1.637359   -2.753286    2.440966
     55          1           0        6.545788   -3.057675    1.095877
     56          1           0        7.343130   -1.531338    1.677967
     57          1           0        8.067877   -2.333607    0.412911
     58          1           0       -0.933296   -2.365448    1.258447
     59          1           0       -0.728793   -2.316519    3.460477
     60          1           0       -1.614259   -0.276886   -0.428018
     61          1           0       -2.021127    5.068391   -1.418782
     62          1           0       -0.291858    4.340995   -1.312810
     63          1           0        7.884323   -0.054321   -3.006344
     64          1           0       -0.792797    4.574664    1.259610
     65          1           0       -2.448377    4.842266    0.882621
     66          1           0       -3.991167    4.329072   -2.321022
     67          1           0       -5.004281    3.453773   -0.844833
     68          1           0       -4.720756    2.685044   -2.499379
     69          1           0       -4.862984    0.684633   -1.707056
     70          1           0        9.655714   -1.105256   -0.299566
     71          1           0       10.158395   -0.493866   -1.849671
     72          1           0       -4.174296   -3.177327    3.112946
     73          1           0       -6.138327   -1.024470   -2.292821
     74          1           0       -5.588873   -5.143066   -0.673654
     75          1           0       -4.744387   -5.322615   -2.238449
     76          1           0       -3.686799   -5.494749   -0.814217
     77          1           0       -1.254676    8.050944    1.567968
     78          1           0       -8.017734   -2.438040   -2.978454
     79          1           0       -7.078254   -4.083366   -2.517513
 ---------------------------------------------------------------------

 SCF Done:  E(RB3LYP) =  -1947.83911542     A.U. after   17 cycles

 Excitation energies and oscillator strengths:

 Excited State   1:      Singlet-A      2.0204 eV  613.68 nm  f=0.4799  <S**2>=0.000
     155 ->156         0.70346
     155 <-156        -0.13431
 This state for optimization and/or second-order correction.
 Total Energy, E(TD-HF/TD-DFT) =  -1947.76486888
 Copying the excited state density for this state as the 1-particle RhoCI density.

 The electronic state is 1-A.
 Alpha  occ. eigenvalues --  -19.17538 -19.15591 -19.14593 -19.11309 -19.10942
 Alpha  occ. eigenvalues --  -19.10552 -14.36767 -14.35659 -14.35292 -14.28934
 Alpha  occ. eigenvalues --  -10.32550 -10.30104 -10.28420 -10.26616 -10.25307
 Alpha  occ. eigenvalues --  -10.24600 -10.24131 -10.23868 -10.23679 -10.23465
 Alpha  occ. eigenvalues --  -10.23374 -10.22431 -10.22122 -10.22015 -10.21981
 Alpha  occ. eigenvalues --  -10.21562 -10.21248 -10.20990 -10.20934 -10.20895
 Alpha  occ. eigenvalues --  -10.20693 -10.20624 -10.20533 -10.20388 -10.20332
 Alpha  occ. eigenvalues --  -10.19838 -10.19677 -10.19422 -10.18838 -10.18813
 Alpha  occ. eigenvalues --  -10.18773 -10.18523 -10.17684  -1.10525  -1.05869
 Alpha  occ. eigenvalues --   -1.05296  -1.02064  -1.01401  -0.97379  -0.96939
 Alpha  occ. eigenvalues --   -0.96451  -0.92661  -0.91300  -0.82947  -0.82792
 Alpha  occ. eigenvalues --   -0.82442  -0.81270  -0.79956  -0.79598  -0.77905
 Alpha  occ. eigenvalues --   -0.77512  -0.76136  -0.75339  -0.74634  -0.72808
 Alpha  occ. eigenvalues --   -0.72106  -0.70868  -0.69467  -0.68774  -0.67740
 Alpha  occ. eigenvalues --   -0.66258  -0.65549  -0.63447  -0.61332  -0.59931
 Alpha  occ. eigenvalues --   -0.59129  -0.58712  -0.57891  -0.56345  -0.55962
 Alpha  occ. eigenvalues --   -0.55811  -0.55090  -0.54528  -0.53670  -0.53063
 Alpha  occ. eigenvalues --   -0.51582  -0.51289  -0.50863  -0.50742  -0.50011
 Alpha  occ. eigenvalues --   -0.49129  -0.48716  -0.48047  -0.47632  -0.47491
 Alpha  occ. eigenvalues --   -0.46508  -0.46398  -0.46029  -0.45537  -0.44783
 Alpha  occ. eigenvalues --   -0.44695  -0.44463  -0.44324  -0.44061  -0.43843
 Alpha  occ. eigenvalues --   -0.43692  -0.43333  -0.43131  -0.42931  -0.42568
 Alpha  occ. eigenvalues --   -0.42427  -0.41858  -0.41654  -0.41575  -0.41214
 Alpha  occ. eigenvalues --   -0.40811  -0.40592  -0.40167  -0.39831  -0.39494
 Alpha  occ. eigenvalues --   -0.39336  -0.39178  -0.38840  -0.38804  -0.38580
 Alpha  occ. eigenvalues --   -0.38253  -0.38094  -0.37357  -0.36748  -0.36227
 Alpha  occ. eigenvalues --   -0.35611  -0.34964  -0.34781  -0.34239  -0.33981
 Alpha  occ. eigenvalues --   -0.33618  -0.33076  -0.32911  -0.32619  -0.32377
 Alpha  occ. eigenvalues --   -0.30495  -0.29612  -0.29376  -0.28204  -0.27663
 Alpha  occ. eigenvalues --   -0.27303  -0.26246  -0.25999  -0.25780  -0.25366
 Alpha  occ. eigenvalues --   -0.24363  -0.24160  -0.23759  -0.22313  -0.18599
 Alpha virt. eigenvalues --   -0.10950  -0.06816  -0.06166  -0.00821  -0.00007
 Alpha virt. eigenvalues --    0.00639   0.00880   0.01236   0.02910   0.03127
 Alpha virt. eigenvalues --    0.03429   0.04367   0.04746   0.04918   0.05380

 Mulliken charges:
               1
     1  O   -0.161815
     2  O   -0.275968
     3  O   -0.237979
     4  O   -0.263007
     5  O   -0.145355
     6  O   -0.197738
     7  N   -0.061290
     8  N   -0.273015
     9  N   -0.080778
    10  N   -0.309058
    11  C    0.172847
    12  C    0.074174
    13  C   -0.004717
    14  C   -0.175711
    15  C   -0.113505
    16  C    0.105970
    17  C   -0.233671
    18  C    0.243578
    19  C   -0.001018
    20  C   -0.113802
    21  C    0.080083
    22  C    0.101117
    23  C   -0.070189
    24  C    0.219079
    25  C    0.078334
    26  C   -0.087492
    27  C   -0.178023
    28  C   -0.010019
    29  C    0.032162
    30  C   -0.039215
    31  C    0.005481
    32  C    0.043826
    33  C   -0.057141
    34  C    0.174574
    35  C    0.170438
    36  C   -0.065824
    37  C    0.136742
    38  C    0.032612
    39  C   -0.213509
    40  C    0.170518
    41  C    0.009460
    42  C    0.037802
    43  C   -0.080570
    44  H    0.009524
    45  H    0.032674
    46  H    0.030492
    47  H    0.037540
    48  H    0.146278
    49  H   -0.002314
    50  H   -0.031283
    51  H    0.010734
    52  H   -0.026651
    53  H    0.010787
    54  H    0.022170
    55  H    0.031072
    56  H    0.028973
    57  H    0.013174
    58  H    0.156020
    59  H    0.033224
    60  H    0.133076
    61  H    0.015287
    62  H    0.040614
    63  H    0.061138
    64  H    0.029167
    65  H    0.034222
    66  H    0.051322
    67  H    0.063543
    68  H    0.015205
    69  H   -0.046085
    70  H    0.040602
    71  H    0.018234
    72  H    0.232680
    73  H    0.008331
    74  H    0.041232
    75  H    0.021096
    76  H    0.034671
    77  H    0.188489
    78  H    0.037664
    79  H    0.038708
 Sum of Mulliken charges =  -0.00000

 Dipole moment (field-independent basis, Debye):
    X=              1.2884    Y=              1.2360    Z=              2.2108  Tot=              2.8418
 Quadrupole moment (field-independent basis, Debye-Ang):
   XX=           -217.6719   YY=           -245.7037   ZZ=           -261.3604
   XY=            -15.3817   XZ=             31.2385   YZ=             -0.7358

 Normal termination of Gaussian 16 at Sun Sep 15 07:10:11 2019.
