 Gaussian 16, Revision A.03,
 Gaussian 16:  ES64L-G16RevA.03 25-Dec-2016

 --------------------------
 # td=(NStates=1) B3LYP/SVP
 --------------------------

 --
 TD
 --
 Symbolic Z-matrix:
 Charge =  0 Multiplicity = 1

                         Standard orientation:
 ---------------------------------------------------------------------
 Center     Atomic      Atomic             Coordinates (Angstroms)
 Number     Number       Type             X           Y           Z
 ---------------------------------------------------------------------
      1          8           0       -3.097063   -1.609842   -2.704932
      2          8           0        2.385768    3.718376    2.678424
      3          8           0        3.217058    2.235218    4.242147
      4          8           0        7.917610   -1.553615   -0.488517
      5          8           0        6.930312   -3.054020   -1.812768
      6          8           0       -2.733460    1.898494    1.185315
      7          7           0       -0.244602   -2.254178    1.255000
      8          7           0       -2.537985   -1.369655   -0.529131
      9          7           0        1.181749    0.102578   -0.468914
     10          7           0       -1.014015    1.433609   -0.385631
     11          6           0       -3.317121   -1.427886    0.728544
     12          6           0       -2.540903   -2.350513    1.727967
     13          6           0       -1.169239   -1.821522    2.051352
     14          6           0       -0.647496   -0.987760    2.999134
     15          6           0        0.668380   -0.764144    2.667994
     16          6           0        0.976955   -1.566039    1.530521
     17          6           0       -4.615470   -1.989131    0.319086
     18          6           0        1.650729    0.133024    3.260152
     19          6           0       -4.543130   -2.280060   -1.006016
     20          6           0        2.101167   -1.767370    0.648959
     21          6           0        2.157339   -0.880593   -0.346534
     22          6           0       -3.276500   -1.730063   -1.544822
     23          6           0        3.182486   -0.804479   -1.504407
     24          6           0       -1.570978   -0.071060    3.869520
     25          6           0       -5.733032   -2.186856    1.280882
     26          6           0        2.698016    0.095647   -2.420838
     27          6           0        1.499864    1.521188    2.659036
     28          6           0        1.468741    0.694878   -1.779597
     29          6           0        4.306870   -1.626144   -1.662763
     30          6           0       -5.521771   -2.906091   -1.855794
     31          6           0        5.518086   -1.200829   -0.782372
     32          6           0        3.196052    0.508839   -3.616325
     33          6           0        0.569336    1.655101   -2.179163
     34          6           0        2.480973    2.409436    3.305821
     35          6           0       -0.647227    2.052164   -1.499194
     36          6           0       -6.656997   -3.667787   -1.387856
     37          6           0        6.808468   -2.063520   -1.030950
     38          6           0       -1.507396    3.249772   -1.724919
     39          6           0       -2.342630    3.356551   -0.653166
     40          6           0       -1.988714    2.188123    0.249104
     41          6           0       -1.294573    4.094701   -2.871505
     42          6           0       -3.436238    4.362624   -0.372040
     43          6           0       -1.970975    5.220539   -3.150670
     44          1           0       -3.333863   -0.229481    0.960091
     45          1           0       -2.617361   -3.390147    1.449658
     46          1           0       -3.124720   -2.277573    2.592242
     47          1           0       -0.390589   -2.739367    0.476933
     48          1           0       -2.010453   -0.473334   -0.763465
     49          1           0        1.683706    0.229350    4.328876
     50          1           0        2.752890   -0.346247    3.145244
     51          1           0        3.027582   -2.371567    0.914579
     52          1           0       -2.410503   -0.735462    4.526347
     53          1           0       -0.910286    0.223753    4.633246
     54          1           0       -2.012311    0.666469    3.351594
     55          1           0       -5.444643   -1.507302    2.122413
     56          1           0       -5.864420   -3.343740    1.568301
     57          1           0       -6.639354   -1.834266    0.748575
     58          1           0        1.791187    1.792690    1.707225
     59          1           0        0.572511    2.030160    2.828686
     60          1           0        0.084929    0.511623   -0.321061
     61          1           0        4.886322   -1.810454   -2.586178
     62          1           0        4.215920   -2.735926   -1.235027
     63          1           0       -5.282838   -2.681167   -3.021570
     64          1           0        5.508311   -1.376349    0.293400
     65          1           0        5.716488   -0.235457   -0.919791
     66          1           0        4.159704    0.043973   -3.762726
     67          1           0        3.408859    1.652468   -3.562855
     68          1           0        2.574324    0.461396   -4.451642
     69          1           0        0.687381    2.070657   -3.231483
     70          1           0       -6.609816   -3.885574   -0.287128
     71          1           0       -7.159472   -4.106105   -2.327559
     72          1           0        2.525252    4.530182    3.389457
     73          1           0       -0.422441    3.717405   -3.643836
     74          1           0       -4.193036    4.449742   -1.088091
     75          1           0       -4.060923    4.020425    0.318655
     76          1           0       -3.054480    5.308981    0.013971
     77          1           0        8.544680   -2.283344   -0.838934
     78          1           0       -1.499902    5.828851   -3.979432
     79          1           0       -2.774893    5.656939   -2.700178
 ---------------------------------------------------------------------

 SCF Done:  E(RB3LYP) =  -1947.78791133     A.U. after   20 cycles

 Excitation energies and oscillator strengths:

 Excited State   1:      Singlet-A      0.9391 eV 1320.30 nm  f=0.0017  <S**2>=0.000
     155 ->156         0.70373
 This state for optimization and/or second-order correction.
 Total Energy, E(TD-HF/TD-DFT) =  -1947.75340152
 Copying the excited state density for this state as the 1-particle RhoCI density.

 The electronic state is 1-A.
 Alpha  occ. eigenvalues --  -19.20610 -19.15569 -19.14131 -19.13660 -19.12873
 Alpha  occ. eigenvalues --  -19.07579 -14.35635 -14.35091 -14.33693 -14.32795
 Alpha  occ. eigenvalues --  -10.34115 -10.31042 -10.30248 -10.26868 -10.26571
 Alpha  occ. eigenvalues --  -10.25096 -10.25087 -10.23156 -10.22971 -10.22630
 Alpha  occ. eigenvalues --  -10.22584 -10.22519 -10.22298 -10.22042 -10.21916
 Alpha  occ. eigenvalues --  -10.21837 -10.20893 -10.20784 -10.20669 -10.20586
 Alpha  occ. eigenvalues --  -10.19971 -10.19783 -10.19745 -10.19659 -10.19172
 Alpha  occ. eigenvalues --  -10.19070 -10.18959 -10.18949 -10.18906 -10.17441
 Alpha  occ. eigenvalues --  -10.17226 -10.16750 -10.15669  -1.11428  -1.05866
 Alpha  occ. eigenvalues --   -1.04311  -1.02874  -0.99372  -0.98074  -0.97253
 Alpha  occ. eigenvalues --   -0.96901  -0.95234  -0.93539  -0.85490  -0.83066
 Alpha  occ. eigenvalues --   -0.82589  -0.81510  -0.80995  -0.80197  -0.78150
 Alpha  occ. eigenvalues --   -0.77440  -0.76995  -0.75740  -0.74551  -0.73162
 Alpha  occ. eigenvalues --   -0.72501  -0.70291  -0.69520  -0.69437  -0.67766
 Alpha  occ. eigenvalues --   -0.67660  -0.66231  -0.63238  -0.61978  -0.60347
 Alpha  occ. eigenvalues --   -0.59968  -0.58839  -0.57825  -0.57393  -0.56091
 Alpha  occ. eigenvalues --   -0.55280  -0.54955  -0.54648  -0.54435  -0.53797
 Alpha  occ. eigenvalues --   -0.52318  -0.52052  -0.51101  -0.50605  -0.50367
 Alpha  occ. eigenvalues --   -0.49913  -0.48907  -0.48540  -0.48127  -0.47969
 Alpha  occ. eigenvalues --   -0.47898  -0.47201  -0.46415  -0.46290  -0.45986
 Alpha  occ. eigenvalues --   -0.45832  -0.45325  -0.45201  -0.44769  -0.44360
 Alpha  occ. eigenvalues --   -0.43990  -0.43695  -0.43439  -0.43061  -0.42531
 Alpha  occ. eigenvalues --   -0.41794  -0.41609  -0.41509  -0.41158  -0.41009
 Alpha  occ. eigenvalues --   -0.40661  -0.40368  -0.40050  -0.39896  -0.39533
 Alpha  occ. eigenvalues --   -0.39215  -0.39100  -0.38847  -0.38757  -0.38664
 Alpha  occ. eigenvalues --   -0.37737  -0.37399  -0.37153  -0.36984  -0.36795
 Alpha  occ. eigenvalues --   -0.36178  -0.35976  -0.35713  -0.35400  -0.34968
 Alpha  occ. eigenvalues --   -0.33968  -0.33093  -0.32932  -0.32716  -0.32268
 Alpha  occ. eigenvalues --   -0.31411  -0.30484  -0.29694  -0.29581  -0.29344
 Alpha  occ. eigenvalues --   -0.27534  -0.27332  -0.26501  -0.25346  -0.24750
 Alpha  occ. eigenvalues --   -0.23599  -0.23204  -0.22512  -0.21785  -0.18854
 Alpha virt. eigenvalues --   -0.12982  -0.07355  -0.04560  -0.02708  -0.02166
 Alpha virt. eigenvalues --   -0.00135   0.01482   0.02089   0.02483   0.03094
 Alpha virt. eigenvalues --    0.03228   0.03848   0.04313   0.04719   0.05132

 Mulliken charges:
               1
     1  O   -0.208273
     2  O   -0.352386
     3  O   -0.196565
     4  O   -0.176719
     5  O   -0.296782
     6  O   -0.211547
     7  N    0.046240
     8  N   -0.179036
     9  N   -0.219253
    10  N   -0.302243
    11  C   -0.033468
    12  C    0.281586
    13  C   -0.099935
    14  C   -0.147508
    15  C   -0.055300
    16  C    0.015095
    17  C   -0.189594
    18  C    0.064659
    19  C   -0.054220
    20  C   -0.182769
    21  C    0.176832
    22  C    0.064938
    23  C    0.058855
    24  C    0.089907
    25  C    0.050597
    26  C   -0.064227
    27  C    0.103265
    28  C    0.089125
    29  C   -0.039201
    30  C   -0.102375
    31  C    0.039323
    32  C    0.115805
    33  C   -0.090835
    34  C    0.121802
    35  C    0.056218
    36  C   -0.050439
    37  C    0.134745
    38  C    0.101455
    39  C   -0.239162
    40  C    0.206244
    41  C   -0.071167
    42  C    0.205182
    43  C    0.006162
    44  H    0.083686
    45  H   -0.015945
    46  H   -0.046733
    47  H    0.055682
    48  H    0.159262
    49  H    0.001223
    50  H    0.013940
    51  H    0.015196
    52  H    0.007759
    53  H   -0.012718
    54  H    0.020803
    55  H    0.033714
    56  H    0.067222
    57  H    0.047192
    58  H    0.007405
    59  H    0.031861
    60  H    0.250348
    61  H    0.041110
    62  H    0.047155
    63  H    0.044395
    64  H    0.041466
    65  H    0.000881
    66  H    0.007888
    67  H    0.033401
    68  H    0.020327
    69  H   -0.001413
    70  H    0.028384
    71  H    0.053565
    72  H    0.227302
    73  H    0.036646
    74  H    0.008870
    75  H   -0.041430
    76  H    0.034916
    77  H    0.202267
    78  H    0.033539
    79  H   -0.004194
 Sum of Mulliken charges =  -0.00000

 Dipole moment (field-independent basis, Debye):
    X=              2.1795    Y=              3.6723    Z=             -1.5960  Tot=              4.5588
 Quadrupole moment (field-independent basis, Debye-Ang):
   XX=           -244.3521   YY=           -237.4437   ZZ=           -264.1872
   XY=             -6.7979   XZ=            -19.5933   YZ=            -17.3010

 Normal termination of Gaussian 16 at Wed Jul 31 10:39:25 2019.
