 Gaussian 16, Revision A.03,
 Gaussian 16:  ES64L-G16RevA.03 25-Dec-2016

 --------------------------
 # td=(NStates=1) B3LYP/SVP
 --------------------------

 --
 TD
 --
 Symbolic Z-matrix:
 Charge =  0 Multiplicity = 1

                         Standard orientation:
 ---------------------------------------------------------------------
 Center     Atomic      Atomic             Coordinates (Angstroms)
 Number     Number       Type             X           Y           Z
 ---------------------------------------------------------------------
      1          8           0       -3.194643   -0.745932   -3.022004
      2          8           0        3.099086    2.551767    3.377166
      3          8           0        3.547032    0.654362    4.652946
      4          8           0        7.739150   -1.462060   -0.891082
      5          8           0        6.552763   -2.785734   -2.251781
      6          8           0       -2.651809    1.441295    1.640090
      7          7           0       -0.288195   -2.534256    0.567548
      8          7           0       -2.699221   -0.962999   -0.669153
      9          7           0        1.246897    0.239235   -0.606534
     10          7           0       -1.007173    1.439938    0.037368
     11          6           0       -3.447837   -1.356496    0.464130
     12          6           0       -2.683096   -2.574889    1.163256
     13          6           0       -1.278479   -2.283632    1.425123
     14          6           0       -0.695602   -1.604264    2.571869
     15          6           0        0.662684   -1.516118    2.329141
     16          6           0        0.928145   -1.981370    0.979912
     17          6           0       -4.781648   -1.832687   -0.100293
     18          6           0        1.801357   -0.888814    3.053984
     19          6           0       -4.716266   -1.799376   -1.445920
     20          6           0        2.048422   -1.961723    0.020968
     21          6           0        2.132106   -0.777287   -0.808743
     22          6           0       -3.472498   -1.095731   -1.829372
     23          6           0        3.033060   -0.409994   -1.788717
     24          6           0       -1.359641   -1.014792    3.893405
     25          6           0       -5.852209   -2.342869    1.010083
     26          6           0        2.561470    0.780467   -2.402546
     27          6           0        1.868817    0.589473    2.862661
     28          6           0        1.462558    1.146803   -1.661108
     29          6           0        4.217259   -1.242375   -2.284355
     30          6           0       -5.806867   -2.099485   -2.316225
     31          6           0        5.516211   -0.735527   -1.370542
     32          6           0        3.236091    1.699144   -3.402039
     33          6           0        0.556694    2.296567   -1.748370
     34          6           0        2.955764    1.275627    3.798049
     35          6           0       -0.629712    2.382852   -0.861061
     36          6           0       -6.801647   -3.073276   -2.162743
     37          6           0        6.577149   -1.780467   -1.582925
     38          6           0       -1.377994    3.598123   -0.757757
     39          6           0       -2.270633    3.423521    0.232519
     40          6           0       -2.010330    2.048982    0.701629
     41          6           0       -1.230825    4.732081   -1.554718
     42          6           0       -3.355534    4.197020    0.794767
     43          6           0       -1.897762    5.942733   -1.543940
     44          1           0       -3.587668   -0.543379    1.115968
     45          1           0       -2.522460   -3.489107    0.495354
     46          1           0       -3.376841   -2.920153    2.061618
     47          1           0       -0.588747   -2.967865   -0.348913
     48          1           0       -1.904221   -0.150407   -0.759819
     49          1           0        1.818056   -1.261210    4.123404
     50          1           0        2.726163   -1.260018    2.623125
     51          1           0        2.715522   -2.744148    0.125106
     52          1           0       -2.048794   -1.732370    4.378655
     53          1           0       -0.468043   -0.773243    4.574242
     54          1           0       -1.981016   -0.144025    3.463516
     55          1           0       -5.709196   -1.841608    1.955342
     56          1           0       -5.355053   -3.441803    1.225327
     57          1           0       -6.867817   -2.220851    0.702689
     58          1           0        2.218813    0.746821    1.726220
     59          1           0        0.704573    1.174826    2.768266
     60          1           0        0.416450    0.339298   -0.191447
     61          1           0        4.383489   -0.953612   -3.307230
     62          1           0        4.158319   -2.371534   -2.129568
     63          1           0       -5.929177   -1.451762   -3.139711
     64          1           0        4.937963   -0.801707   -0.431514
     65          1           0        6.019702    0.245520   -1.452493
     66          1           0        4.144701    1.302270   -3.746030
     67          1           0        3.712846    2.601650   -2.848716
     68          1           0        2.468122    2.157682   -4.251903
     69          1           0        0.852165    3.197659   -2.305849
     70          1           0       -6.705434   -3.832509   -1.148480
     71          1           0       -7.512201   -3.106695   -2.946204
     72          1           0        3.777118    2.924038    3.885537
     73          1           0       -0.260678    4.721325   -2.017614
     74          1           0       -4.108767    4.649674   -0.061798
     75          1           0       -3.783126    3.580662    1.390895
     76          1           0       -3.155269    5.016228    1.265194
     77          1           0        8.341001   -2.139836   -1.016231
     78          1           0       -1.453945    6.587824   -2.303136
     79          1           0       -2.910564    5.946020   -0.901807
 ---------------------------------------------------------------------

 SCF Done:  E(RB3LYP) =  -1947.79680557     A.U. after   23 cycles

 Excitation energies and oscillator strengths:

 Excited State   1:      Singlet-A      0.4285 eV 2893.55 nm  f=0.0003  <S**2>=0.000
     155 ->156         0.70356
 This state for optimization and/or second-order correction.
 Total Energy, E(TD-HF/TD-DFT) =  -1947.78105907
 Copying the excited state density for this state as the 1-particle RhoCI density.

 The electronic state is 1-A.
 Alpha  occ. eigenvalues --  -19.18946 -19.18227 -19.14812 -19.13458 -19.11511
 Alpha  occ. eigenvalues --  -19.07415 -14.37390 -14.37081 -14.32837 -14.31559
 Alpha  occ. eigenvalues --  -10.33977 -10.32549 -10.27786 -10.26802 -10.26574
 Alpha  occ. eigenvalues --  -10.26241 -10.25852 -10.24099 -10.23852 -10.23840
 Alpha  occ. eigenvalues --  -10.23748 -10.23507 -10.23274 -10.22510 -10.21720
 Alpha  occ. eigenvalues --  -10.21425 -10.21362 -10.20894 -10.20626 -10.20604
 Alpha  occ. eigenvalues --  -10.20596 -10.20572 -10.20527 -10.20225 -10.19879
 Alpha  occ. eigenvalues --  -10.19258 -10.18359 -10.18326 -10.18275 -10.18171
 Alpha  occ. eigenvalues --  -10.17816 -10.17148 -10.16697  -1.10816  -1.10347
 Alpha  occ. eigenvalues --   -1.02117  -1.01990  -1.01444  -1.00723  -0.97495
 Alpha  occ. eigenvalues --   -0.96688  -0.94153  -0.91046  -0.84882  -0.83308
 Alpha  occ. eigenvalues --   -0.82448  -0.80052  -0.79532  -0.79338  -0.78259
 Alpha  occ. eigenvalues --   -0.77097  -0.75120  -0.74500  -0.74027  -0.72693
 Alpha  occ. eigenvalues --   -0.72422  -0.71120  -0.69500  -0.68699  -0.67721
 Alpha  occ. eigenvalues --   -0.66388  -0.65705  -0.63835  -0.62049  -0.61202
 Alpha  occ. eigenvalues --   -0.60174  -0.59194  -0.58806  -0.58497  -0.57822
 Alpha  occ. eigenvalues --   -0.56384  -0.55039  -0.54558  -0.53985  -0.53361
 Alpha  occ. eigenvalues --   -0.52239  -0.52055  -0.50913  -0.50600  -0.49501
 Alpha  occ. eigenvalues --   -0.49353  -0.48713  -0.48587  -0.48373  -0.47983
 Alpha  occ. eigenvalues --   -0.47703  -0.46952  -0.46414  -0.46149  -0.45904
 Alpha  occ. eigenvalues --   -0.45393  -0.45014  -0.44758  -0.44161  -0.43902
 Alpha  occ. eigenvalues --   -0.43339  -0.43311  -0.43041  -0.42541  -0.42207
 Alpha  occ. eigenvalues --   -0.41822  -0.41479  -0.41040  -0.40875  -0.40745
 Alpha  occ. eigenvalues --   -0.40644  -0.40378  -0.39998  -0.39813  -0.39627
 Alpha  occ. eigenvalues --   -0.39366  -0.39203  -0.39054  -0.38480  -0.38136
 Alpha  occ. eigenvalues --   -0.37774  -0.37272  -0.36761  -0.36730  -0.36267
 Alpha  occ. eigenvalues --   -0.36174  -0.35923  -0.34887  -0.34601  -0.34115
 Alpha  occ. eigenvalues --   -0.33809  -0.33542  -0.33314  -0.32125  -0.31579
 Alpha  occ. eigenvalues --   -0.31021  -0.30315  -0.30172  -0.29145  -0.28586
 Alpha  occ. eigenvalues --   -0.28446  -0.27599  -0.25801  -0.24075  -0.23626
 Alpha  occ. eigenvalues --   -0.23067  -0.22708  -0.22316  -0.21992  -0.18407
 Alpha virt. eigenvalues --   -0.14050  -0.09141  -0.03479  -0.02792  -0.02362
 Alpha virt. eigenvalues --   -0.00250   0.01664   0.01755   0.02402   0.02560
 Alpha virt. eigenvalues --    0.03525   0.04288   0.04508   0.05109   0.05587

 Mulliken charges:
               1
     1  O   -0.301318
     2  O   -0.140400
     3  O   -0.212319
     4  O   -0.183405
     5  O   -0.212408
     6  O   -0.272788
     7  N   -0.051148
     8  N   -0.277927
     9  N   -0.005058
    10  N   -0.271528
    11  C    0.143307
    12  C    0.109445
    13  C   -0.103835
    14  C   -0.133659
    15  C   -0.095602
    16  C   -0.052352
    17  C   -0.159288
    18  C    0.142607
    19  C   -0.015282
    20  C   -0.046989
    21  C    0.130065
    22  C    0.148991
    23  C   -0.112618
    24  C    0.046716
    25  C    0.061424
    26  C   -0.109978
    27  C   -0.158019
    28  C    0.092841
    29  C    0.090453
    30  C   -0.046102
    31  C   -0.046000
    32  C    0.055769
    33  C   -0.083095
    34  C    0.169370
    35  C    0.099917
    36  C   -0.059108
    37  C    0.150995
    38  C    0.055362
    39  C   -0.194351
    40  C    0.150332
    41  C   -0.059784
    42  C    0.235891
    43  C   -0.018052
    44  H    0.025079
    45  H   -0.016265
    46  H    0.015309
    47  H    0.130679
    48  H    0.205684
    49  H    0.026073
    50  H   -0.025829
    51  H   -0.002862
    52  H    0.009302
    53  H    0.025689
    54  H    0.065233
    55  H    0.017434
    56  H    0.059774
    57  H    0.040867
    58  H    0.046829
    59  H    0.087198
    60  H    0.105570
    61  H    0.026093
    62  H    0.065822
    63  H   -0.005923
    64  H    0.062875
    65  H    0.060618
    66  H   -0.004796
    67  H    0.041722
    68  H    0.075903
    69  H    0.001540
    70  H    0.048922
    71  H    0.015580
    72  H    0.148285
    73  H   -0.021929
    74  H    0.040695
    75  H   -0.040552
    76  H   -0.024588
    77  H    0.151008
    78  H    0.036416
    79  H    0.045472
 Sum of Mulliken charges =  -0.00000

 Dipole moment (field-independent basis, Debye):
    X=              5.0136    Y=              3.6848    Z=             -0.8828  Tot=              6.2844
 Quadrupole moment (field-independent basis, Debye-Ang):
   XX=           -233.7580   YY=           -232.7383   ZZ=           -276.0193
   XY=              6.9293   XZ=            -22.5855   YZ=             -8.6965

 Normal termination of Gaussian 16 at Thu Jul 25 21:52:44 2019.
