 Gaussian 16, Revision A.03,
 Gaussian 16:  ES64L-G16RevA.03 25-Dec-2016

 --------------------------
 # td=(NStates=1) B3LYP/SVP
 --------------------------

 --
 TD
 --
 Symbolic Z-matrix:
 Charge =  0 Multiplicity = 1

                         Standard orientation:
 ---------------------------------------------------------------------
 Center     Atomic      Atomic             Coordinates (Angstroms)
 Number     Number       Type             X           Y           Z
 ---------------------------------------------------------------------
      1          8           0       -3.236711   -1.130150   -2.969177
      2          8           0        3.030478    2.831730    3.417701
      3          8           0        3.673135    1.030298    4.500496
      4          8           0        7.757112   -1.337371   -0.910235
      5          8           0        6.700434   -2.884006   -2.201792
      6          8           0       -2.708138    1.562172    1.520571
      7          7           0       -0.299474   -2.511824    0.756771
      8          7           0       -2.628118   -1.186089   -0.733124
      9          7           0        1.114762    0.184641   -0.771656
     10          7           0       -1.009054    1.471635   -0.082917
     11          6           0       -3.375928   -1.459387    0.521228
     12          6           0       -2.583209   -2.500834    1.386904
     13          6           0       -1.205893   -2.134975    1.725776
     14          6           0       -0.666384   -1.415199    2.776342
     15          6           0        0.736855   -1.281017    2.424180
     16          6           0        0.913821   -2.016173    1.113795
     17          6           0       -4.677616   -1.967986    0.105256
     18          6           0        1.897167   -0.684918    3.103544
     19          6           0       -4.771357   -1.884427   -1.254426
     20          6           0        2.097939   -1.835638    0.205977
     21          6           0        2.115065   -0.805586   -0.707476
     22          6           0       -3.537324   -1.362231   -1.845969
     23          6           0        3.064042   -0.543305   -1.783784
     24          6           0       -1.314190   -0.819660    3.928730
     25          6           0       -5.634504   -2.353367    1.079658
     26          6           0        2.575986    0.595783   -2.435423
     27          6           0        1.830179    0.871544    2.955180
     28          6           0        1.397047    1.039480   -1.806335
     29          6           0        4.264262   -1.324428   -2.168712
     30          6           0       -5.818673   -2.246299   -2.168766
     31          6           0        5.416951   -1.016553   -1.267604
     32          6           0        3.228789    1.459690   -3.514548
     33          6           0        0.558568    2.128549   -1.967404
     34          6           0        2.943486    1.539668    3.685773
     35          6           0       -0.583502    2.279480   -1.133855
     36          6           0       -7.000725   -2.879276   -1.901239
     37          6           0        6.649811   -1.820478   -1.546754
     38          6           0       -1.396335    3.594794   -0.964420
     39          6           0       -2.334547    3.413142    0.017370
     40          6           0       -2.048245    2.025986    0.559962
     41          6           0       -1.389550    4.699715   -1.969282
     42          6           0       -3.554642    4.109393    0.537744
     43          6           0       -1.887294    5.941929   -1.796306
     44          1           0       -3.380752   -0.594558    1.171035
     45          1           0       -2.519206   -3.410732    0.798847
     46          1           0       -3.249466   -2.963795    2.218952
     47          1           0       -0.500649   -2.752956   -0.147534
     48          1           0       -1.967606   -0.390590   -0.675566
     49          1           0        1.973111   -0.954139    4.145400
     50          1           0        2.869161   -1.050542    2.762431
     51          1           0        2.826541   -2.585954    0.318174
     52          1           0       -1.834460   -1.740445    4.391564
     53          1           0       -0.604364   -0.291904    4.667000
     54          1           0       -1.968051   -0.028890    3.662995
     55          1           0       -5.528381   -2.044237    2.083789
     56          1           0       -5.525996   -3.512912    1.183749
     57          1           0       -6.697383   -2.085755    0.608448
     58          1           0        1.771581    1.226605    1.889556
     59          1           0        0.860379    1.474130    3.415145
     60          1           0        0.092106    0.476706   -0.361961
     61          1           0        4.548070   -1.352952   -3.198706
     62          1           0        4.051802   -2.319696   -2.239239
     63          1           0       -5.752142   -1.722374   -3.046886
     64          1           0        5.304648   -1.053066    0.018303
     65          1           0        5.618296    0.122594   -1.451370
     66          1           0        3.924843    0.861082   -4.216622
     67          1           0        4.037883    2.196844   -2.943940
     68          1           0        2.528476    2.228424   -4.099817
     69          1           0        0.943859    2.988388   -2.381693
     70          1           0       -6.955429   -3.520767   -1.103857
     71          1           0       -7.838735   -3.128601   -2.618388
     72          1           0        3.676970    3.058473    4.257003
     73          1           0       -0.851778    4.392131   -3.021124
     74          1           0       -4.353133    4.427741   -0.027522
     75          1           0       -4.141052    3.513645    1.269200
     76          1           0       -3.111917    5.116110    0.881431
     77          1           0        8.613005   -1.912429   -1.373216
     78          1           0       -2.035015    6.623360   -2.605461
     79          1           0       -2.262819    6.336644   -0.644847
 ---------------------------------------------------------------------

 SCF Done:  E(RB3LYP) =  -1947.85029328     A.U. after   16 cycles

 Excitation energies and oscillator strengths:

 Excited State   1:      Singlet-A      0.8894 eV 1394.06 nm  f=0.0046  <S**2>=0.000
     155 ->156         0.70409
 This state for optimization and/or second-order correction.
 Total Energy, E(TD-HF/TD-DFT) =  -1947.81760946
 Copying the excited state density for this state as the 1-particle RhoCI density.

 The electronic state is 1-A.
 Alpha  occ. eigenvalues --  -19.20133 -19.18216 -19.14021 -19.11871 -19.11660
 Alpha  occ. eigenvalues --  -19.09028 -14.36626 -14.36338 -14.32380 -14.31739
 Alpha  occ. eigenvalues --  -10.33724 -10.30794 -10.28259 -10.26718 -10.26597
 Alpha  occ. eigenvalues --  -10.26212 -10.25858 -10.24852 -10.24069 -10.23608
 Alpha  occ. eigenvalues --  -10.23386 -10.22850 -10.22199 -10.21836 -10.21341
 Alpha  occ. eigenvalues --  -10.21331 -10.21298 -10.21129 -10.21058 -10.20978
 Alpha  occ. eigenvalues --  -10.20775 -10.20277 -10.20222 -10.19984 -10.19334
 Alpha  occ. eigenvalues --  -10.19166 -10.18830 -10.18303 -10.18251 -10.18122
 Alpha  occ. eigenvalues --  -10.18000 -10.17961 -10.17426  -1.10037  -1.08520
 Alpha  occ. eigenvalues --   -1.02390  -1.01597  -0.99487  -0.99346  -0.99049
 Alpha  occ. eigenvalues --   -0.97161  -0.93455  -0.90934  -0.84758  -0.82399
 Alpha  occ. eigenvalues --   -0.81127  -0.80794  -0.80346  -0.79440  -0.78681
 Alpha  occ. eigenvalues --   -0.76986  -0.76524  -0.75340  -0.74511  -0.72447
 Alpha  occ. eigenvalues --   -0.70666  -0.70287  -0.70208  -0.69033  -0.67953
 Alpha  occ. eigenvalues --   -0.67257  -0.66068  -0.63362  -0.60817  -0.60417
 Alpha  occ. eigenvalues --   -0.59608  -0.58853  -0.58277  -0.57017  -0.56550
 Alpha  occ. eigenvalues --   -0.55765  -0.55413  -0.55046  -0.53701  -0.52971
 Alpha  occ. eigenvalues --   -0.52097  -0.51815  -0.50664  -0.49637  -0.49519
 Alpha  occ. eigenvalues --   -0.49010  -0.48785  -0.48595  -0.48241  -0.48054
 Alpha  occ. eigenvalues --   -0.47174  -0.46941  -0.46684  -0.45858  -0.45485
 Alpha  occ. eigenvalues --   -0.45298  -0.44908  -0.44610  -0.44306  -0.44205
 Alpha  occ. eigenvalues --   -0.43883  -0.43481  -0.43242  -0.42754  -0.42355
 Alpha  occ. eigenvalues --   -0.41988  -0.41565  -0.41480  -0.41020  -0.40911
 Alpha  occ. eigenvalues --   -0.40864  -0.40518  -0.40123  -0.39869  -0.39612
 Alpha  occ. eigenvalues --   -0.39345  -0.39262  -0.39015  -0.38764  -0.38492
 Alpha  occ. eigenvalues --   -0.38304  -0.38105  -0.37275  -0.36979  -0.36525
 Alpha  occ. eigenvalues --   -0.35820  -0.35463  -0.34752  -0.34593  -0.34496
 Alpha  occ. eigenvalues --   -0.33862  -0.32999  -0.32821  -0.32038  -0.31753
 Alpha  occ. eigenvalues --   -0.31348  -0.30176  -0.29482  -0.29279  -0.29102
 Alpha  occ. eigenvalues --   -0.27900  -0.26932  -0.25823  -0.25068  -0.24063
 Alpha  occ. eigenvalues --   -0.23615  -0.23068  -0.22702  -0.22451  -0.18826
 Alpha virt. eigenvalues --   -0.12947  -0.07851  -0.04753  -0.03036  -0.02051
 Alpha virt. eigenvalues --   -0.00103   0.00681   0.01442   0.01771   0.01966
 Alpha virt. eigenvalues --    0.03190   0.03590   0.03762   0.04384   0.04629

 Mulliken charges:
               1
     1  O   -0.184413
     2  O   -0.211797
     3  O   -0.249222
     4  O   -0.263455
     5  O   -0.264566
     6  O   -0.246702
     7  N    0.003838
     8  N   -0.292818
     9  N   -0.179253
    10  N   -0.311362
    11  C    0.097292
    12  C    0.113020
    13  C   -0.075625
    14  C   -0.063898
    15  C   -0.129255
    16  C   -0.053280
    17  C   -0.114225
    18  C    0.157823
    19  C   -0.073629
    20  C   -0.090036
    21  C    0.186804
    22  C    0.153850
    23  C   -0.057753
    24  C    0.075945
    25  C    0.055519
    26  C   -0.091464
    27  C   -0.080140
    28  C    0.108146
    29  C    0.201451
    30  C    0.014308
    31  C   -0.105562
    32  C   -0.026920
    33  C   -0.043753
    34  C    0.125544
    35  C    0.091347
    36  C   -0.027348
    37  C    0.179506
    38  C   -0.015714
    39  C   -0.136339
    40  C    0.165617
    41  C   -0.044088
    42  C    0.090118
    43  C   -0.069353
    44  H    0.038822
    45  H   -0.045154
    46  H   -0.003973
    47  H    0.090600
    48  H    0.142599
    49  H    0.002538
    50  H   -0.010696
    51  H    0.003965
    52  H    0.027511
    53  H    0.010994
    54  H    0.029051
    55  H    0.012210
    56  H    0.044978
    57  H    0.059630
    58  H    0.038065
    59  H    0.070002
    60  H    0.233654
    61  H   -0.002516
    62  H   -0.017716
    63  H   -0.024131
    64  H    0.098035
    65  H    0.058008
    66  H    0.043382
    67  H    0.052440
    68  H    0.063273
    69  H   -0.020134
    70  H   -0.007731
    71  H    0.033566
    72  H    0.210853
    73  H    0.038405
    74  H    0.004996
    75  H    0.036777
    76  H    0.034521
    77  H    0.253387
    78  H    0.026959
    79  H    0.054670
 Sum of Mulliken charges =  -0.00000

 Dipole moment (field-independent basis, Debye):
    X=              3.3752    Y=              2.4966    Z=             -0.9479  Tot=              4.3039
 Quadrupole moment (field-independent basis, Debye-Ang):
   XX=           -231.9713   YY=           -240.1047   ZZ=           -265.9161
   XY=              6.7256   XZ=            -24.5461   YZ=            -10.0726

 Normal termination of Gaussian 16 at Sun Jul 28 14:02:20 2019.
