 Gaussian 16, Revision A.03,
 Gaussian 16:  ES64L-G16RevA.03 25-Dec-2016

 --------------------------
 # td=(NStates=1) B3LYP/SVP
 --------------------------

 --
 TD
 --
 Symbolic Z-matrix:
 Charge =  0 Multiplicity = 1

                         Standard orientation:
 ---------------------------------------------------------------------
 Center     Atomic      Atomic             Coordinates (Angstroms)
 Number     Number       Type             X           Y           Z
 ---------------------------------------------------------------------
      1          8           0       -3.107867   -1.304123   -2.908745
      2          8           0        2.895737    2.904157    3.444463
      3          8           0        3.770627    1.046535    4.422775
      4          8           0        7.856645   -1.383525   -0.879187
      5          8           0        6.742588   -2.861388   -2.182036
      6          8           0       -2.648651    1.516875    1.476003
      7          7           0       -0.145442   -2.426352    0.708059
      8          7           0       -2.603679   -1.167387   -0.637517
      9          7           0        1.144374    0.166431   -0.683580
     10          7           0       -1.057005    1.527725   -0.047649
     11          6           0       -3.277017   -1.432554    0.639070
     12          6           0       -2.562462   -2.604025    1.310670
     13          6           0       -1.158286   -2.193579    1.610373
     14          6           0       -0.569202   -1.460453    2.713719
     15          6           0        0.705496   -1.313245    2.438230
     16          6           0        0.941780   -1.958680    1.047561
     17          6           0       -4.727557   -1.910454    0.168968
     18          6           0        1.798575   -0.716996    3.198603
     19          6           0       -4.751863   -1.942563   -1.214484
     20          6           0        2.122052   -2.003971    0.121812
     21          6           0        2.056447   -0.809427   -0.684747
     22          6           0       -3.476865   -1.480192   -1.693796
     23          6           0        3.015625   -0.456006   -1.740552
     24          6           0       -1.341016   -0.871844    3.835617
     25          6           0       -5.715064   -2.237177    1.163592
     26          6           0        2.524117    0.706605   -2.368065
     27          6           0        1.759431    0.782945    2.919413
     28          6           0        1.306760    1.065418   -1.777630
     29          6           0        4.192642   -1.326683   -2.077762
     30          6           0       -5.805114   -2.504868   -2.223194
     31          6           0        5.523082   -0.909333   -1.375100
     32          6           0        3.234456    1.479437   -3.519480
     33          6           0        0.397826    2.135558   -1.913804
     34          6           0        2.922813    1.530246    3.674655
     35          6           0       -0.723259    2.301044   -0.994785
     36          6           0       -6.885926   -3.078058   -2.031233
     37          6           0        6.715129   -1.842521   -1.503456
     38          6           0       -1.509092    3.595480   -1.143302
     39          6           0       -2.397697    3.455692    0.015947
     40          6           0       -2.087395    2.032599    0.580301
     41          6           0       -1.289418    4.819047   -1.934577
     42          6           0       -3.493668    4.288372    0.449619
     43          6           0       -1.943357    6.045503   -1.887522
     44          1           0       -3.427152   -0.394312    1.400708
     45          1           0       -2.511928   -3.619292    0.750998
     46          1           0       -3.310336   -2.668972    2.231986
     47          1           0       -0.260032   -2.601051   -0.396300
     48          1           0       -1.996541   -0.195778   -0.738373
     49          1           0        1.673566   -0.735842    4.421743
     50          1           0        2.810107   -1.120547    2.853171
     51          1           0        2.767566   -2.788320   -0.126559
     52          1           0       -2.157424   -1.495306    4.419873
     53          1           0       -0.615556   -0.406097    4.491453
     54          1           0       -1.837483   -0.122933    3.239041
     55          1           0       -5.532574   -1.872703    2.055310
     56          1           0       -5.695640   -3.324886    1.176510
     57          1           0       -6.910944   -2.153880    0.808467
     58          1           0        1.997125    1.174548    1.876866
     59          1           0        0.815274    1.309626    3.312471
     60          1           0        0.421514    0.397223    0.076251
     61          1           0        4.234809   -1.225257   -3.294485
     62          1           0        3.876531   -2.468936   -1.850185
     63          1           0       -5.149324   -2.306792   -3.186390
     64          1           0        5.126003   -0.579891   -0.451888
     65          1           0        5.903650    0.008775   -1.615023
     66          1           0        3.941646    0.904969   -3.837251
     67          1           0        3.485184    2.428851   -3.142103
     68          1           0        2.256938    1.802771   -4.190621
     69          1           0        0.678991    2.922254   -2.576101
     70          1           0       -7.328669   -3.158888   -0.800698
     71          1           0       -7.656787   -3.434843   -2.733599
     72          1           0        3.633035    3.349806    3.939039
     73          1           0       -0.514250    4.493457   -2.724845
     74          1           0       -4.128123    4.674248   -0.333401
     75          1           0       -3.964696    3.568783    1.173828
     76          1           0       -3.114522    5.273864    0.953164
     77          1           0        8.419336   -2.110038   -0.891209
     78          1           0       -1.781589    6.817434   -2.470405
     79          1           0       -2.599906    6.494887   -1.010790
 ---------------------------------------------------------------------

 SCF Done:  E(RB3LYP) =  -1947.71355392     A.U. after   21 cycles

 Excitation energies and oscillator strengths:

 Excited State   1:      Singlet-A      0.5972 eV 2075.92 nm  f=0.0111  <S**2>=0.000
     155 ->156         0.70818
 This state for optimization and/or second-order correction.
 Total Energy, E(TD-HF/TD-DFT) =  -1947.69160543
 Copying the excited state density for this state as the 1-particle RhoCI density.

 The electronic state is 1-A.
 Alpha  occ. eigenvalues --  -19.18916 -19.17326 -19.14318 -19.13120 -19.12448
 Alpha  occ. eigenvalues --  -19.07883 -14.38317 -14.37362 -14.33057 -14.31659
 Alpha  occ. eigenvalues --  -10.34141 -10.31762 -10.28697 -10.26677 -10.26564
 Alpha  occ. eigenvalues --  -10.26495 -10.25749 -10.24394 -10.23545 -10.23365
 Alpha  occ. eigenvalues --  -10.22923 -10.22887 -10.22652 -10.22168 -10.22071
 Alpha  occ. eigenvalues --  -10.21841 -10.21518 -10.21471 -10.21449 -10.21410
 Alpha  occ. eigenvalues --  -10.21282 -10.20959 -10.20888 -10.20348 -10.20242
 Alpha  occ. eigenvalues --  -10.19904 -10.19568 -10.19181 -10.19152 -10.18925
 Alpha  occ. eigenvalues --  -10.18240 -10.17123 -10.16961  -1.10782  -1.07199
 Alpha  occ. eigenvalues --   -1.07085  -1.01560  -1.00498  -0.99383  -0.98638
 Alpha  occ. eigenvalues --   -0.97663  -0.97460  -0.89928  -0.83469  -0.82462
 Alpha  occ. eigenvalues --   -0.81577  -0.81216  -0.80378  -0.79279  -0.78661
 Alpha  occ. eigenvalues --   -0.76887  -0.76523  -0.75634  -0.74986  -0.73415
 Alpha  occ. eigenvalues --   -0.71405  -0.70983  -0.70179  -0.69885  -0.67905
 Alpha  occ. eigenvalues --   -0.66509  -0.65460  -0.62887  -0.62387  -0.61935
 Alpha  occ. eigenvalues --   -0.60414  -0.58169  -0.57472  -0.57073  -0.56799
 Alpha  occ. eigenvalues --   -0.55893  -0.55603  -0.54932  -0.54369  -0.52690
 Alpha  occ. eigenvalues --   -0.52630  -0.51765  -0.50765  -0.49850  -0.49604
 Alpha  occ. eigenvalues --   -0.49277  -0.48905  -0.48757  -0.47947  -0.47826
 Alpha  occ. eigenvalues --   -0.47326  -0.47226  -0.46839  -0.46431  -0.46261
 Alpha  occ. eigenvalues --   -0.45753  -0.45610  -0.45251  -0.44870  -0.44179
 Alpha  occ. eigenvalues --   -0.43961  -0.43709  -0.43406  -0.43046  -0.42515
 Alpha  occ. eigenvalues --   -0.42278  -0.41971  -0.41697  -0.41437  -0.41238
 Alpha  occ. eigenvalues --   -0.41124  -0.40969  -0.40728  -0.40390  -0.40265
 Alpha  occ. eigenvalues --   -0.39328  -0.39123  -0.38741  -0.38260  -0.37940
 Alpha  occ. eigenvalues --   -0.37812  -0.37665  -0.37233  -0.37101  -0.36347
 Alpha  occ. eigenvalues --   -0.36033  -0.35500  -0.35012  -0.34783  -0.34628
 Alpha  occ. eigenvalues --   -0.33601  -0.33212  -0.32794  -0.31677  -0.31504
 Alpha  occ. eigenvalues --   -0.30668  -0.30475  -0.30032  -0.29756  -0.29012
 Alpha  occ. eigenvalues --   -0.27441  -0.26975  -0.26498  -0.24557  -0.23817
 Alpha  occ. eigenvalues --   -0.23469  -0.23262  -0.23100  -0.22487  -0.17543
 Alpha virt. eigenvalues --   -0.13177  -0.08451  -0.04450  -0.02942  -0.01934
 Alpha virt. eigenvalues --    0.00366   0.01416   0.02290   0.02540   0.03430
 Alpha virt. eigenvalues --    0.03597   0.03803   0.04199   0.04650   0.04902

 Mulliken charges:
               1
     1  O   -0.310943
     2  O   -0.237937
     3  O   -0.240563
     4  O   -0.168553
     5  O   -0.224961
     6  O   -0.155837
     7  N    0.056822
     8  N   -0.275758
     9  N   -0.143707
    10  N   -0.179740
    11  C   -0.063186
    12  C    0.147910
    13  C   -0.112517
    14  C   -0.085368
    15  C   -0.102707
    16  C   -0.111890
    17  C   -0.184626
    18  C    0.074068
    19  C   -0.077827
    20  C   -0.059948
    21  C    0.065891
    22  C    0.156014
    23  C   -0.106739
    24  C    0.093996
    25  C    0.123806
    26  C   -0.160325
    27  C   -0.069340
    28  C    0.141635
    29  C   -0.016973
    30  C    0.105999
    31  C    0.082994
    32  C    0.198099
    33  C   -0.094730
    34  C    0.142121
    35  C    0.082331
    36  C   -0.114566
    37  C    0.165568
    38  C   -0.029802
    39  C   -0.223559
    40  C    0.112650
    41  C    0.018184
    42  C    0.052100
    43  C   -0.015831
    44  H    0.117080
    45  H    0.016363
    46  H   -0.005017
    47  H    0.175752
    48  H    0.200278
    49  H    0.040842
    50  H    0.017471
    51  H   -0.011062
    52  H    0.032319
    53  H   -0.008486
    54  H    0.032991
    55  H   -0.013698
    56  H    0.034846
    57  H    0.058358
    58  H    0.043860
    59  H    0.060761
    60  H    0.213395
    61  H    0.050864
    62  H    0.063214
    63  H    0.037043
    64  H    0.021984
    65  H    0.001888
    66  H   -0.025244
    67  H    0.018068
    68  H    0.045856
    69  H   -0.034386
    70  H    0.013610
    71  H    0.032963
    72  H    0.190376
    73  H    0.018025
    74  H    0.037443
    75  H    0.041456
    76  H    0.047402
    77  H    0.155544
    78  H   -0.014995
    79  H    0.040585
 Sum of Mulliken charges =  -0.00000

 Dipole moment (field-independent basis, Debye):
    X=              2.0609    Y=              3.7425    Z=              0.2259  Tot=              4.2784
 Quadrupole moment (field-independent basis, Debye-Ang):
   XX=           -240.2081   YY=           -234.0503   ZZ=           -274.6918
   XY=              6.2980   XZ=            -22.5085   YZ=            -11.3090

 Normal termination of Gaussian 16 at Sun Jul 28 03:33:37 2019.
