 Gaussian 16, Revision A.03,
 Gaussian 16:  ES64L-G16RevA.03 25-Dec-2016

 --------------------------
 # td=(NStates=1) B3LYP/SVP
 --------------------------

 --
 TD
 --
 Symbolic Z-matrix:
 Charge =  0 Multiplicity = 1

                         Standard orientation:
 ---------------------------------------------------------------------
 Center     Atomic      Atomic             Coordinates (Angstroms)
 Number     Number       Type             X           Y           Z
 ---------------------------------------------------------------------
      1          8           0        5.058747   -0.184483   -3.285752
      2          8           0       -3.211976   -2.963920    2.934176
      3          8           0       -3.424851   -0.792291    3.010393
      4          8           0       -1.553482    7.072503    1.544350
      5          8           0       -0.621029    7.035862   -0.552986
      6          8           0       -1.676547   -3.944680    0.075709
      7          7           0        2.219584    0.925642    0.723688
      8          7           0        4.265381   -0.685362   -1.137591
      9          7           0       -1.905766    0.765542   -0.260468
     10          7           0       -2.478953   -1.881773   -0.597219
     11          6           0        4.718390   -1.292495    0.119054
     12          6           0        4.383181   -0.272583    1.306788
     13          6           0        2.902665   -0.006871    1.429141
     14          6           0        1.856211   -0.638727    2.213748
     15          6           0        0.681442    0.012150    1.939145
     16          6           0        0.872966    1.045311    1.012226
     17          6           0        6.296589   -1.424250   -0.180900
     18          6           0       -0.617530   -0.185470    2.763425
     19          6           0        6.488639   -1.066953   -1.496780
     20          6           0        0.177271    2.055886    0.300536
     21          6           0       -1.069568    1.922791   -0.290861
     22          6           0        5.142407   -0.541650   -2.101848
     23          6           0       -1.866577    2.896599   -0.918147
     24          6           0        2.138647   -1.877393    3.178789
     25          6           0        7.116050   -1.910075    0.888216
     26          6           0       -2.994019    2.299104   -1.392187
     27          6           0       -1.177743   -1.687259    2.753874
     28          6           0       -2.964413    0.908059   -1.023046
     29          6           0       -1.364729    4.370000   -1.032155
     30          6           0        7.746972   -0.772649   -2.178628
     31          6           0       -1.465890    5.021637    0.381221
     32          6           0       -4.135207    3.089343   -2.210962
     33          6           0       -3.909433   -0.078836   -1.297218
     34          6           0       -2.712980   -1.718430    2.919922
     35          6           0       -3.580659   -1.409253   -1.078339
     36          6           0        9.017014   -0.752611   -1.622614
     37          6           0       -1.112893    6.440163    0.457165
     38          6           0       -4.407615   -2.549092   -1.553239
     39          6           0       -3.830309   -3.766534   -1.078658
     40          6           0       -2.594566   -3.223421   -0.483949
     41          6           0       -5.712305   -2.439330   -2.106094
     42          6           0       -4.174784   -5.246670   -1.181452
     43          6           0       -6.573120   -3.312040   -2.592559
     44          1           0        4.177043   -2.253817    0.286392
     45          1           0        4.807619    0.585327    1.131071
     46          1           0        4.760779   -0.595333    2.362372
     47          1           0        2.856342    1.433214    0.054937
     48          1           0        3.117046   -0.805253   -1.497796
     49          1           0       -0.339672    0.330714    3.926049
     50          1           0       -1.258428    0.576314    2.438483
     51          1           0        0.754077    3.018054   -0.104194
     52          1           0        3.162672   -2.157587    3.005822
     53          1           0        1.766270   -1.631109    4.191942
     54          1           0        1.643742   -2.635056    2.800735
     55          1           0        6.727078   -2.578221    1.706263
     56          1           0        7.724706   -1.076595    1.393690
     57          1           0        7.950443   -2.511281    0.393235
     58          1           0       -1.052047   -2.122043    1.832876
     59          1           0       -0.714577   -2.156797    3.461571
     60          1           0       -1.551125   -0.182630   -0.252016
     61          1           0       -1.860545    5.194469   -1.772367
     62          1           0       -0.351695    4.336775   -1.419523
     63          1           0        7.460102   -0.605356   -3.253334
     64          1           0       -0.693243    4.527091    1.209802
     65          1           0       -2.567596    5.142986    0.884650
     66          1           0       -3.900412    4.155321   -2.054811
     67          1           0       -5.150802    3.066652   -1.778591
     68          1           0       -3.948867    2.783480   -3.305313
     69          1           0       -4.923343    0.323656   -1.561206
     70          1           0        9.133144   -0.802220   -0.654512
     71          1           0        9.712829   -0.337566   -2.394355
     72          1           0       -4.170360   -2.872394    3.030794
     73          1           0       -5.999849   -1.411232   -2.427771
     74          1           0       -5.323173   -5.313492   -0.869782
     75          1           0       -4.110286   -5.557829   -2.321230
     76          1           0       -3.396508   -5.649268   -0.373595
     77          1           0       -1.393624    8.039003    1.404844
     78          1           0       -7.549958   -2.985739   -3.030077
     79          1           0       -6.411012   -4.255211   -2.412732
 ---------------------------------------------------------------------

 SCF Done:  E(RB3LYP) =  -1947.81606541     A.U. after   19 cycles

 Excitation energies and oscillator strengths:

 Excited State   1:      Singlet-A      2.0644 eV  600.58 nm  f=0.3600  <S**2>=0.000
     154 ->156         0.28028
     155 ->156         0.64120
     155 <-156        -0.10270
 This state for optimization and/or second-order correction.
 Total Energy, E(TD-HF/TD-DFT) =  -1947.74019956
 Copying the excited state density for this state as the 1-particle RhoCI density.

 The electronic state is 1-A.
 Alpha  occ. eigenvalues --  -19.20331 -19.16104 -19.12565 -19.10917 -19.10417
 Alpha  occ. eigenvalues --  -19.09027 -14.39232 -14.38089 -14.36366 -14.28338
 Alpha  occ. eigenvalues --  -10.32827 -10.30015 -10.29189 -10.26808 -10.25486
 Alpha  occ. eigenvalues --  -10.24299 -10.24265 -10.23782 -10.23775 -10.23694
 Alpha  occ. eigenvalues --  -10.23534 -10.23104 -10.22924 -10.22661 -10.22648
 Alpha  occ. eigenvalues --  -10.22231 -10.21417 -10.21317 -10.21253 -10.21113
 Alpha  occ. eigenvalues --  -10.20646 -10.20623 -10.20546 -10.19671 -10.19485
 Alpha  occ. eigenvalues --  -10.19475 -10.19375 -10.19321 -10.19003 -10.18975
 Alpha  occ. eigenvalues --  -10.18670 -10.17860 -10.17539  -1.10641  -1.09398
 Alpha  occ. eigenvalues --   -1.02105  -1.00083  -0.99879  -0.99528  -0.98872
 Alpha  occ. eigenvalues --   -0.98131  -0.94685  -0.92023  -0.83427  -0.82261
 Alpha  occ. eigenvalues --   -0.81837  -0.80588  -0.80124  -0.79687  -0.78220
 Alpha  occ. eigenvalues --   -0.77300  -0.76047  -0.75945  -0.74570  -0.73040
 Alpha  occ. eigenvalues --   -0.71508  -0.71087  -0.69663  -0.69314  -0.68834
 Alpha  occ. eigenvalues --   -0.67196  -0.66747  -0.64760  -0.61411  -0.60866
 Alpha  occ. eigenvalues --   -0.60312  -0.59311  -0.58630  -0.57466  -0.56829
 Alpha  occ. eigenvalues --   -0.56373  -0.55995  -0.55172  -0.54084  -0.53268
 Alpha  occ. eigenvalues --   -0.52431  -0.52102  -0.51077  -0.49660  -0.49515
 Alpha  occ. eigenvalues --   -0.49273  -0.48992  -0.48534  -0.48019  -0.47383
 Alpha  occ. eigenvalues --   -0.47085  -0.46614  -0.46533  -0.46377  -0.45889
 Alpha  occ. eigenvalues --   -0.45250  -0.44970  -0.44830  -0.44175  -0.43567
 Alpha  occ. eigenvalues --   -0.43415  -0.43172  -0.43009  -0.42829  -0.42669
 Alpha  occ. eigenvalues --   -0.42184  -0.42066  -0.42022  -0.41317  -0.41185
 Alpha  occ. eigenvalues --   -0.40841  -0.40764  -0.40356  -0.39895  -0.39725
 Alpha  occ. eigenvalues --   -0.39417  -0.39045  -0.38630  -0.38528  -0.38133
 Alpha  occ. eigenvalues --   -0.37845  -0.37663  -0.37465  -0.37424  -0.37125
 Alpha  occ. eigenvalues --   -0.36665  -0.36045  -0.34956  -0.34684  -0.33842
 Alpha  occ. eigenvalues --   -0.33505  -0.33086  -0.32721  -0.32258  -0.31584
 Alpha  occ. eigenvalues --   -0.31472  -0.31100  -0.29049  -0.27863  -0.27570
 Alpha  occ. eigenvalues --   -0.27069  -0.26701  -0.26080  -0.25738  -0.25177
 Alpha  occ. eigenvalues --   -0.24088  -0.23622  -0.23362  -0.21687  -0.19376
 Alpha virt. eigenvalues --   -0.11179  -0.06978  -0.06463  -0.01675  -0.00562
 Alpha virt. eigenvalues --   -0.00114   0.01337   0.01730   0.02527   0.03084
 Alpha virt. eigenvalues --    0.03637   0.03812   0.04109   0.04394   0.05173

 Mulliken charges:
               1
     1  O   -0.251378
     2  O   -0.176809
     3  O   -0.193204
     4  O   -0.171139
     5  O   -0.297905
     6  O   -0.290151
     7  N   -0.076540
     8  N   -0.234565
     9  N   -0.027497
    10  N   -0.198070
    11  C    0.060308
    12  C    0.272134
    13  C   -0.168838
    14  C   -0.174946
    15  C   -0.126520
    16  C    0.115907
    17  C   -0.132426
    18  C    0.042220
    19  C   -0.077659
    20  C   -0.118166
    21  C    0.044250
    22  C    0.153263
    23  C   -0.021300
    24  C    0.210300
    25  C    0.025408
    26  C   -0.170016
    27  C    0.145652
    28  C    0.055635
    29  C    0.074463
    30  C   -0.053743
    31  C   -0.089442
    32  C    0.082636
    33  C   -0.156820
    34  C    0.084246
    35  C    0.124705
    36  C    0.059126
    37  C    0.140755
    38  C    0.013642
    39  C   -0.175426
    40  C    0.129815
    41  C   -0.048630
    42  C   -0.002858
    43  C    0.031216
    44  H    0.040769
    45  H   -0.073124
    46  H    0.038564
    47  H    0.129123
    48  H    0.198011
    49  H    0.024459
    50  H   -0.013822
    51  H    0.033406
    52  H   -0.020229
    53  H    0.034574
    54  H   -0.009991
    55  H    0.038982
    56  H    0.049822
    57  H    0.044169
    58  H    0.034334
    59  H   -0.022925
    60  H    0.142150
    61  H    0.058507
    62  H    0.024788
    63  H    0.029050
    64  H    0.077311
    65  H    0.075349
    66  H    0.004292
    67  H    0.036278
    68  H    0.058751
    69  H    0.012603
    70  H   -0.041573
    71  H    0.046382
    72  H    0.168885
    73  H   -0.015261
    74  H    0.052120
    75  H    0.067438
    76  H    0.079446
    77  H    0.199679
    78  H    0.028442
    79  H   -0.062396
 Sum of Mulliken charges =  -0.00000

 Dipole moment (field-independent basis, Debye):
    X=              1.3242    Y=              3.4051    Z=              3.7645  Tot=              5.2459
 Quadrupole moment (field-independent basis, Debye-Ang):
   XX=           -224.2264   YY=           -249.4825   ZZ=           -264.7121
   XY=            -12.2254   XZ=             32.7841   YZ=              4.8974

 Normal termination of Gaussian 16 at Fri Sep 27 06:34:57 2019.
