 Gaussian 16, Revision A.03,
 Gaussian 16:  ES64L-G16RevA.03 25-Dec-2016

 --------------------------
 # td=(NStates=1) B3LYP/SVP
 --------------------------

 --
 TD
 --
 Symbolic Z-matrix:
 Charge =  0 Multiplicity = 1

                         Standard orientation:
 ---------------------------------------------------------------------
 Center     Atomic      Atomic             Coordinates (Angstroms)
 Number     Number       Type             X           Y           Z
 ---------------------------------------------------------------------
      1          8           0       -3.210956   -1.948946   -2.700829
      2          8           0        3.304525    3.560372    2.351109
      3          8           0        3.302645    2.330523    4.286223
      4          8           0        7.814851   -1.526924   -0.776688
      5          8           0        6.591486   -3.363146   -1.508909
      6          8           0       -2.566490    1.880277    1.352167
      7          7           0       -0.168552   -2.245170    1.372349
      8          7           0       -2.598853   -1.403411   -0.449194
      9          7           0        1.109238   -0.010461   -0.648309
     10          7           0       -1.001606    1.371130   -0.210656
     11          6           0       -3.293959   -1.151412    0.776614
     12          6           0       -2.664440   -1.998911    1.896877
     13          6           0       -1.212909   -1.751490    2.137975
     14          6           0       -0.587039   -0.789162    2.923316
     15          6           0        0.816451   -0.697076    2.659737
     16          6           0        1.016930   -1.640775    1.570097
     17          6           0       -4.736812   -1.745053    0.520963
     18          6           0        1.855292    0.175358    3.223891
     19          6           0       -4.722483   -2.151082   -0.810259
     20          6           0        2.181558   -1.832116    0.642514
     21          6           0        2.148045   -1.014996   -0.513778
     22          6           0       -3.437743   -1.786231   -1.541534
     23          6           0        2.991998   -0.975695   -1.626408
     24          6           0       -1.392296    0.013186    3.927907
     25          6           0       -5.816762   -1.756116    1.440177
     26          6           0        2.539513    0.077352   -2.460912
     27          6           0        1.902719    1.540988    2.390200
     28          6           0        1.320637    0.590130   -1.885667
     29          6           0        4.217495   -1.799008   -1.806139
     30          6           0       -5.872391   -2.775385   -1.691366
     31          6           0        5.432142   -1.315696   -0.806730
     32          6           0        3.184255    0.600424   -3.610460
     33          6           0        0.496261    1.647258   -2.293297
     34          6           0        2.916587    2.551103    3.222405
     35          6           0       -0.601414    2.070922   -1.432573
     36          6           0       -6.809492   -3.514029   -1.161537
     37          6           0        6.629699   -2.200186   -1.127227
     38          6           0       -1.495857    3.187722   -1.747632
     39          6           0       -2.363316    3.278892   -0.673695
     40          6           0       -2.061823    2.126177    0.295548
     41          6           0       -1.272657    4.054925   -2.927643
     42          6           0       -3.460114    4.354133   -0.303595
     43          6           0       -1.989573    5.008016   -3.317522
     44          1           0       -3.448574   -0.104724    1.045479
     45          1           0       -3.008315   -3.075382    1.814383
     46          1           0       -3.179924   -1.685647    2.813439
     47          1           0       -0.272742   -3.016992    0.433990
     48          1           0       -2.234429   -0.477234   -0.841539
     49          1           0        1.956234    0.400747    4.329720
     50          1           0        2.887992   -0.293678    3.153675
     51          1           0        2.934672   -2.604275    0.992207
     52          1           0       -2.215057   -0.531188    4.276385
     53          1           0       -0.582071    0.598868    4.610685
     54          1           0       -1.868567    0.690504    3.293381
     55          1           0       -5.803390   -0.909822    2.273391
     56          1           0       -6.105368   -2.711993    1.855495
     57          1           0       -6.860030   -1.557878    0.876775
     58          1           0        2.470213    1.273426    1.486018
     59          1           0        0.914782    2.140855    2.342990
     60          1           0        0.332428    0.060999   -0.040424
     61          1           0        4.545229   -1.811391   -2.992065
     62          1           0        3.946870   -2.861626   -1.483923
     63          1           0       -5.699791   -2.418650   -2.732532
     64          1           0        5.134998   -1.280703    0.080208
     65          1           0        5.537472   -0.309004   -1.165705
     66          1           0        4.134384    0.043551   -3.903679
     67          1           0        3.553740    1.634596   -3.410177
     68          1           0        2.308528    0.354883   -4.369502
     69          1           0        0.798793    2.370334   -3.130132
     70          1           0       -6.639304   -3.936170   -0.026837
     71          1           0       -7.669572   -3.871379   -1.733175
     72          1           0        3.838560    4.158780    2.914491
     73          1           0       -0.571739    3.487067   -3.604622
     74          1           0       -4.296551    4.247345   -1.063654
     75          1           0       -3.889089    4.126693    0.756871
     76          1           0       -3.148448    5.430737   -0.677915
     77          1           0        8.529005   -2.213249   -0.736232
     78          1           0       -1.714676    5.405827   -4.257474
     79          1           0       -3.037341    5.510906   -2.995386
 ---------------------------------------------------------------------

 SCF Done:  E(RB3LYP) =  -1947.80492245     A.U. after   21 cycles

 Excitation energies and oscillator strengths:

 Excited State   1:      Singlet-A      0.8967 eV 1382.63 nm  f=0.0007  <S**2>=0.000
     155 ->156         0.70427
 This state for optimization and/or second-order correction.
 Total Energy, E(TD-HF/TD-DFT) =  -1947.77196832
 Copying the excited state density for this state as the 1-particle RhoCI density.

 The electronic state is 1-A.
 Alpha  occ. eigenvalues --  -19.19358 -19.17605 -19.15207 -19.13618 -19.11905
 Alpha  occ. eigenvalues --  -19.10419 -14.37070 -14.36892 -14.32429 -14.30114
 Alpha  occ. eigenvalues --  -10.34405 -10.31215 -10.27583 -10.27289 -10.26675
 Alpha  occ. eigenvalues --  -10.25719 -10.25545 -10.23759 -10.23701 -10.22574
 Alpha  occ. eigenvalues --  -10.22455 -10.22378 -10.21897 -10.21816 -10.21800
 Alpha  occ. eigenvalues --  -10.21742 -10.21734 -10.21073 -10.20806 -10.20485
 Alpha  occ. eigenvalues --  -10.20456 -10.20431 -10.20213 -10.19907 -10.19290
 Alpha  occ. eigenvalues --  -10.19151 -10.19007 -10.18927 -10.18638 -10.18518
 Alpha  occ. eigenvalues --  -10.16650 -10.15824 -10.15805  -1.09866  -1.09038
 Alpha  occ. eigenvalues --   -1.03983  -1.02877  -1.02110  -1.01426  -0.98128
 Alpha  occ. eigenvalues --   -0.95170  -0.92138  -0.90426  -0.84228  -0.82090
 Alpha  occ. eigenvalues --   -0.81420  -0.79704  -0.79139  -0.77856  -0.77695
 Alpha  occ. eigenvalues --   -0.75854  -0.75539  -0.74874  -0.73578  -0.73018
 Alpha  occ. eigenvalues --   -0.70488  -0.69324  -0.68882  -0.68646  -0.66414
 Alpha  occ. eigenvalues --   -0.64986  -0.63841  -0.62350  -0.61425  -0.60328
 Alpha  occ. eigenvalues --   -0.58619  -0.57336  -0.57229  -0.56851  -0.56312
 Alpha  occ. eigenvalues --   -0.55161  -0.53891  -0.52840  -0.52320  -0.52047
 Alpha  occ. eigenvalues --   -0.51619  -0.51180  -0.51063  -0.49887  -0.49465
 Alpha  occ. eigenvalues --   -0.48925  -0.48474  -0.48268  -0.47900  -0.47650
 Alpha  occ. eigenvalues --   -0.47323  -0.46914  -0.46549  -0.45842  -0.45759
 Alpha  occ. eigenvalues --   -0.45167  -0.44911  -0.44410  -0.43651  -0.43421
 Alpha  occ. eigenvalues --   -0.43256  -0.42932  -0.42685  -0.42453  -0.41999
 Alpha  occ. eigenvalues --   -0.41968  -0.41851  -0.41432  -0.41161  -0.40654
 Alpha  occ. eigenvalues --   -0.40365  -0.40310  -0.39845  -0.39255  -0.38909
 Alpha  occ. eigenvalues --   -0.38867  -0.38309  -0.38251  -0.37789  -0.37706
 Alpha  occ. eigenvalues --   -0.37504  -0.37000  -0.36659  -0.36278  -0.36126
 Alpha  occ. eigenvalues --   -0.35809  -0.35384  -0.35136  -0.34801  -0.34258
 Alpha  occ. eigenvalues --   -0.33867  -0.33210  -0.33174  -0.32082  -0.31090
 Alpha  occ. eigenvalues --   -0.30668  -0.30326  -0.28993  -0.28717  -0.28479
 Alpha  occ. eigenvalues --   -0.27715  -0.26818  -0.26260  -0.25320  -0.24295
 Alpha  occ. eigenvalues --   -0.23528  -0.22874  -0.21964  -0.20991  -0.18646
 Alpha virt. eigenvalues --   -0.12715  -0.07680  -0.03665  -0.02670  -0.01451
 Alpha virt. eigenvalues --    0.01773   0.01938   0.02244   0.02749   0.03135
 Alpha virt. eigenvalues --    0.03306   0.03753   0.04353   0.04768   0.04998

 Mulliken charges:
               1
     1  O   -0.188669
     2  O   -0.214418
     3  O   -0.152975
     4  O   -0.232600
     5  O   -0.219234
     6  O   -0.179130
     7  N   -0.120158
     8  N   -0.221806
     9  N   -0.104896
    10  N   -0.357942
    11  C    0.064203
    12  C    0.181740
    13  C   -0.036038
    14  C   -0.178893
    15  C   -0.026154
    16  C   -0.089657
    17  C   -0.148501
    18  C    0.009336
    19  C   -0.147914
    20  C   -0.116635
    21  C    0.141302
    22  C    0.136898
    23  C   -0.034404
    24  C    0.173221
    25  C    0.005825
    26  C   -0.129918
    27  C   -0.040700
    28  C    0.176008
    29  C   -0.029460
    30  C    0.036518
    31  C    0.130257
    32  C    0.036091
    33  C   -0.152085
    34  C    0.106213
    35  C    0.077429
    36  C   -0.063058
    37  C    0.182603
    38  C    0.017324
    39  C   -0.203707
    40  C    0.166545
    41  C    0.037903
    42  C    0.030461
    43  C   -0.055587
    44  H    0.042946
    45  H   -0.009861
    46  H   -0.027593
    47  H    0.178883
    48  H    0.151603
    49  H    0.028899
    50  H   -0.017809
    51  H    0.045950
    52  H   -0.021714
    53  H    0.026305
    54  H   -0.010552
    55  H    0.042857
    56  H    0.032756
    57  H    0.041589
    58  H    0.037942
    59  H    0.077028
    60  H    0.178113
    61  H    0.055718
    62  H    0.043706
    63  H    0.022361
    64  H   -0.029178
    65  H    0.026749
    66  H    0.021642
    67  H    0.053633
    68  H    0.070472
    69  H    0.024045
    70  H    0.044821
    71  H    0.022843
    72  H    0.167003
    73  H    0.019074
    74  H    0.031240
    75  H    0.066104
    76  H    0.042577
    77  H    0.193751
    78  H    0.007488
    79  H    0.053266
 Sum of Mulliken charges =  -0.00000

 Dipole moment (field-independent basis, Debye):
    X=              3.3131    Y=              2.8589    Z=             -2.7457  Tot=              5.1661
 Quadrupole moment (field-independent basis, Debye-Ang):
   XX=           -221.4785   YY=           -243.6904   ZZ=           -265.4364
   XY=             -2.4362   XZ=            -13.7877   YZ=            -18.6635

 Normal termination of Gaussian 16 at Mon Jul 29 10:42:37 2019.
