 Gaussian 16, Revision A.03,
 Gaussian 16:  ES64L-G16RevA.03 25-Dec-2016

 --------------------------
 # td=(NStates=1) B3LYP/SVP
 --------------------------

 --
 TD
 --
 Symbolic Z-matrix:
 Charge =  0 Multiplicity = 1

                         Standard orientation:
 ---------------------------------------------------------------------
 Center     Atomic      Atomic             Coordinates (Angstroms)
 Number     Number       Type             X           Y           Z
 ---------------------------------------------------------------------
      1          8           0        5.447801   -0.018938   -3.298962
      2          8           0       -3.100258   -2.999324    3.003700
      3          8           0       -3.433576   -0.768825    2.871439
      4          8           0       -1.327352    7.113372    1.637681
      5          8           0       -0.544097    7.023663   -0.461509
      6          8           0       -1.939672   -3.947342   -0.098992
      7          7           0        2.440854    0.892346    0.710353
      8          7           0        4.403967   -0.650535   -1.145651
      9          7           0       -1.915019    0.728761   -0.327925
     10          7           0       -2.674499   -1.763696   -0.520214
     11          6           0        4.881917   -1.280474    0.062046
     12          6           0        4.468786   -0.434890    1.283902
     13          6           0        3.015980   -0.149815    1.378112
     14          6           0        2.014190   -0.821253    2.162270
     15          6           0        0.736367   -0.106648    1.828505
     16          6           0        1.046105    0.833889    0.837254
     17          6           0        6.335025   -1.442534   -0.233431
     18          6           0       -0.702062   -0.359617    2.382349
     19          6           0        6.710781   -1.000004   -1.388787
     20          6           0        0.299222    1.837953    0.138902
     21          6           0       -1.013987    1.829627   -0.240120
     22          6           0        5.446372   -0.485434   -2.149737
     23          6           0       -1.860980    2.988612   -0.864868
     24          6           0        2.142379   -1.875842    3.195807
     25          6           0        7.180221   -1.991726    0.909869
     26          6           0       -3.073124    2.468208   -1.203344
     27          6           0       -1.214158   -1.790870    2.447055
     28          6           0       -3.071749    1.023422   -0.898081
     29          6           0       -1.471999    4.381653   -0.846382
     30          6           0        7.980916   -0.678712   -2.116353
     31          6           0       -1.561829    5.050537    0.522236
     32          6           0       -4.231266    3.154357   -1.791898
     33          6           0       -3.996349    0.072674   -1.303218
     34          6           0       -2.705615   -1.783172    2.832593
     35          6           0       -3.868862   -1.363637   -1.069888
     36          6           0        9.178347   -0.841428   -1.534074
     37          6           0       -1.162458    6.506532    0.427197
     38          6           0       -4.723197   -2.508460   -1.583563
     39          6           0       -4.048929   -3.637632   -1.102970
     40          6           0       -2.830934   -3.170440   -0.471105
     41          6           0       -6.044175   -2.241069   -2.099335
     42          6           0       -4.452849   -5.062230   -1.098114
     43          6           0       -6.971284   -3.178440   -2.480437
     44          1           0        4.231134   -2.161567    0.045607
     45          1           0        5.084288    0.451557    1.160879
     46          1           0        4.851554   -0.938345    2.197839
     47          1           0        2.886265    1.408733   -0.006011
     48          1           0        3.493866   -1.213912   -1.561908
     49          1           0       -0.507663    0.060681    3.382290
     50          1           0       -1.458319    0.274623    1.624993
     51          1           0        0.718715    2.789027   -0.289482
     52          1           0        3.275822   -2.177158    3.284269
     53          1           0        1.844454   -1.587961    4.083038
     54          1           0        1.752156   -2.703167    2.934658
     55          1           0        6.754123   -2.907809    1.438896
     56          1           0        7.579563   -1.201622    1.762377
     57          1           0        8.179114   -2.379684    0.539532
     58          1           0       -1.175506   -2.265439    1.449663
     59          1           0       -0.558017   -2.305313    2.981331
     60          1           0       -1.603486   -0.350169   -0.366895
     61          1           0       -2.037054    4.831934   -1.650450
     62          1           0       -0.264012    4.558689   -1.086619
     63          1           0        7.726391   -0.346038   -3.059951
     64          1           0       -0.863184    4.732036    1.117592
     65          1           0       -2.604093    4.943983    1.031142
     66          1           0       -3.886402    4.257061   -2.040437
     67          1           0       -5.198665    3.335806   -1.072522
     68          1           0       -4.542716    2.697418   -2.558932
     69          1           0       -4.717837    0.592494   -2.095992
     70          1           0        9.214891   -1.310932   -0.574896
     71          1           0       10.097778   -0.749251   -2.149965
     72          1           0       -4.041218   -2.965744    3.277812
     73          1           0       -6.233074   -1.174993   -2.201420
     74          1           0       -5.339463   -5.136385   -0.587872
     75          1           0       -4.661362   -5.410683   -2.212749
     76          1           0       -3.790737   -5.790593   -0.651247
     77          1           0       -0.947953    7.948600    1.368599
     78          1           0       -7.751786   -2.794759   -3.038019
     79          1           0       -6.702259   -4.338936   -2.312308
 ---------------------------------------------------------------------

 SCF Done:  E(RB3LYP) =  -1947.84631862     A.U. after   16 cycles

 Excitation energies and oscillator strengths:

 Excited State   1:      Singlet-A      2.0365 eV  608.82 nm  f=0.3959  <S**2>=0.000
     154 ->156         0.11524
     155 ->156         0.69616
     155 <-156        -0.10078
 This state for optimization and/or second-order correction.
 Total Energy, E(TD-HF/TD-DFT) =  -1947.77148016
 Copying the excited state density for this state as the 1-particle RhoCI density.

 The electronic state is 1-A.
 Alpha  occ. eigenvalues --  -19.18775 -19.18351 -19.14153 -19.12550 -19.10468
 Alpha  occ. eigenvalues --  -19.09864 -14.37381 -14.36118 -14.36081 -14.29593
 Alpha  occ. eigenvalues --  -10.32748 -10.30589 -10.30110 -10.25921 -10.24199
 Alpha  occ. eigenvalues --  -10.24167 -10.24128 -10.23959 -10.23189 -10.22585
 Alpha  occ. eigenvalues --  -10.22514 -10.21912 -10.21894 -10.21679 -10.21403
 Alpha  occ. eigenvalues --  -10.21288 -10.21115 -10.20771 -10.20479 -10.20462
 Alpha  occ. eigenvalues --  -10.20440 -10.20350 -10.20299 -10.20178 -10.20051
 Alpha  occ. eigenvalues --  -10.19808 -10.19806 -10.19545 -10.19536 -10.18907
 Alpha  occ. eigenvalues --  -10.18899 -10.17680 -10.17055  -1.11542  -1.10280
 Alpha  occ. eigenvalues --   -1.02172  -1.02109  -1.00257  -0.97737  -0.97583
 Alpha  occ. eigenvalues --   -0.97245  -0.94298  -0.90876  -0.83482  -0.82136
 Alpha  occ. eigenvalues --   -0.81336  -0.80393  -0.80163  -0.79378  -0.78373
 Alpha  occ. eigenvalues --   -0.76850  -0.76205  -0.75902  -0.74681  -0.72524
 Alpha  occ. eigenvalues --   -0.72038  -0.70902  -0.69886  -0.68952  -0.68176
 Alpha  occ. eigenvalues --   -0.66460  -0.65644  -0.64143  -0.61408  -0.60898
 Alpha  occ. eigenvalues --   -0.59922  -0.59274  -0.57991  -0.57177  -0.56206
 Alpha  occ. eigenvalues --   -0.55706  -0.55026  -0.54481  -0.53550  -0.53507
 Alpha  occ. eigenvalues --   -0.51694  -0.51222  -0.50881  -0.50244  -0.49906
 Alpha  occ. eigenvalues --   -0.49710  -0.49226  -0.48284  -0.47816  -0.47188
 Alpha  occ. eigenvalues --   -0.46977  -0.46863  -0.46574  -0.46216  -0.45943
 Alpha  occ. eigenvalues --   -0.45341  -0.45241  -0.44783  -0.44100  -0.43686
 Alpha  occ. eigenvalues --   -0.43338  -0.43152  -0.43000  -0.42798  -0.42342
 Alpha  occ. eigenvalues --   -0.42214  -0.41962  -0.41435  -0.41275  -0.41032
 Alpha  occ. eigenvalues --   -0.40746  -0.40675  -0.40444  -0.40174  -0.39833
 Alpha  occ. eigenvalues --   -0.39454  -0.39214  -0.39054  -0.38484  -0.38074
 Alpha  occ. eigenvalues --   -0.37994  -0.37790  -0.37553  -0.37428  -0.36721
 Alpha  occ. eigenvalues --   -0.36146  -0.35657  -0.35434  -0.35100  -0.35006
 Alpha  occ. eigenvalues --   -0.33638  -0.33531  -0.32885  -0.32462  -0.31378
 Alpha  occ. eigenvalues --   -0.30891  -0.30352  -0.29628  -0.28877  -0.27868
 Alpha  occ. eigenvalues --   -0.27507  -0.26252  -0.26151  -0.25607  -0.25443
 Alpha  occ. eigenvalues --   -0.24208  -0.23603  -0.23199  -0.22146  -0.18756
 Alpha virt. eigenvalues --   -0.10637  -0.06417  -0.05987  -0.01071  -0.00831
 Alpha virt. eigenvalues --   -0.00621   0.01230   0.02204   0.02353   0.02975
 Alpha virt. eigenvalues --    0.03567   0.04170   0.04680   0.05219   0.05822

 Mulliken charges:
               1
     1  O   -0.224690
     2  O   -0.116055
     3  O   -0.276054
     4  O   -0.169625
     5  O   -0.218979
     6  O   -0.232626
     7  N   -0.042525
     8  N   -0.302687
     9  N   -0.131727
    10  N   -0.327466
    11  C    0.067784
    12  C    0.224264
    13  C   -0.078264
    14  C   -0.195757
    15  C   -0.106720
    16  C    0.082133
    17  C   -0.142478
    18  C    0.002089
    19  C   -0.064205
    20  C   -0.048744
    21  C    0.030922
    22  C    0.189289
    23  C   -0.037208
    24  C    0.252099
    25  C   -0.016459
    26  C   -0.123508
    27  C    0.075138
    28  C    0.078582
    29  C   -0.004190
    30  C    0.062948
    31  C    0.100706
    32  C    0.115359
    33  C   -0.137441
    34  C    0.132337
    35  C    0.093055
    36  C    0.014383
    37  C    0.114336
    38  C    0.044303
    39  C   -0.165606
    40  C    0.157320
    41  C   -0.041183
    42  C    0.110121
    43  C   -0.006187
    44  H    0.001402
    45  H   -0.022808
    46  H    0.007877
    47  H    0.104105
    48  H    0.173549
    49  H    0.010820
    50  H    0.084044
    51  H   -0.010635
    52  H   -0.016070
    53  H   -0.015518
    54  H   -0.023461
    55  H    0.037110
    56  H    0.059627
    57  H    0.031105
    58  H    0.054112
    59  H   -0.042685
    60  H    0.210952
    61  H    0.017599
    62  H    0.040172
    63  H   -0.021219
    64  H   -0.014937
    65  H    0.057739
    66  H    0.017003
    67  H    0.047807
    68  H   -0.026462
    69  H    0.012591
    70  H    0.002184
    71  H    0.035709
    72  H    0.177080
    73  H   -0.008007
    74  H    0.007162
    75  H    0.041199
    76  H    0.020794
    77  H    0.155778
    78  H    0.009031
    79  H    0.048466
 Sum of Mulliken charges =  -0.00000

 Dipole moment (field-independent basis, Debye):
    X=              0.7542    Y=              0.2949    Z=              2.3614  Tot=              2.4964
 Quadrupole moment (field-independent basis, Debye-Ang):
   XX=           -218.4232   YY=           -243.9929   ZZ=           -260.8059
   XY=             -9.8983   XZ=             29.0272   YZ=             -0.5993

 Normal termination of Gaussian 16 at Tue Oct  8 03:39:45 2019.
