 Gaussian 16, Revision A.03,
 Gaussian 16:  ES64L-G16RevA.03 25-Dec-2016

 --------------------------
 # td=(NStates=1) B3LYP/SVP
 --------------------------

 --
 TD
 --
 Symbolic Z-matrix:
 Charge =  0 Multiplicity = 1

                         Standard orientation:
 ---------------------------------------------------------------------
 Center     Atomic      Atomic             Coordinates (Angstroms)
 Number     Number       Type             X           Y           Z
 ---------------------------------------------------------------------
      1          8           0        5.493386   -0.304732   -3.286373
      2          8           0       -2.947770   -2.975497    3.365457
      3          8           0       -3.307221   -0.773830    3.042994
      4          8           0       -1.686256    7.234377    1.454366
      5          8           0       -0.650837    7.031674   -0.586673
      6          8           0       -1.855623   -3.941946    0.243263
      7          7           0        2.345222    0.962473    0.611897
      8          7           0        4.459092   -0.516954   -1.265775
      9          7           0       -1.908870    0.707863   -0.505782
     10          7           0       -2.599964   -1.927559   -0.502486
     11          6           0        4.839321   -1.032507    0.016764
     12          6           0        4.333353   -0.164626    1.265497
     13          6           0        2.931558    0.088052    1.348529
     14          6           0        1.958354   -0.615404    2.029941
     15          6           0        0.667126   -0.051935    1.755549
     16          6           0        0.934508    0.978524    0.771433
     17          6           0        6.334527   -1.171807   -0.097776
     18          6           0       -0.574180   -0.251208    2.466408
     19          6           0        6.801734   -0.893313   -1.373299
     20          6           0        0.194860    1.865963    0.052667
     21          6           0       -1.151093    1.830268   -0.331761
     22          6           0        5.595140   -0.557169   -2.166102
     23          6           0       -2.084288    2.913991   -0.886149
     24          6           0        2.214948   -1.726634    3.057706
     25          6           0        7.117675   -1.792791    1.021769
     26          6           0       -3.202329    2.336774   -1.260260
     27          6           0       -1.048520   -1.659224    2.568871
     28          6           0       -3.074256    0.945006   -1.119139
     29          6           0       -1.621787    4.313151   -0.885236
     30          6           0        8.056853   -0.893147   -1.928338
     31          6           0       -1.887417    5.098687    0.498833
     32          6           0       -4.393832    2.979302   -1.850612
     33          6           0       -4.095456   -0.081498   -1.413074
     34          6           0       -2.585852   -1.731211    2.858818
     35          6           0       -3.719155   -1.418791   -0.972608
     36          6           0        9.288678   -0.758371   -1.494080
     37          6           0       -1.222514    6.510462    0.333993
     38          6           0       -4.582229   -2.653998   -1.467200
     39          6           0       -3.904046   -3.714571   -0.974468
     40          6           0       -2.683890   -3.361961   -0.294437
     41          6           0       -5.776224   -2.560577   -2.202390
     42          6           0       -4.230826   -5.201252   -1.213592
     43          6           0       -6.679946   -3.511339   -2.533234
     44          1           0        4.110089   -1.942061    0.030747
     45          1           0        4.951207    0.727308    1.447439
     46          1           0        4.831846   -0.670244    2.247103
     47          1           0        2.987411    1.459814   -0.176792
     48          1           0        3.533967   -0.674893   -1.655541
     49          1           0       -0.564693    0.188045    3.563317
     50          1           0       -1.236346    0.270524    1.978086
     51          1           0        0.887515    2.706285   -0.497540
     52          1           0        3.247542   -1.790156    3.187891
     53          1           0        1.682384   -1.570558    3.957978
     54          1           0        1.874808   -2.759682    2.728360
     55          1           0        6.441470   -2.794809    1.255362
     56          1           0        7.155096   -1.177664    1.846837
     57          1           0        8.097343   -2.145187    0.615455
     58          1           0       -1.050669   -2.158941    1.583650
     59          1           0       -0.406823   -2.308583    3.172373
     60          1           0       -1.740421   -0.221836   -0.244999
     61          1           0       -2.352296    4.990383   -1.535432
     62          1           0       -0.582547    4.586659   -0.998657
     63          1           0        7.846950   -0.916972   -2.970855
     64          1           0       -1.197026    4.481100    1.288666
     65          1           0       -2.742256    5.133758    0.965101
     66          1           0       -4.107725    3.969614   -2.147018
     67          1           0       -5.274474    2.804448   -1.160590
     68          1           0       -4.871291    2.392701   -2.693222
     69          1           0       -5.068893   -0.009425   -2.196552
     70          1           0        9.414729   -0.655757   -0.330948
     71          1           0       10.092329   -0.789019   -2.198744
     72          1           0       -3.985548   -2.913088    3.357629
     73          1           0       -6.125606   -1.428608   -2.472406
     74          1           0       -5.369403   -5.197423   -0.620619
     75          1           0       -4.427130   -5.345129   -2.168744
     76          1           0       -3.459518   -5.768235   -0.822975
     77          1           0       -1.226295    8.036617    1.429331
     78          1           0       -7.629351   -3.093367   -3.202568
     79          1           0       -6.674925   -4.497815   -2.288524
 ---------------------------------------------------------------------

 SCF Done:  E(RB3LYP) =  -1947.78787312     A.U. after   17 cycles

 Excitation energies and oscillator strengths:

 Excited State   1:      Singlet-A      1.9928 eV  622.16 nm  f=0.5062  <S**2>=0.000
     154 ->156         0.12183
     155 ->156         0.69532
     155 <-156        -0.12264
 This state for optimization and/or second-order correction.
 Total Energy, E(TD-HF/TD-DFT) =  -1947.71463852
 Copying the excited state density for this state as the 1-particle RhoCI density.

 The electronic state is 1-A.
 Alpha  occ. eigenvalues --  -19.17504 -19.16441 -19.15123 -19.11776 -19.11659
 Alpha  occ. eigenvalues --  -19.11205 -14.39600 -14.36421 -14.34767 -14.27716
 Alpha  occ. eigenvalues --  -10.33469 -10.30821 -10.29036 -10.26101 -10.26094
 Alpha  occ. eigenvalues --  -10.24306 -10.24039 -10.23613 -10.23379 -10.23101
 Alpha  occ. eigenvalues --  -10.23016 -10.22962 -10.22763 -10.22200 -10.21745
 Alpha  occ. eigenvalues --  -10.21737 -10.20900 -10.20828 -10.20796 -10.20627
 Alpha  occ. eigenvalues --  -10.20604 -10.20115 -10.20011 -10.19761 -10.19578
 Alpha  occ. eigenvalues --  -10.19131 -10.19086 -10.19003 -10.18973 -10.18633
 Alpha  occ. eigenvalues --  -10.18548 -10.18429 -10.18241  -1.09568  -1.07007
 Alpha  occ. eigenvalues --   -1.06616  -1.05944  -1.01943  -1.00657  -0.99617
 Alpha  occ. eigenvalues --   -0.97908  -0.94455  -0.90794  -0.83940  -0.83279
 Alpha  occ. eigenvalues --   -0.82910  -0.81577  -0.79988  -0.79571  -0.78379
 Alpha  occ. eigenvalues --   -0.77376  -0.76643  -0.75788  -0.74312  -0.72798
 Alpha  occ. eigenvalues --   -0.71464  -0.71147  -0.69471  -0.68718  -0.68261
 Alpha  occ. eigenvalues --   -0.67011  -0.66514  -0.64077  -0.63146  -0.60794
 Alpha  occ. eigenvalues --   -0.60115  -0.58445  -0.58074  -0.57530  -0.56916
 Alpha  occ. eigenvalues --   -0.56609  -0.55597  -0.55096  -0.54426  -0.53669
 Alpha  occ. eigenvalues --   -0.52572  -0.51239  -0.50951  -0.50531  -0.49616
 Alpha  occ. eigenvalues --   -0.49405  -0.49156  -0.48728  -0.48109  -0.47534
 Alpha  occ. eigenvalues --   -0.47473  -0.46865  -0.46834  -0.46538  -0.45841
 Alpha  occ. eigenvalues --   -0.45370  -0.45242  -0.44875  -0.44658  -0.44460
 Alpha  occ. eigenvalues --   -0.43804  -0.43685  -0.43527  -0.43314  -0.42775
 Alpha  occ. eigenvalues --   -0.42672  -0.42261  -0.42184  -0.41856  -0.41508
 Alpha  occ. eigenvalues --   -0.41319  -0.41046  -0.40751  -0.40419  -0.40136
 Alpha  occ. eigenvalues --   -0.40011  -0.39920  -0.39685  -0.39523  -0.39189
 Alpha  occ. eigenvalues --   -0.38607  -0.38374  -0.37573  -0.37075  -0.36798
 Alpha  occ. eigenvalues --   -0.36011  -0.35477  -0.34986  -0.34773  -0.34305
 Alpha  occ. eigenvalues --   -0.33932  -0.33719  -0.33472  -0.33284  -0.33154
 Alpha  occ. eigenvalues --   -0.31034  -0.30404  -0.29983  -0.29536  -0.27270
 Alpha  occ. eigenvalues --   -0.27159  -0.26721  -0.26301  -0.25755  -0.25111
 Alpha  occ. eigenvalues --   -0.24818  -0.24077  -0.23121  -0.21475  -0.18056
 Alpha virt. eigenvalues --   -0.10295  -0.07467  -0.06523  -0.01746  -0.00431
 Alpha virt. eigenvalues --    0.00363   0.00655   0.01407   0.02006   0.02431
 Alpha virt. eigenvalues --    0.03022   0.03792   0.04177   0.04402   0.05216

 Mulliken charges:
               1
     1  O   -0.130627
     2  O   -0.246642
     3  O   -0.229122
     4  O   -0.201122
     5  O   -0.197544
     6  O   -0.113496
     7  N   -0.075232
     8  N   -0.263559
     9  N    0.012626
    10  N   -0.337437
    11  C    0.101760
    12  C    0.065460
    13  C   -0.052634
    14  C   -0.170775
    15  C   -0.107122
    16  C    0.096120
    17  C   -0.186046
    18  C    0.249898
    19  C   -0.011363
    20  C   -0.123861
    21  C    0.041584
    22  C    0.128249
    23  C   -0.028428
    24  C    0.152316
    25  C    0.082404
    26  C   -0.133813
    27  C   -0.035312
    28  C    0.066168
    29  C    0.046659
    30  C   -0.026383
    31  C   -0.020707
    32  C    0.135421
    33  C   -0.166026
    34  C    0.161987
    35  C    0.079509
    36  C   -0.012766
    37  C    0.165215
    38  C    0.064873
    39  C   -0.274442
    40  C    0.148728
    41  C   -0.060091
    42  C    0.142400
    43  C   -0.049824
    44  H    0.031612
    45  H   -0.008804
    46  H    0.019843
    47  H    0.167561
    48  H    0.128475
    49  H    0.030446
    50  H   -0.085874
    51  H    0.030412
    52  H   -0.034017
    53  H    0.011531
    54  H    0.034254
    55  H    0.052103
    56  H    0.024492
    57  H    0.040384
    58  H    0.048896
    59  H    0.022514
    60  H    0.096443
    61  H    0.034530
    62  H    0.020055
    63  H   -0.010833
    64  H    0.054027
    65  H   -0.007028
    66  H    0.013859
    67  H    0.022893
    68  H    0.010294
    69  H    0.058929
    70  H    0.032351
    71  H    0.028299
    72  H    0.200268
    73  H    0.017199
    74  H    0.042799
    75  H   -0.003434
    76  H    0.010080
    77  H    0.146657
    78  H    0.043247
    79  H   -0.011463
 Sum of Mulliken charges =  -0.00000

 Dipole moment (field-independent basis, Debye):
    X=              3.4721    Y=              1.6147    Z=              2.0763  Tot=              4.3559
 Quadrupole moment (field-independent basis, Debye-Ang):
   XX=           -217.0890   YY=           -253.2645   ZZ=           -266.0492
   XY=             -6.5310   XZ=             29.3815   YZ=              7.2473

 Normal termination of Gaussian 16 at Fri Oct  4 23:37:10 2019.
