 Gaussian 16, Revision A.03,
 Gaussian 16:  ES64L-G16RevA.03 25-Dec-2016

 --------------------------
 # td=(NStates=1) B3LYP/SVP
 --------------------------

 --
 TD
 --
 Symbolic Z-matrix:
 Charge =  0 Multiplicity = 1

                         Standard orientation:
 ---------------------------------------------------------------------
 Center     Atomic      Atomic             Coordinates (Angstroms)
 Number     Number       Type             X           Y           Z
 ---------------------------------------------------------------------
      1          8           0       -3.276727   -1.374962   -2.835746
      2          8           0        3.081245    3.188631    3.192018
      3          8           0        3.771087    1.231358    4.294887
      4          8           0        7.715445   -1.590819   -0.605850
      5          8           0        6.749333   -2.811145   -2.285062
      6          8           0       -2.708369    1.545937    1.479359
      7          7           0       -0.221904   -2.342905    1.013158
      8          7           0       -2.679102   -1.253110   -0.611444
      9          7           0        1.104445    0.117401   -0.792469
     10          7           0       -0.952395    1.469045   -0.182283
     11          6           0       -3.368143   -1.289964    0.680195
     12          6           0       -2.558689   -2.362848    1.613300
     13          6           0       -1.201984   -1.990775    1.874418
     14          6           0       -0.589196   -1.129076    2.874912
     15          6           0        0.743829   -1.098053    2.478271
     16          6           0        0.998239   -1.777855    1.261427
     17          6           0       -4.693344   -1.909860    0.285098
     18          6           0        1.901112   -0.400908    3.239637
     19          6           0       -4.771125   -2.047248   -1.079247
     20          6           0        2.054730   -1.881788    0.296033
     21          6           0        2.050073   -0.883034   -0.769681
     22          6           0       -3.491041   -1.547538   -1.694941
     23          6           0        2.938929   -0.639260   -1.724337
     24          6           0       -1.321472   -0.415572    3.930561
     25          6           0       -5.753241   -2.129203    1.269475
     26          6           0        2.549924    0.498178   -2.424630
     27          6           0        1.899535    1.165783    2.868417
     28          6           0        1.331886    0.920161   -1.851666
     29          6           0        4.173163   -1.491033   -2.073123
     30          6           0       -5.736285   -2.579267   -1.955036
     31          6           0        5.382776   -1.159071   -1.179176
     32          6           0        3.143047    0.931891   -3.663966
     33          6           0        0.562798    2.104908   -1.971847
     34          6           0        2.960859    1.799639    3.580766
     35          6           0       -0.565442    2.252986   -1.252585
     36          6           0       -6.834014   -3.303126   -1.707877
     37          6           0        6.663063   -1.944242   -1.384564
     38          6           0       -1.495342    3.455692   -1.230711
     39          6           0       -2.293541    3.337231   -0.207469
     40          6           0       -2.098737    2.012026    0.434288
     41          6           0       -1.350946    4.567465   -2.302254
     42          6           0       -3.467299    4.304258    0.212283
     43          6           0       -1.934302    5.705868   -2.443036
     44          1           0       -3.401753   -0.377569    1.211601
     45          1           0       -2.702150   -3.307607    1.248781
     46          1           0       -3.037434   -2.194669    2.594554
     47          1           0       -0.347125   -2.722503    0.140951
     48          1           0       -1.981250   -0.556411   -0.644529
     49          1           0        1.964557   -0.652162    4.248070
     50          1           0        2.909287   -0.843449    2.889806
     51          1           0        2.994843   -2.437887    0.356501
     52          1           0       -1.848048   -1.115004    4.600435
     53          1           0       -0.667350    0.184130    4.615336
     54          1           0       -1.898355    0.360432    3.336805
     55          1           0       -5.555348   -1.569447    2.330645
     56          1           0       -5.872447   -3.220484    1.495693
     57          1           0       -6.863618   -1.759081    1.051778
     58          1           0        1.905091    1.323979    1.816340
     59          1           0        0.893790    1.514884    2.960213
     60          1           0        0.275755    0.435629   -0.236373
     61          1           0        4.364468   -1.254107   -3.183253
     62          1           0        3.867368   -2.522888   -1.922135
     63          1           0       -5.511255   -2.271316   -3.061688
     64          1           0        4.937236   -1.315171   -0.269915
     65          1           0        5.146615   -0.087182   -1.257163
     66          1           0        3.860783    0.099807   -3.939054
     67          1           0        3.613905    1.901990   -3.503002
     68          1           0        2.477899    1.118636   -4.410987
     69          1           0        0.817604    2.596851   -2.752496
     70          1           0       -7.062247   -3.790227   -0.849257
     71          1           0       -7.436199   -3.681810   -2.527248
     72          1           0        3.562989    3.613693    3.845913
     73          1           0       -0.702518    4.282147   -3.151065
     74          1           0       -4.108077    4.845524   -0.674603
     75          1           0       -3.942227    3.747419    1.197748
     76          1           0       -3.251012    5.380058    0.750349
     77          1           0        8.632057   -1.997733   -0.903118
     78          1           0       -1.772542    6.288048   -3.486768
     79          1           0       -2.655615    6.080284   -1.722055
 ---------------------------------------------------------------------

 SCF Done:  E(RB3LYP) =  -1947.82915492     A.U. after   20 cycles

 Excitation energies and oscillator strengths:

 Excited State   1:      Singlet-A      0.7877 eV 1574.07 nm  f=0.0152  <S**2>=0.000
     155 ->156         0.70573
 This state for optimization and/or second-order correction.
 Total Energy, E(TD-HF/TD-DFT) =  -1947.80020876
 Copying the excited state density for this state as the 1-particle RhoCI density.

 The electronic state is 1-A.
 Alpha  occ. eigenvalues --  -19.20283 -19.16036 -19.13822 -19.13463 -19.12492
 Alpha  occ. eigenvalues --  -19.09036 -14.36762 -14.36670 -14.32264 -14.31504
 Alpha  occ. eigenvalues --  -10.34608 -10.32075 -10.29341 -10.26483 -10.25876
 Alpha  occ. eigenvalues --  -10.25622 -10.25223 -10.25047 -10.22640 -10.22365
 Alpha  occ. eigenvalues --  -10.22138 -10.21954 -10.21828 -10.21713 -10.21526
 Alpha  occ. eigenvalues --  -10.21265 -10.21023 -10.20904 -10.20874 -10.20854
 Alpha  occ. eigenvalues --  -10.20607 -10.20569 -10.20331 -10.20140 -10.19458
 Alpha  occ. eigenvalues --  -10.19173 -10.18785 -10.18602 -10.18141 -10.18029
 Alpha  occ. eigenvalues --  -10.17829 -10.17611 -10.17062  -1.09051  -1.07045
 Alpha  occ. eigenvalues --   -1.03325  -1.01671  -1.00074  -0.99871  -0.99791
 Alpha  occ. eigenvalues --   -0.98473  -0.93106  -0.92262  -0.85498  -0.83450
 Alpha  occ. eigenvalues --   -0.81024  -0.80554  -0.80437  -0.80201  -0.79880
 Alpha  occ. eigenvalues --   -0.77439  -0.76934  -0.75992  -0.75351  -0.74097
 Alpha  occ. eigenvalues --   -0.71164  -0.70117  -0.69643  -0.69332  -0.67938
 Alpha  occ. eigenvalues --   -0.67033  -0.66198  -0.64191  -0.62447  -0.61764
 Alpha  occ. eigenvalues --   -0.60612  -0.59237  -0.58718  -0.58220  -0.57522
 Alpha  occ. eigenvalues --   -0.56642  -0.56170  -0.55665  -0.54571  -0.53727
 Alpha  occ. eigenvalues --   -0.53340  -0.52295  -0.51513  -0.51267  -0.50201
 Alpha  occ. eigenvalues --   -0.49895  -0.49403  -0.49087  -0.48501  -0.47857
 Alpha  occ. eigenvalues --   -0.47698  -0.47389  -0.46798  -0.46483  -0.46288
 Alpha  occ. eigenvalues --   -0.46230  -0.44939  -0.44799  -0.44328  -0.44210
 Alpha  occ. eigenvalues --   -0.43574  -0.43211  -0.43051  -0.42852  -0.42465
 Alpha  occ. eigenvalues --   -0.42233  -0.41972  -0.41772  -0.41229  -0.40724
 Alpha  occ. eigenvalues --   -0.40550  -0.40414  -0.40201  -0.39941  -0.39744
 Alpha  occ. eigenvalues --   -0.39608  -0.39262  -0.38569  -0.38337  -0.37954
 Alpha  occ. eigenvalues --   -0.37750  -0.37410  -0.36930  -0.36182  -0.36104
 Alpha  occ. eigenvalues --   -0.35946  -0.35856  -0.35490  -0.35180  -0.34263
 Alpha  occ. eigenvalues --   -0.33749  -0.33006  -0.32888  -0.32202  -0.31948
 Alpha  occ. eigenvalues --   -0.31679  -0.30645  -0.29466  -0.29094  -0.28809
 Alpha  occ. eigenvalues --   -0.28645  -0.27380  -0.26429  -0.25600  -0.25087
 Alpha  occ. eigenvalues --   -0.24265  -0.23552  -0.23193  -0.22226  -0.19290
 Alpha virt. eigenvalues --   -0.13991  -0.08218  -0.04593  -0.02900  -0.01363
 Alpha virt. eigenvalues --   -0.00783   0.01400   0.01737   0.02525   0.03376
 Alpha virt. eigenvalues --    0.03525   0.04277   0.04457   0.05023   0.05531

 Mulliken charges:
               1
     1  O   -0.178590
     2  O   -0.232859
     3  O   -0.217145
     4  O   -0.225572
     5  O   -0.254280
     6  O   -0.290059
     7  N    0.018761
     8  N   -0.209992
     9  N   -0.080076
    10  N   -0.377541
    11  C    0.066859
    12  C    0.256804
    13  C   -0.131209
    14  C   -0.090501
    15  C   -0.139109
    16  C    0.034399
    17  C   -0.113496
    18  C    0.095820
    19  C   -0.046846
    20  C   -0.064846
    21  C    0.049498
    22  C    0.135040
    23  C   -0.138144
    24  C    0.067754
    25  C   -0.019233
    26  C   -0.142491
    27  C    0.037895
    28  C    0.034424
    29  C    0.076870
    30  C   -0.037687
    31  C    0.068645
    32  C    0.161806
    33  C    0.037502
    34  C    0.195911
    35  C    0.150855
    36  C   -0.004257
    37  C    0.226002
    38  C    0.078362
    39  C   -0.158541
    40  C    0.242203
    41  C    0.018736
    42  C   -0.076102
    43  C   -0.053469
    44  H    0.033810
    45  H   -0.048151
    46  H   -0.013618
    47  H    0.073437
    48  H    0.108032
    49  H    0.000162
    50  H   -0.006124
    51  H    0.018538
    52  H    0.024400
    53  H   -0.003208
    54  H    0.066402
    55  H    0.034375
    56  H    0.039952
    57  H    0.053017
    58  H    0.013507
    59  H    0.027628
    60  H    0.183115
    61  H    0.032299
    62  H    0.012490
    63  H    0.029069
    64  H   -0.012673
    65  H    0.031651
    66  H    0.020400
    67  H    0.020759
    68  H    0.004838
    69  H   -0.113853
    70  H   -0.024864
    71  H    0.012653
    72  H    0.149515
    73  H   -0.003697
    74  H    0.061938
    75  H    0.067528
    76  H    0.039807
    77  H    0.235784
    78  H    0.049481
    79  H    0.009499
 Sum of Mulliken charges =  -0.00000

 Dipole moment (field-independent basis, Debye):
    X=              3.6602    Y=              2.1960    Z=             -0.7203  Tot=              4.3287
 Quadrupole moment (field-independent basis, Debye-Ang):
   XX=           -238.4662   YY=           -239.5904   ZZ=           -262.0664
   XY=              3.5970   XZ=            -19.5979   YZ=            -15.4750

 Normal termination of Gaussian 16 at Sat Jul 27 14:05:46 2019.
