 Gaussian 16, Revision A.03,
 Gaussian 16:  ES64L-G16RevA.03 25-Dec-2016

 --------------------------
 # td=(NStates=1) B3LYP/SVP
 --------------------------

 --
 TD
 --
 Symbolic Z-matrix:
 Charge =  0 Multiplicity = 1

                         Standard orientation:
 ---------------------------------------------------------------------
 Center     Atomic      Atomic             Coordinates (Angstroms)
 Number     Number       Type             X           Y           Z
 ---------------------------------------------------------------------
      1          8           0       -3.303360   -0.331571   -3.046640
      2          8           0        3.158419    2.107685    3.789174
      3          8           0        3.611139    0.113452    4.644111
      4          8           0        7.696303   -0.981734   -1.199473
      5          8           0        6.668205   -2.569985   -2.484078
      6          8           0       -2.662099    1.173622    1.838034
      7          7           0       -0.307303   -2.597426    0.239065
      8          7           0       -2.655278   -1.057906   -0.910347
      9          7           0        1.129332    0.276578   -0.756498
     10          7           0       -0.991469    1.445065    0.243600
     11          6           0       -3.467855   -1.544177    0.255604
     12          6           0       -2.699144   -2.751594    0.974459
     13          6           0       -1.195421   -2.519394    1.189241
     14          6           0       -0.454135   -2.119613    2.346857
     15          6           0        0.843402   -1.874118    1.995493
     16          6           0        0.982658   -2.105265    0.628415
     17          6           0       -4.734079   -1.923083   -0.180068
     18          6           0        1.931267   -1.248907    2.989439
     19          6           0       -4.797704   -1.560411   -1.553262
     20          6           0        1.990929   -1.919578   -0.297365
     21          6           0        2.115815   -0.726920   -0.910029
     22          6           0       -3.554077   -0.858997   -1.942105
     23          6           0        2.985022   -0.127400   -1.937054
     24          6           0       -1.159258   -1.797439    3.747447
     25          6           0       -5.770610   -2.430166    0.703576
     26          6           0        2.609274    1.122021   -2.359877
     27          6           0        2.030245    0.277263    2.842987
     28          6           0        1.383234    1.412389   -1.580194
     29          6           0        4.217648   -0.808466   -2.477249
     30          6           0       -5.977752   -1.571720   -2.458166
     31          6           0        5.461099   -0.655220   -1.481648
     32          6           0        3.118119    2.079675   -3.326306
     33          6           0        0.474829    2.505067   -1.377425
     34          6           0        2.977852    0.801630    3.860330
     35          6           0       -0.589326    2.507134   -0.506336
     36          6           0       -7.057902   -2.354960   -2.551920
     37          6           0        6.593847   -1.552327   -1.802287
     38          6           0       -1.363270    3.654696   -0.228258
     39          6           0       -2.261892    3.310574    0.785502
     40          6           0       -2.048004    1.827728    1.004801
     41          6           0       -1.189040    4.924232   -0.957416
     42          6           0       -3.383883    4.058761    1.352357
     43          6           0       -1.887192    6.097327   -0.833440
     44          1           0       -3.564189   -0.710008    1.167717
     45          1           0       -2.628350   -3.744089    0.502327
     46          1           0       -3.116073   -3.204530    1.879753
     47          1           0       -0.370995   -2.889106   -0.716075
     48          1           0       -1.930206   -0.352460   -0.537069
     49          1           0        1.849730   -1.818422    4.019783
     50          1           0        2.900458   -1.605141    2.663561
     51          1           0        2.684076   -2.713274   -0.413627
     52          1           0       -1.868995   -2.721172    4.066873
     53          1           0       -0.537588   -1.615906    4.481128
     54          1           0       -1.885494   -0.933483    3.491538
     55          1           0       -5.593473   -2.170243    1.838363
     56          1           0       -5.917474   -3.523143    0.501874
     57          1           0       -6.975271   -2.245702    0.811626
     58          1           0        2.122812    0.503631    1.699287
     59          1           0        1.202230    0.783756    3.248418
     60          1           0        0.331726    0.400685   -0.152225
     61          1           0        4.450111   -0.367893   -3.402414
     62          1           0        4.242219   -2.006841   -2.476989
     63          1           0       -5.784071   -1.002071   -3.406938
     64          1           0        5.116020   -0.823623   -0.435035
     65          1           0        5.830661    0.426750   -1.518318
     66          1           0        3.991653    1.609410   -3.749512
     67          1           0        3.224271    2.978372   -2.682782
     68          1           0        2.354353    2.341081   -4.044421
     69          1           0        0.330691    3.557807   -2.151299
     70          1           0       -7.310488   -3.040923   -1.786338
     71          1           0       -7.889242   -2.175868   -3.106807
     72          1           0        3.539224    2.455885    4.547110
     73          1           0       -0.408508    4.981297   -1.669317
     74          1           0       -4.093559    4.317807    0.797719
     75          1           0       -3.999231    3.359460    1.959786
     76          1           0       -2.886485    4.925128    1.901779
     77          1           0        8.446845   -1.721712   -1.513477
     78          1           0       -1.527439    7.107699   -1.132882
     79          1           0       -2.653953    6.308470   -0.219488
 ---------------------------------------------------------------------

 SCF Done:  E(RB3LYP) =  -1947.79998773     A.U. after   22 cycles

 Excitation energies and oscillator strengths:

 Excited State   1:      Singlet-A      0.8075 eV 1535.37 nm  f=0.0009  <S**2>=0.000
     155 ->156         0.70321
 This state for optimization and/or second-order correction.
 Total Energy, E(TD-HF/TD-DFT) =  -1947.77031187
 Copying the excited state density for this state as the 1-particle RhoCI density.

 The electronic state is 1-A.
 Alpha  occ. eigenvalues --  -19.19867 -19.17693 -19.15090 -19.12175 -19.11460
 Alpha  occ. eigenvalues --  -19.07846 -14.37089 -14.36582 -14.33523 -14.30548
 Alpha  occ. eigenvalues --  -10.33786 -10.31387 -10.28074 -10.27903 -10.26675
 Alpha  occ. eigenvalues --  -10.26252 -10.24706 -10.23697 -10.23511 -10.23432
 Alpha  occ. eigenvalues --  -10.23183 -10.22832 -10.22827 -10.22067 -10.21949
 Alpha  occ. eigenvalues --  -10.21549 -10.21531 -10.21088 -10.21066 -10.20971
 Alpha  occ. eigenvalues --  -10.20221 -10.20145 -10.20067 -10.19949 -10.19606
 Alpha  occ. eigenvalues --  -10.19497 -10.19219 -10.18651 -10.18353 -10.17763
 Alpha  occ. eigenvalues --  -10.17108 -10.16717 -10.16140  -1.10763  -1.09414
 Alpha  occ. eigenvalues --   -1.03056  -1.00704  -0.99905  -0.98874  -0.98535
 Alpha  occ. eigenvalues --   -0.97174  -0.94336  -0.91512  -0.84682  -0.83356
 Alpha  occ. eigenvalues --   -0.81407  -0.80472  -0.79979  -0.79585  -0.78710
 Alpha  occ. eigenvalues --   -0.76828  -0.76429  -0.76143  -0.74925  -0.73962
 Alpha  occ. eigenvalues --   -0.71824  -0.70288  -0.69917  -0.69321  -0.67796
 Alpha  occ. eigenvalues --   -0.67221  -0.66435  -0.64377  -0.62089  -0.61171
 Alpha  occ. eigenvalues --   -0.59979  -0.59464  -0.58953  -0.57382  -0.56681
 Alpha  occ. eigenvalues --   -0.55770  -0.55029  -0.54924  -0.54512  -0.53046
 Alpha  occ. eigenvalues --   -0.52707  -0.52043  -0.51417  -0.50578  -0.49820
 Alpha  occ. eigenvalues --   -0.49638  -0.49233  -0.48690  -0.48371  -0.48127
 Alpha  occ. eigenvalues --   -0.47582  -0.47274  -0.47056  -0.46896  -0.46423
 Alpha  occ. eigenvalues --   -0.45862  -0.45670  -0.45066  -0.44914  -0.44359
 Alpha  occ. eigenvalues --   -0.43943  -0.43390  -0.43094  -0.42638  -0.42404
 Alpha  occ. eigenvalues --   -0.42048  -0.41684  -0.41524  -0.41314  -0.40932
 Alpha  occ. eigenvalues --   -0.40536  -0.40474  -0.40242  -0.39600  -0.39055
 Alpha  occ. eigenvalues --   -0.39040  -0.38964  -0.38848  -0.38198  -0.37770
 Alpha  occ. eigenvalues --   -0.37552  -0.36930  -0.36785  -0.36333  -0.36242
 Alpha  occ. eigenvalues --   -0.35957  -0.35230  -0.35167  -0.34854  -0.34514
 Alpha  occ. eigenvalues --   -0.33571  -0.33397  -0.32677  -0.31760  -0.31427
 Alpha  occ. eigenvalues --   -0.31290  -0.30439  -0.29432  -0.29205  -0.29083
 Alpha  occ. eigenvalues --   -0.27344  -0.27090  -0.25788  -0.24989  -0.23840
 Alpha  occ. eigenvalues --   -0.23430  -0.23273  -0.22867  -0.21781  -0.18723
 Alpha virt. eigenvalues --   -0.13166  -0.07887  -0.05193  -0.02700  -0.02409
 Alpha virt. eigenvalues --    0.00638   0.01466   0.01796   0.02004   0.02517
 Alpha virt. eigenvalues --    0.02791   0.04014   0.04654   0.04906   0.05327

 Mulliken charges:
               1
     1  O   -0.265409
     2  O   -0.130993
     3  O   -0.238106
     4  O   -0.259005
     5  O   -0.233553
     6  O   -0.212327
     7  N   -0.018156
     8  N   -0.240926
     9  N   -0.153149
    10  N   -0.309038
    11  C    0.015294
    12  C    0.212368
    13  C   -0.152373
    14  C   -0.144560
    15  C   -0.078342
    16  C   -0.024967
    17  C   -0.019865
    18  C    0.076485
    19  C   -0.094947
    20  C   -0.155326
    21  C    0.226601
    22  C    0.177094
    23  C   -0.090180
    24  C    0.095281
    25  C   -0.040929
    26  C   -0.114358
    27  C    0.019764
    28  C    0.110848
    29  C    0.053005
    30  C   -0.015799
    31  C   -0.043159
    32  C    0.162033
    33  C   -0.158003
    34  C    0.104404
    35  C    0.083992
    36  C    0.005309
    37  C    0.179767
    38  C    0.090471
    39  C   -0.227481
    40  C    0.170269
    41  C    0.002675
    42  C    0.169173
    43  C   -0.015749
    44  H    0.105762
    45  H   -0.026583
    46  H   -0.020931
    47  H    0.101368
    48  H    0.181438
    49  H    0.042069
    50  H   -0.020602
    51  H   -0.005667
    52  H    0.009853
    53  H   -0.034775
    54  H    0.049774
    55  H    0.040690
    56  H    0.046838
    57  H    0.049876
    58  H    0.070445
    59  H    0.019157
    60  H    0.162421
    61  H    0.004713
    62  H    0.060526
    63  H    0.020833
    64  H    0.062751
    65  H    0.050968
    66  H    0.015875
    67  H    0.040802
    68  H    0.039562
    69  H    0.062035
    70  H   -0.021506
    71  H   -0.005246
    72  H    0.152688
    73  H   -0.029320
    74  H   -0.030859
    75  H    0.013071
    76  H    0.045513
    77  H    0.226094
    78  H    0.027477
    79  H   -0.025240
 Sum of Mulliken charges =  -0.00000

 Dipole moment (field-independent basis, Debye):
    X=              3.2203    Y=              3.5155    Z=             -0.1649  Tot=              4.7704
 Quadrupole moment (field-independent basis, Debye-Ang):
   XX=           -234.9876   YY=           -230.5495   ZZ=           -271.1928
   XY=             12.5397   XZ=            -26.9164   YZ=             -2.2461

 Normal termination of Gaussian 16 at Fri Jul 26 06:08:36 2019.
