 Gaussian 16, Revision A.03,
 Gaussian 16:  ES64L-G16RevA.03 25-Dec-2016

 --------------------------
 # td=(NStates=1) B3LYP/SVP
 --------------------------

 --
 TD
 --
 Symbolic Z-matrix:
 Charge =  0 Multiplicity = 1

                         Standard orientation:
 ---------------------------------------------------------------------
 Center     Atomic      Atomic             Coordinates (Angstroms)
 Number     Number       Type             X           Y           Z
 ---------------------------------------------------------------------
      1          8           0       -3.334149   -0.951278   -2.991435
      2          8           0        3.156543    2.663613    3.453855
      3          8           0        3.650605    0.862864    4.641688
      4          8           0        7.764842   -1.387664   -0.906131
      5          8           0        6.692172   -2.639191   -2.339349
      6          8           0       -2.622381    1.445414    1.584833
      7          7           0       -0.231747   -2.499656    0.659937
      8          7           0       -2.566915   -1.259285   -0.780200
      9          7           0        1.185745    0.092452   -0.718651
     10          7           0       -1.001368    1.432521   -0.072700
     11          6           0       -3.331825   -1.547952    0.525105
     12          6           0       -2.585496   -2.627693    1.365779
     13          6           0       -1.256956   -2.286940    1.569870
     14          6           0       -0.670147   -1.551294    2.636984
     15          6           0        0.709695   -1.467169    2.326775
     16          6           0        0.878969   -1.940130    0.909788
     17          6           0       -4.778823   -1.888593    0.060802
     18          6           0        1.797164   -0.793696    3.138509
     19          6           0       -4.844872   -1.800501   -1.271421
     20          6           0        2.193306   -1.902346    0.109405
     21          6           0        2.197374   -0.870698   -0.780767
     22          6           0       -3.507843   -1.265562   -1.809855
     23          6           0        3.027446   -0.435586   -1.845980
     24          6           0       -1.296707   -0.951126    3.777080
     25          6           0       -5.900326   -2.135425    1.050323
     26          6           0        2.605051    0.724109   -2.503377
     27          6           0        1.934433    0.714944    2.912083
     28          6           0        1.343776    1.036403   -1.746635
     29          6           0        4.288794   -1.222564   -2.198227
     30          6           0       -5.989979   -2.012197   -2.250056
     31          6           0        5.462169   -0.797570   -1.301666
     32          6           0        3.157667    1.474378   -3.523982
     33          6           0        0.533923    2.159518   -1.844789
     34          6           0        3.043390    1.340772    3.780578
     35          6           0       -0.552986    2.384536   -0.930167
     36          6           0       -7.001818   -2.768971   -1.967900
     37          6           0        6.676884   -1.687611   -1.593410
     38          6           0       -1.409705    3.607177   -0.843738
     39          6           0       -2.345356    3.410818    0.191448
     40          6           0       -2.004116    2.022515    0.653050
     41          6           0       -1.243772    4.729191   -1.763806
     42          6           0       -3.416865    4.177586    0.730130
     43          6           0       -1.964169    5.904131   -1.676026
     44          1           0       -3.475870   -0.487848    1.103683
     45          1           0       -2.825185   -3.420226    0.666391
     46          1           0       -3.174398   -2.703751    2.413159
     47          1           0       -0.627528   -2.838956   -0.103944
     48          1           0       -2.043033   -0.317838   -0.896196
     49          1           0        1.646012   -0.889773    4.129268
     50          1           0        2.672237   -1.406979    2.897830
     51          1           0        2.741647   -2.808347    0.286056
     52          1           0       -2.110852   -1.391303    4.182730
     53          1           0       -0.538692   -0.486043    4.436704
     54          1           0       -1.934225   -0.062054    3.322359
     55          1           0       -5.855131   -1.365454    2.011183
     56          1           0       -5.532811   -3.144213    1.321340
     57          1           0       -6.860679   -2.530476    0.636749
     58          1           0        2.019176    0.877036    1.918666
     59          1           0        0.944372    1.195402    3.244836
     60          1           0        0.472335    0.151155    0.089729
     61          1           0        4.510047   -1.160618   -3.220674
     62          1           0        4.041101   -2.381629   -1.944604
     63          1           0       -5.992129   -1.333320   -3.046611
     64          1           0        5.338137   -1.116291   -0.347911
     65          1           0        5.911736    0.377365   -1.370362
     66          1           0        3.953064    0.784877   -3.964005
     67          1           0        3.571451    2.536670   -3.191893
     68          1           0        2.253908    1.695854   -4.169428
     69          1           0        0.647136    2.742696   -2.676524
     70          1           0       -6.914626   -3.539855   -1.194036
     71          1           0       -7.636997   -2.988498   -2.868503
     72          1           0        3.815596    3.090323    4.190488
     73          1           0       -0.579113    4.501139   -2.802087
     74          1           0       -3.956383    4.457408   -0.019475
     75          1           0       -4.152456    3.436961    1.347061
     76          1           0       -3.154968    5.024212    1.412043
     77          1           0        8.577264   -1.832526   -1.196979
     78          1           0       -1.695551    6.668910   -2.385471
     79          1           0       -2.705322    5.958987   -0.693418
 ---------------------------------------------------------------------

 SCF Done:  E(RB3LYP) =  -1947.79727217     A.U. after   18 cycles

 Excitation energies and oscillator strengths:

 Excited State   1:      Singlet-A      0.7590 eV 1633.50 nm  f=0.0008  <S**2>=0.000
     155 ->156         0.70435
 This state for optimization and/or second-order correction.
 Total Energy, E(TD-HF/TD-DFT) =  -1947.76937907
 Copying the excited state density for this state as the 1-particle RhoCI density.

 The electronic state is 1-A.
 Alpha  occ. eigenvalues --  -19.18749 -19.17119 -19.12618 -19.12517 -19.11989
 Alpha  occ. eigenvalues --  -19.08522 -14.37130 -14.36158 -14.33192 -14.31095
 Alpha  occ. eigenvalues --  -10.32520 -10.30873 -10.28005 -10.26801 -10.26538
 Alpha  occ. eigenvalues --  -10.25817 -10.25387 -10.23012 -10.22997 -10.22894
 Alpha  occ. eigenvalues --  -10.22865 -10.22834 -10.22812 -10.22398 -10.22301
 Alpha  occ. eigenvalues --  -10.22074 -10.21914 -10.21385 -10.21061 -10.20869
 Alpha  occ. eigenvalues --  -10.20522 -10.20498 -10.19958 -10.19532 -10.18966
 Alpha  occ. eigenvalues --  -10.18473 -10.18163 -10.18002 -10.17478 -10.17044
 Alpha  occ. eigenvalues --  -10.16513 -10.16440 -10.16192  -1.11118  -1.09557
 Alpha  occ. eigenvalues --   -1.01532  -1.00749  -1.00033  -0.99612  -0.99273
 Alpha  occ. eigenvalues --   -0.98100  -0.93328  -0.89996  -0.84310  -0.82825
 Alpha  occ. eigenvalues --   -0.81725  -0.80304  -0.80107  -0.79694  -0.79075
 Alpha  occ. eigenvalues --   -0.77246  -0.76150  -0.75906  -0.75042  -0.74208
 Alpha  occ. eigenvalues --   -0.71107  -0.70265  -0.69421  -0.69340  -0.67686
 Alpha  occ. eigenvalues --   -0.66589  -0.66297  -0.62760  -0.62142  -0.60783
 Alpha  occ. eigenvalues --   -0.59610  -0.57778  -0.57668  -0.57135  -0.56011
 Alpha  occ. eigenvalues --   -0.55303  -0.54904  -0.54173  -0.53214  -0.52891
 Alpha  occ. eigenvalues --   -0.51939  -0.51305  -0.51085  -0.50102  -0.49495
 Alpha  occ. eigenvalues --   -0.49117  -0.48510  -0.48194  -0.47866  -0.47764
 Alpha  occ. eigenvalues --   -0.47630  -0.47322  -0.46608  -0.46190  -0.45897
 Alpha  occ. eigenvalues --   -0.45711  -0.45365  -0.44637  -0.44352  -0.43806
 Alpha  occ. eigenvalues --   -0.43411  -0.43148  -0.42855  -0.42635  -0.42205
 Alpha  occ. eigenvalues --   -0.42133  -0.41961  -0.41697  -0.41426  -0.40945
 Alpha  occ. eigenvalues --   -0.40699  -0.40561  -0.40273  -0.40108  -0.39802
 Alpha  occ. eigenvalues --   -0.39146  -0.38998  -0.38616  -0.38274  -0.37628
 Alpha  occ. eigenvalues --   -0.37194  -0.37129  -0.36756  -0.36459  -0.35696
 Alpha  occ. eigenvalues --   -0.35542  -0.35422  -0.35284  -0.34920  -0.34626
 Alpha  occ. eigenvalues --   -0.34251  -0.32860  -0.32636  -0.32056  -0.31874
 Alpha  occ. eigenvalues --   -0.31403  -0.29726  -0.29074  -0.28773  -0.28249
 Alpha  occ. eigenvalues --   -0.28105  -0.26490  -0.25953  -0.25284  -0.23765
 Alpha  occ. eigenvalues --   -0.23615  -0.22911  -0.22457  -0.21502  -0.17959
 Alpha virt. eigenvalues --   -0.12729  -0.08015  -0.03014  -0.02611   0.00025
 Alpha virt. eigenvalues --    0.01810   0.01913   0.02223   0.02642   0.02894
 Alpha virt. eigenvalues --    0.03516   0.03901   0.04664   0.04687   0.05298

 Mulliken charges:
               1
     1  O   -0.251061
     2  O   -0.260267
     3  O   -0.164686
     4  O   -0.169836
     5  O   -0.229467
     6  O   -0.237875
     7  N    0.148308
     8  N   -0.254821
     9  N   -0.171456
    10  N   -0.280483
    11  C   -0.029656
    12  C    0.184190
    13  C   -0.119450
    14  C   -0.087935
    15  C   -0.199521
    16  C   -0.165458
    17  C   -0.189186
    18  C    0.179870
    19  C   -0.081076
    20  C   -0.117791
    21  C    0.242232
    22  C    0.131559
    23  C   -0.096598
    24  C    0.150940
    25  C    0.082491
    26  C   -0.056631
    27  C    0.015709
    28  C    0.135777
    29  C    0.056758
    30  C    0.032600
    31  C    0.034453
    32  C    0.019021
    33  C   -0.064731
    34  C    0.126401
    35  C    0.109865
    36  C   -0.026474
    37  C    0.083602
    38  C    0.038492
    39  C   -0.188112
    40  C    0.167579
    41  C   -0.093795
    42  C    0.121848
    43  C   -0.039400
    44  H    0.081971
    45  H   -0.031215
    46  H    0.020263
    47  H    0.050816
    48  H    0.176527
    49  H   -0.040149
    50  H   -0.012253
    51  H    0.023752
    52  H   -0.048154
    53  H    0.004744
    54  H    0.032179
    55  H    0.069272
    56  H    0.016443
    57  H    0.018428
    58  H   -0.017322
    59  H    0.050866
    60  H    0.234051
    61  H    0.006705
    62  H    0.047564
    63  H   -0.004680
    64  H    0.008456
    65  H    0.074242
    66  H    0.041791
    67  H    0.066381
    68  H    0.052726
    69  H   -0.070480
    70  H    0.016646
    71  H    0.025466
    72  H    0.210923
    73  H    0.044989
    74  H   -0.012028
    75  H    0.044493
    76  H    0.053301
    77  H    0.191683
    78  H    0.030386
    79  H    0.055287
 Sum of Mulliken charges =  -0.00000

 Dipole moment (field-independent basis, Debye):
    X=              3.6329    Y=              3.6846    Z=             -0.9476  Tot=              5.2605
 Quadrupole moment (field-independent basis, Debye-Ang):
   XX=           -230.3211   YY=           -234.7646   ZZ=           -268.3646
   XY=              7.7816   XZ=            -21.6727   YZ=             -9.7212

 Normal termination of Gaussian 16 at Sat Jul 27 10:25:37 2019.
