 Gaussian 16, Revision A.03,
 Gaussian 16:  ES64L-G16RevA.03 25-Dec-2016

 --------------------------
 # td=(NStates=1) B3LYP/SVP
 --------------------------

 --
 TD
 --
 Symbolic Z-matrix:
 Charge =  0 Multiplicity = 1

                         Standard orientation:
 ---------------------------------------------------------------------
 Center     Atomic      Atomic             Coordinates (Angstroms)
 Number     Number       Type             X           Y           Z
 ---------------------------------------------------------------------
      1          8           0       -3.288970   -0.883287   -3.039825
      2          8           0        3.415536    2.464544    3.503312
      3          8           0        3.659780    0.493204    4.654146
      4          8           0        7.693681   -1.270793   -0.941408
      5          8           0        6.634648   -2.622466   -2.532584
      6          8           0       -2.690766    1.325304    1.683789
      7          7           0       -0.309663   -2.437792    0.464757
      8          7           0       -2.598686   -1.198090   -0.811828
      9          7           0        1.121117    0.156656   -0.762286
     10          7           0       -1.073079    1.402807    0.028424
     11          6           0       -3.381032   -1.462407    0.483487
     12          6           0       -2.657301   -2.498206    1.277932
     13          6           0       -1.220929   -2.178427    1.442396
     14          6           0       -0.498237   -1.717435    2.597170
     15          6           0        0.785490   -1.507706    2.207859
     16          6           0        1.014556   -2.108651    0.913250
     17          6           0       -4.732838   -1.906279    0.011145
     18          6           0        1.890819   -0.943946    3.055086
     19          6           0       -4.802195   -1.747588   -1.315271
     20          6           0        2.027174   -1.926408    0.037134
     21          6           0        2.026341   -0.823639   -0.845159
     22          6           0       -3.480382   -1.228020   -1.831464
     23          6           0        3.011514   -0.322447   -1.868236
     24          6           0       -1.134317   -1.178879    3.902969
     25          6           0       -5.882556   -2.338116    1.017650
     26          6           0        2.503495    0.837320   -2.453999
     27          6           0        2.067418    0.637793    2.909645
     28          6           0        1.377043    1.199581   -1.627976
     29          6           0        4.203100   -1.122526   -2.406265
     30          6           0       -5.781852   -2.143868   -2.331374
     31          6           0        5.357688   -0.930828   -1.451353
     32          6           0        2.973343    1.752162   -3.453292
     33          6           0        0.471527    2.342875   -1.694268
     34          6           0        3.105836    1.126387    3.770798
     35          6           0       -0.641425    2.436285   -0.841186
     36          6           0       -7.085356   -2.711525   -2.044269
     37          6           0        6.663037   -1.681385   -1.724326
     38          6           0       -1.451198    3.660384   -0.676380
     39          6           0       -2.342776    3.388162    0.458946
     40          6           0       -2.042349    1.973911    0.839509
     41          6           0       -1.241930    4.910851   -1.392303
     42          6           0       -3.449087    4.261564    0.840123
     43          6           0       -2.004904    6.043890   -1.411073
     44          1           0       -3.330836   -0.562580    0.918780
     45          1           0       -2.719516   -3.617207    0.953132
     46          1           0       -3.064920   -2.547192    2.234134
     47          1           0       -0.475025   -2.708824   -0.533018
     48          1           0       -2.084191   -0.436230   -0.758127
     49          1           0        1.832109   -1.242094    4.060968
     50          1           0        2.939430   -1.301944    2.822573
     51          1           0        2.735880   -2.692269   -0.173669
     52          1           0       -1.875646   -2.022129    4.421328
     53          1           0       -0.245670   -1.056702    4.518781
     54          1           0       -1.644542   -0.251833    3.618101
     55          1           0       -5.804790   -1.788010    1.939539
     56          1           0       -6.013234   -3.451567    1.136012
     57          1           0       -6.731557   -1.869806    0.756429
     58          1           0        2.269184    0.727421    1.704225
     59          1           0        1.222350    1.117434    3.100669
     60          1           0        0.441962    0.293205   -0.182139
     61          1           0        4.449088   -0.667534   -3.359548
     62          1           0        4.043108   -2.117322   -2.546267
     63          1           0       -5.510922   -2.090624   -3.315837
     64          1           0        5.340339   -1.147721   -0.232224
     65          1           0        5.456867    0.168688   -1.203543
     66          1           0        3.925730    1.523879   -4.043299
     67          1           0        3.241136    2.628208   -3.100324
     68          1           0        2.124423    2.043863   -4.183144
     69          1           0        0.592905    3.090830   -2.530246
     70          1           0       -7.380264   -3.003262   -1.157389
     71          1           0       -7.772903   -3.127841   -2.840276
     72          1           0        4.252312    2.758518    3.983247
     73          1           0       -0.329735    4.861168   -2.142299
     74          1           0       -4.289556    4.375333    0.138179
     75          1           0       -3.965406    3.800063    1.677071
     76          1           0       -3.057597    5.291586    1.163074
     77          1           0        8.548170   -1.800283   -1.383461
     78          1           0       -1.549543    6.784604   -2.104006
     79          1           0       -2.824544    5.963796   -0.791755
 ---------------------------------------------------------------------

 SCF Done:  E(RB3LYP) =  -1947.82285836     A.U. after   21 cycles

 Excitation energies and oscillator strengths:

 Excited State   1:      Singlet-A      0.8144 eV 1522.33 nm  f=0.0022  <S**2>=0.000
     155 ->156         0.70196
 This state for optimization and/or second-order correction.
 Total Energy, E(TD-HF/TD-DFT) =  -1947.79292825
 Copying the excited state density for this state as the 1-particle RhoCI density.

 The electronic state is 1-A.
 Alpha  occ. eigenvalues --  -19.21205 -19.17290 -19.13961 -19.12744 -19.11396
 Alpha  occ. eigenvalues --  -19.07740 -14.37566 -14.37162 -14.32114 -14.30576
 Alpha  occ. eigenvalues --  -10.33811 -10.31811 -10.27891 -10.27446 -10.26315
 Alpha  occ. eigenvalues --  -10.26190 -10.25419 -10.24097 -10.23381 -10.23183
 Alpha  occ. eigenvalues --  -10.22293 -10.22186 -10.21829 -10.21774 -10.21764
 Alpha  occ. eigenvalues --  -10.21651 -10.21468 -10.21171 -10.20684 -10.20603
 Alpha  occ. eigenvalues --  -10.20224 -10.20085 -10.20039 -10.19959 -10.19266
 Alpha  occ. eigenvalues --  -10.19239 -10.19087 -10.18830 -10.18715 -10.18557
 Alpha  occ. eigenvalues --  -10.18359 -10.17558 -10.16695  -1.09251  -1.07245
 Alpha  occ. eigenvalues --   -1.01839  -1.01266  -1.00785  -0.99268  -0.98609
 Alpha  occ. eigenvalues --   -0.95675  -0.91586  -0.91316  -0.85106  -0.82981
 Alpha  occ. eigenvalues --   -0.80868  -0.80712  -0.80565  -0.79815  -0.78595
 Alpha  occ. eigenvalues --   -0.77185  -0.76669  -0.75879  -0.74691  -0.73336
 Alpha  occ. eigenvalues --   -0.71489  -0.70578  -0.70142  -0.69764  -0.67793
 Alpha  occ. eigenvalues --   -0.66851  -0.65964  -0.63827  -0.61299  -0.61070
 Alpha  occ. eigenvalues --   -0.60621  -0.58942  -0.58785  -0.58395  -0.57691
 Alpha  occ. eigenvalues --   -0.57200  -0.55899  -0.54589  -0.53458  -0.53139
 Alpha  occ. eigenvalues --   -0.52528  -0.51914  -0.51483  -0.50321  -0.49889
 Alpha  occ. eigenvalues --   -0.49700  -0.48965  -0.48741  -0.48671  -0.47777
 Alpha  occ. eigenvalues --   -0.47579  -0.47034  -0.46800  -0.46688  -0.46523
 Alpha  occ. eigenvalues --   -0.46144  -0.45563  -0.44532  -0.44217  -0.44074
 Alpha  occ. eigenvalues --   -0.43535  -0.43266  -0.43175  -0.42877  -0.42629
 Alpha  occ. eigenvalues --   -0.42195  -0.41726  -0.41405  -0.40818  -0.40631
 Alpha  occ. eigenvalues --   -0.40536  -0.40286  -0.40247  -0.40013  -0.39801
 Alpha  occ. eigenvalues --   -0.39532  -0.39073  -0.38936  -0.38252  -0.38171
 Alpha  occ. eigenvalues --   -0.37789  -0.37654  -0.37164  -0.36659  -0.36110
 Alpha  occ. eigenvalues --   -0.35667  -0.35305  -0.34870  -0.34674  -0.34539
 Alpha  occ. eigenvalues --   -0.34133  -0.33427  -0.33353  -0.32742  -0.31766
 Alpha  occ. eigenvalues --   -0.31248  -0.30244  -0.29369  -0.29048  -0.28551
 Alpha  occ. eigenvalues --   -0.28083  -0.27551  -0.25654  -0.25145  -0.23760
 Alpha  occ. eigenvalues --   -0.22915  -0.22825  -0.22251  -0.22070  -0.19091
 Alpha virt. eigenvalues --   -0.13372  -0.08550  -0.04847  -0.02169  -0.01683
 Alpha virt. eigenvalues --   -0.00745   0.00097   0.00672   0.01647   0.02531
 Alpha virt. eigenvalues --    0.03333   0.03363   0.04400   0.04932   0.05011

 Mulliken charges:
               1
     1  O   -0.295441
     2  O   -0.253080
     3  O   -0.226111
     4  O   -0.238924
     5  O   -0.255872
     6  O   -0.243703
     7  N   -0.102841
     8  N   -0.136571
     9  N    0.071558
    10  N   -0.335180
    11  C    0.118962
    12  C    0.250799
    13  C   -0.120877
    14  C   -0.124322
    15  C   -0.068855
    16  C    0.027544
    17  C   -0.159188
    18  C    0.066931
    19  C   -0.030433
    20  C   -0.026942
    21  C    0.052313
    22  C    0.134288
    23  C   -0.158371
    24  C    0.051270
    25  C    0.147861
    26  C   -0.072928
    27  C    0.007664
    28  C    0.051479
    29  C    0.276014
    30  C    0.017011
    31  C   -0.137528
    32  C    0.113549
    33  C   -0.098359
    34  C    0.165367
    35  C    0.128193
    36  C   -0.006642
    37  C    0.189898
    38  C    0.037506
    39  C   -0.174026
    40  C    0.195251
    41  C   -0.103268
    42  C    0.060594
    43  C    0.058393
    44  H   -0.013990
    45  H    0.006927
    46  H   -0.046913
    47  H    0.134938
    48  H    0.085919
    49  H    0.003000
    50  H   -0.004845
    51  H   -0.009470
    52  H    0.029832
    53  H    0.005185
    54  H    0.058355
    55  H    0.000674
    56  H    0.052142
    57  H   -0.009783
    58  H    0.064315
    59  H    0.007290
    60  H    0.064268
    61  H    0.006428
    62  H   -0.000602
    63  H   -0.022385
    64  H    0.065307
    65  H    0.027455
    66  H    0.026546
    67  H   -0.012758
    68  H    0.044083
    69  H    0.012804
    70  H   -0.037271
    71  H    0.029620
    72  H    0.199070
    73  H    0.006922
    74  H    0.049809
    75  H    0.011451
    76  H    0.049414
    77  H    0.241503
    78  H    0.040674
    79  H   -0.018898
 Sum of Mulliken charges =  -0.00000

 Dipole moment (field-independent basis, Debye):
    X=              4.4213    Y=              3.3544    Z=             -0.9440  Tot=              5.6294
 Quadrupole moment (field-independent basis, Debye-Ang):
   XX=           -222.9806   YY=           -235.7132   ZZ=           -273.8486
   XY=             12.0670   XZ=            -25.7500   YZ=            -10.7350

 Normal termination of Gaussian 16 at Tue Jul 30 04:10:12 2019.
