 Gaussian 16, Revision A.03,
 Gaussian 16:  ES64L-G16RevA.03 25-Dec-2016

 --------------------------
 # td=(NStates=1) B3LYP/SVP
 --------------------------

 --
 TD
 --
 Symbolic Z-matrix:
 Charge =  0 Multiplicity = 1

                         Standard orientation:
 ---------------------------------------------------------------------
 Center     Atomic      Atomic             Coordinates (Angstroms)
 Number     Number       Type             X           Y           Z
 ---------------------------------------------------------------------
      1          8           0        5.312587    0.119805   -3.304486
      2          8           0       -3.010027   -2.933153    3.326124
      3          8           0       -3.396071   -0.787259    2.982634
      4          8           0       -1.869207    7.101865    1.405797
      5          8           0       -0.716362    7.078972   -0.546540
      6          8           0       -1.676453   -4.037770    0.102045
      7          7           0        2.344019    1.052480    0.745180
      8          7           0        4.396212   -0.540161   -1.216920
      9          7           0       -1.878241    0.713578   -0.269221
     10          7           0       -2.513391   -1.887716   -0.499617
     11          6           0        4.767048   -1.118507   -0.039717
     12          6           0        4.282718   -0.360766    1.230132
     13          6           0        2.888208    0.013085    1.364240
     14          6           0        1.921041   -0.644041    2.165830
     15          6           0        0.658631    0.042269    1.941220
     16          6           0        0.911838    0.990463    0.974211
     17          6           0        6.243110   -1.370717   -0.199408
     18          6           0       -0.596067   -0.217792    2.737083
     19          6           0        6.603297   -0.697887   -1.424859
     20          6           0        0.109117    2.089552    0.325367
     21          6           0       -1.200102    1.832631   -0.264869
     22          6           0        5.303088   -0.276802   -2.192095
     23          6           0       -1.985170    2.886463   -0.968821
     24          6           0        2.139071   -1.741601    3.125096
     25          6           0        7.166057   -1.882782    0.852056
     26          6           0       -3.157790    2.248498   -1.272317
     27          6           0       -1.002295   -1.636205    2.654672
     28          6           0       -3.028389    0.842832   -0.938216
     29          6           0       -1.649704    4.350136   -0.935781
     30          6           0        7.894940   -0.638492   -2.046065
     31          6           0       -1.924965    5.135123    0.363250
     32          6           0       -4.308404    2.931774   -1.931092
     33          6           0       -3.878921   -0.089274   -1.416641
     34          6           0       -2.570723   -1.746621    3.005002
     35          6           0       -3.607347   -1.506987   -1.212223
     36          6           0        9.089509   -0.733613   -1.440783
     37          6           0       -1.430666    6.578317    0.303300
     38          6           0       -4.370960   -2.773210   -1.557549
     39          6           0       -3.715346   -3.894348   -1.098948
     40          6           0       -2.560348   -3.346544   -0.524774
     41          6           0       -5.607584   -2.612784   -2.317203
     42          6           0       -4.129350   -5.265912   -1.114156
     43          6           0       -6.339085   -3.673670   -2.645716
     44          1           0        4.064039   -2.070033   -0.075772
     45          1           0        4.799225    0.580831    1.413521
     46          1           0        4.865952   -0.832380    2.234825
     47          1           0        2.841212    1.452305   -0.124499
     48          1           0        3.485425   -0.826460   -1.466625
     49          1           0       -0.515813    0.317219    3.739947
     50          1           0       -1.269250    0.486525    2.235244
     51          1           0        0.478526    3.149218    0.290271
     52          1           0        3.126068   -2.022010    3.135867
     53          1           0        1.901144   -1.394852    4.187107
     54          1           0        1.783892   -2.749283    2.849958
     55          1           0        6.770208   -2.529992    1.543542
     56          1           0        7.664654   -1.185260    1.522287
     57          1           0        7.943137   -2.485009    0.350935
     58          1           0       -1.012915   -1.828149    1.468762
     59          1           0       -0.451565   -2.350237    3.261158
     60          1           0       -1.760147   -0.192896   -0.042299
     61          1           0       -2.173798    4.904098   -1.972831
     62          1           0       -0.621638    4.283395   -1.250190
     63          1           0        7.831912   -0.389293   -3.081378
     64          1           0       -1.426899    4.676169    1.194320
     65          1           0       -2.944786    4.865049    0.797324
     66          1           0       -4.127344    3.928309   -2.382549
     67          1           0       -5.256507    2.945132   -1.406254
     68          1           0       -4.679698    2.387835   -3.022765
     69          1           0       -4.623440    0.116900   -2.283223
     70          1           0        9.071008   -0.674515   -0.414659
     71          1           0        9.902393   -0.720176   -1.917752
     72          1           0       -3.828082   -3.106307    3.135906
     73          1           0       -5.953142   -1.576506   -2.556632
     74          1           0       -5.042679   -5.472233   -0.298446
     75          1           0       -3.980136   -5.717654   -2.105380
     76          1           0       -3.211516   -5.886659   -0.639258
     77          1           0       -1.545044    8.078496    1.528822
     78          1           0       -7.220629   -3.483517   -3.220844
     79          1           0       -5.966441   -4.660532   -2.670346
 ---------------------------------------------------------------------

 SCF Done:  E(RB3LYP) =  -1947.79440746     A.U. after   17 cycles

 Excitation energies and oscillator strengths:

 Excited State   1:      Singlet-A      1.8337 eV  676.13 nm  f=0.3334  <S**2>=0.000
     152 ->156         0.10024
     155 ->156         0.69996
     155 <-156        -0.11309
 This state for optimization and/or second-order correction.
 Total Energy, E(TD-HF/TD-DFT) =  -1947.72701925
 Copying the excited state density for this state as the 1-particle RhoCI density.

 The electronic state is 1-A.
 Alpha  occ. eigenvalues --  -19.20430 -19.16252 -19.13384 -19.11369 -19.10545
 Alpha  occ. eigenvalues --  -19.09932 -14.38051 -14.36782 -14.35695 -14.30034
 Alpha  occ. eigenvalues --  -10.33093 -10.30822 -10.29273 -10.26643 -10.25249
 Alpha  occ. eigenvalues --  -10.24861 -10.24196 -10.23842 -10.22833 -10.22560
 Alpha  occ. eigenvalues --  -10.22200 -10.22074 -10.21991 -10.21968 -10.21501
 Alpha  occ. eigenvalues --  -10.21240 -10.21098 -10.20942 -10.20925 -10.20670
 Alpha  occ. eigenvalues --  -10.20476 -10.20193 -10.20050 -10.19882 -10.19713
 Alpha  occ. eigenvalues --  -10.19503 -10.19201 -10.19017 -10.18733 -10.18681
 Alpha  occ. eigenvalues --  -10.18160 -10.17992 -10.17241  -1.11592  -1.10340
 Alpha  occ. eigenvalues --   -1.05027  -1.01812  -1.01559  -0.98623  -0.98182
 Alpha  occ. eigenvalues --   -0.97247  -0.96405  -0.91019  -0.83046  -0.81915
 Alpha  occ. eigenvalues --   -0.81553  -0.81318  -0.80416  -0.79499  -0.78029
 Alpha  occ. eigenvalues --   -0.77194  -0.76669  -0.75779  -0.74435  -0.72249
 Alpha  occ. eigenvalues --   -0.71639  -0.70713  -0.69941  -0.69360  -0.69204
 Alpha  occ. eigenvalues --   -0.67989  -0.66911  -0.64290  -0.63312  -0.62539
 Alpha  occ. eigenvalues --   -0.61946  -0.60557  -0.58679  -0.57476  -0.57315
 Alpha  occ. eigenvalues --   -0.56177  -0.55599  -0.55112  -0.54386  -0.53354
 Alpha  occ. eigenvalues --   -0.51661  -0.51401  -0.51147  -0.50965  -0.49678
 Alpha  occ. eigenvalues --   -0.49545  -0.49162  -0.48729  -0.48004  -0.47516
 Alpha  occ. eigenvalues --   -0.47137  -0.46901  -0.46618  -0.46035  -0.45378
 Alpha  occ. eigenvalues --   -0.45237  -0.44873  -0.44604  -0.44196  -0.44070
 Alpha  occ. eigenvalues --   -0.43620  -0.43535  -0.43354  -0.43189  -0.42387
 Alpha  occ. eigenvalues --   -0.42078  -0.41920  -0.41674  -0.41513  -0.40949
 Alpha  occ. eigenvalues --   -0.40775  -0.40526  -0.40267  -0.39853  -0.39527
 Alpha  occ. eigenvalues --   -0.39355  -0.39248  -0.38971  -0.38704  -0.38284
 Alpha  occ. eigenvalues --   -0.38178  -0.37596  -0.37377  -0.36558  -0.35495
 Alpha  occ. eigenvalues --   -0.35362  -0.35075  -0.34196  -0.33889  -0.33667
 Alpha  occ. eigenvalues --   -0.33511  -0.33049  -0.32666  -0.31532  -0.31478
 Alpha  occ. eigenvalues --   -0.31297  -0.29571  -0.29323  -0.28168  -0.27513
 Alpha  occ. eigenvalues --   -0.27345  -0.26321  -0.25947  -0.25348  -0.24882
 Alpha  occ. eigenvalues --   -0.24416  -0.23477  -0.23124  -0.22386  -0.18706
 Alpha virt. eigenvalues --   -0.11450  -0.06965  -0.06311  -0.00748  -0.00017
 Alpha virt. eigenvalues --    0.00806   0.01216   0.01282   0.02150   0.03305
 Alpha virt. eigenvalues --    0.03656   0.04371   0.04480   0.04702   0.04853

 Mulliken charges:
               1
     1  O   -0.165911
     2  O   -0.067484
     3  O   -0.291674
     4  O   -0.169796
     5  O   -0.224122
     6  O   -0.263898
     7  N   -0.099826
     8  N   -0.125343
     9  N    0.126527
    10  N   -0.330164
    11  C    0.068855
    12  C    0.089246
    13  C   -0.064153
    14  C   -0.170417
    15  C   -0.118513
    16  C    0.037740
    17  C   -0.128283
    18  C    0.151599
    19  C   -0.136335
    20  C   -0.100312
    21  C    0.023942
    22  C    0.153680
    23  C   -0.113834
    24  C    0.152832
    25  C    0.114227
    26  C   -0.089165
    27  C   -0.033472
    28  C    0.119805
    29  C    0.053836
    30  C   -0.037898
    31  C    0.003737
    32  C    0.036191
    33  C   -0.151894
    34  C    0.119045
    35  C    0.048041
    36  C    0.118951
    37  C    0.158343
    38  C    0.042157
    39  C   -0.146138
    40  C    0.162256
    41  C   -0.053879
    42  C    0.033750
    43  C    0.033721
    44  H    0.021707
    45  H   -0.016015
    46  H    0.029476
    47  H    0.149409
    48  H    0.112264
    49  H    0.016790
    50  H   -0.012951
    51  H    0.026028
    52  H   -0.061474
    53  H    0.029768
    54  H    0.028851
    55  H   -0.021975
    56  H    0.033505
    57  H    0.031100
    58  H    0.117158
    59  H    0.032691
    60  H    0.078017
    61  H    0.039923
    62  H    0.015358
    63  H   -0.006879
    64  H    0.017061
    65  H    0.042766
    66  H    0.019583
    67  H    0.028260
    68  H    0.017511
    69  H    0.026595
    70  H   -0.011527
    71  H   -0.047699
    72  H    0.119973
    73  H    0.004618
    74  H    0.074067
    75  H    0.037654
    76  H    0.026964
    77  H    0.211214
    78  H    0.009349
    79  H    0.014894
 Sum of Mulliken charges =  -0.00000

 Dipole moment (field-independent basis, Debye):
    X=             -0.6693    Y=              1.4774    Z=              2.0151  Tot=              2.5868
 Quadrupole moment (field-independent basis, Debye-Ang):
   XX=           -224.8794   YY=           -235.7377   ZZ=           -261.1875
   XY=             -7.6965   XZ=             35.0375   YZ=             14.5746

 Normal termination of Gaussian 16 at Fri Oct  4 09:50:21 2019.
