 Gaussian 16, Revision A.03,
 Gaussian 16:  ES64L-G16RevA.03 25-Dec-2016

 --------------------------
 # td=(NStates=1) B3LYP/SVP
 --------------------------

 --
 TD
 --
 Symbolic Z-matrix:
 Charge =  0 Multiplicity = 1

                         Standard orientation:
 ---------------------------------------------------------------------
 Center     Atomic      Atomic             Coordinates (Angstroms)
 Number     Number       Type             X           Y           Z
 ---------------------------------------------------------------------
      1          8           0       -3.158388   -1.561611   -2.918894
      2          8           0        2.971544    3.131289    3.286432
      3          8           0        3.868348    1.329021    4.214485
      4          8           0        7.712775   -1.787787   -0.505856
      5          8           0        6.753543   -3.012600   -2.186207
      6          8           0       -2.659438    1.668690    1.500255
      7          7           0       -0.257551   -2.403534    0.864019
      8          7           0       -2.715354   -1.104965   -0.649162
      9          7           0        1.187360    0.250358   -0.790465
     10          7           0       -0.978118    1.506486   -0.108896
     11          6           0       -3.438996   -1.215512    0.663481
     12          6           0       -2.621366   -2.201925    1.618549
     13          6           0       -1.246980   -1.990906    1.812560
     14          6           0       -0.571278   -1.243376    2.783326
     15          6           0        0.754577   -1.246968    2.486045
     16          6           0        0.894852   -1.968402    1.249107
     17          6           0       -4.736945   -1.887551    0.248049
     18          6           0        1.831707   -0.380647    3.198170
     19          6           0       -4.849731   -2.230970   -1.159962
     20          6           0        2.015117   -1.882930    0.306356
     21          6           0        1.996836   -0.828219   -0.665213
     22          6           0       -3.495200   -1.619593   -1.707118
     23          6           0        3.046765   -0.548197   -1.702105
     24          6           0       -1.340336   -0.355613    3.930923
     25          6           0       -5.752261   -2.327614    1.329739
     26          6           0        2.608391    0.615312   -2.377128
     27          6           0        1.842409    1.028813    2.770333
     28          6           0        1.416386    1.087915   -1.834618
     29          6           0        4.270005   -1.499128   -2.061704
     30          6           0       -5.750396   -2.718153   -2.028944
     31          6           0        5.474596   -1.134484   -1.153577
     32          6           0        3.147062    1.141665   -3.687371
     33          6           0        0.578669    2.093776   -2.075700
     34          6           0        2.948181    1.775097    3.486415
     35          6           0       -0.559471    2.324241   -1.127718
     36          6           0       -6.827316   -3.506183   -1.698930
     37          6           0        6.694948   -2.056119   -1.401125
     38          6           0       -1.421077    3.574917   -1.225639
     39          6           0       -2.339623    3.453318   -0.261893
     40          6           0       -2.014445    2.132171    0.537627
     41          6           0       -1.312180    4.659919   -2.232550
     42          6           0       -3.593371    4.235850    0.150228
     43          6           0       -1.943967    5.881154   -2.291552
     44          1           0       -3.753812   -0.309738    1.173527
     45          1           0       -2.723679   -3.254076    1.278298
     46          1           0       -3.186913   -2.183861    2.514483
     47          1           0       -0.428189   -2.876046   -0.004967
     48          1           0       -2.034666   -0.342360   -0.702272
     49          1           0        1.467819   -0.370368    4.290649
     50          1           0        2.771163   -0.814385    3.007610
     51          1           0        2.807215   -2.678054    0.377335
     52          1           0       -2.067698   -0.933329    4.423748
     53          1           0       -0.746919    0.178307    4.784883
     54          1           0       -1.821974    0.355089    3.280083
     55          1           0       -5.595637   -1.592016    2.390986
     56          1           0       -5.673385   -3.215430    1.650470
     57          1           0       -6.744249   -2.076435    0.989820
     58          1           0        1.976480    1.362776    1.703137
     59          1           0        0.931201    1.400930    2.923176
     60          1           0        0.416204    0.465447   -0.044450
     61          1           0        4.499645   -1.260013   -3.090869
     62          1           0        4.254077   -2.572507   -1.868421
     63          1           0       -5.515166   -2.483459   -3.070405
     64          1           0        5.106005   -1.149630   -0.127287
     65          1           0        5.806429    0.012919   -1.247668
     66          1           0        4.058883    0.617936   -4.147956
     67          1           0        3.655190    2.174578   -3.559394
     68          1           0        2.410245    1.419522   -4.476557
     69          1           0        0.773236    2.848020   -2.820660
     70          1           0       -7.177592   -3.707785   -0.654955
     71          1           0       -7.547724   -3.737264   -2.544879
     72          1           0        3.733305    3.513756    3.572701
     73          1           0       -0.732322    4.335642   -3.198356
     74          1           0       -4.151957    4.395383   -0.839486
     75          1           0       -4.267453    4.061491    1.082247
     76          1           0       -3.332400    5.237803    0.545446
     77          1           0        8.506162   -2.483911   -0.503119
     78          1           0       -1.867147    6.477688   -3.170292
     79          1           0       -2.599159    6.339008   -1.515159
 ---------------------------------------------------------------------

 SCF Done:  E(RB3LYP) =  -1947.85740489     A.U. after   21 cycles

 Excitation energies and oscillator strengths:

 Excited State   1:      Singlet-A      0.8922 eV 1389.66 nm  f=0.0069  <S**2>=0.000
     155 ->156         0.70333
 This state for optimization and/or second-order correction.
 Total Energy, E(TD-HF/TD-DFT) =  -1947.82461749
 Copying the excited state density for this state as the 1-particle RhoCI density.

 The electronic state is 1-A.
 Alpha  occ. eigenvalues --  -19.19069 -19.16469 -19.14053 -19.13268 -19.11728
 Alpha  occ. eigenvalues --  -19.08362 -14.37317 -14.36929 -14.33370 -14.32792
 Alpha  occ. eigenvalues --  -10.33923 -10.31975 -10.29566 -10.27869 -10.27451
 Alpha  occ. eigenvalues --  -10.26232 -10.25865 -10.23866 -10.23654 -10.23198
 Alpha  occ. eigenvalues --  -10.23117 -10.22727 -10.22590 -10.22455 -10.22331
 Alpha  occ. eigenvalues --  -10.22267 -10.22160 -10.21870 -10.21815 -10.21518
 Alpha  occ. eigenvalues --  -10.21366 -10.20965 -10.19869 -10.19700 -10.19653
 Alpha  occ. eigenvalues --  -10.19520 -10.19355 -10.18958 -10.18853 -10.18676
 Alpha  occ. eigenvalues --  -10.18396 -10.17526 -10.16966  -1.08529  -1.07862
 Alpha  occ. eigenvalues --   -1.02712  -1.00491  -0.99647  -0.98400  -0.98169
 Alpha  occ. eigenvalues --   -0.97812  -0.94036  -0.89887  -0.82981  -0.82437
 Alpha  occ. eigenvalues --   -0.81652  -0.81396  -0.80463  -0.79422  -0.78590
 Alpha  occ. eigenvalues --   -0.76965  -0.76374  -0.75605  -0.74421  -0.72019
 Alpha  occ. eigenvalues --   -0.70833  -0.69643  -0.69102  -0.68751  -0.67691
 Alpha  occ. eigenvalues --   -0.67325  -0.66436  -0.64017  -0.61479  -0.60999
 Alpha  occ. eigenvalues --   -0.60592  -0.60099  -0.59994  -0.57322  -0.56937
 Alpha  occ. eigenvalues --   -0.56715  -0.55895  -0.54970  -0.53882  -0.53552
 Alpha  occ. eigenvalues --   -0.52015  -0.51206  -0.51023  -0.50626  -0.49859
 Alpha  occ. eigenvalues --   -0.49398  -0.48681  -0.48560  -0.47689  -0.47638
 Alpha  occ. eigenvalues --   -0.47225  -0.46817  -0.46655  -0.46257  -0.46195
 Alpha  occ. eigenvalues --   -0.45443  -0.45328  -0.44927  -0.44427  -0.44099
 Alpha  occ. eigenvalues --   -0.43747  -0.43590  -0.42988  -0.42939  -0.42086
 Alpha  occ. eigenvalues --   -0.41794  -0.41560  -0.41202  -0.40807  -0.40478
 Alpha  occ. eigenvalues --   -0.40329  -0.39976  -0.39682  -0.39206  -0.39182
 Alpha  occ. eigenvalues --   -0.38928  -0.38616  -0.38381  -0.38187  -0.37965
 Alpha  occ. eigenvalues --   -0.37840  -0.37477  -0.37053  -0.37001  -0.36559
 Alpha  occ. eigenvalues --   -0.35851  -0.35774  -0.35535  -0.35299  -0.34973
 Alpha  occ. eigenvalues --   -0.34041  -0.33656  -0.32769  -0.32699  -0.32219
 Alpha  occ. eigenvalues --   -0.30890  -0.30855  -0.30171  -0.29732  -0.29237
 Alpha  occ. eigenvalues --   -0.27008  -0.26665  -0.26301  -0.25096  -0.24876
 Alpha  occ. eigenvalues --   -0.23975  -0.23173  -0.22860  -0.21689  -0.18767
 Alpha virt. eigenvalues --   -0.13134  -0.07995  -0.05776  -0.03119  -0.02201
 Alpha virt. eigenvalues --   -0.00405   0.01522   0.01863   0.02288   0.02887
 Alpha virt. eigenvalues --    0.03817   0.04089   0.04379   0.05313   0.05568

 Mulliken charges:
               1
     1  O   -0.281163
     2  O   -0.161061
     3  O   -0.269000
     4  O   -0.258065
     5  O   -0.241018
     6  O   -0.220768
     7  N   -0.009998
     8  N   -0.234807
     9  N   -0.138965
    10  N   -0.306780
    11  C    0.116315
    12  C    0.219964
    13  C   -0.093629
    14  C   -0.092765
    15  C   -0.162682
    16  C   -0.058995
    17  C   -0.197492
    18  C    0.170475
    19  C    0.010362
    20  C   -0.112263
    21  C    0.112878
    22  C    0.162683
    23  C   -0.112351
    24  C    0.075592
    25  C    0.091703
    26  C   -0.085636
    27  C    0.059332
    28  C    0.196201
    29  C    0.154029
    30  C   -0.053241
    31  C   -0.089160
    32  C    0.027187
    33  C   -0.105137
    34  C    0.134093
    35  C    0.084838
    36  C   -0.052487
    37  C    0.200277
    38  C    0.048935
    39  C   -0.185877
    40  C    0.190081
    41  C   -0.047683
    42  C    0.027498
    43  C   -0.027599
    44  H    0.046620
    45  H   -0.019822
    46  H   -0.037420
    47  H    0.113218
    48  H    0.140912
    49  H    0.024076
    50  H   -0.013628
    51  H    0.039076
    52  H   -0.003487
    53  H    0.023931
    54  H    0.039786
    55  H    0.018718
    56  H   -0.008369
    57  H    0.036474
    58  H    0.031290
    59  H   -0.014779
    60  H    0.218405
    61  H    0.014876
    62  H    0.031039
    63  H    0.012415
    64  H    0.047585
    65  H    0.055975
    66  H    0.031832
    67  H    0.017729
    68  H    0.041739
    69  H   -0.021351
    70  H    0.026216
    71  H    0.031417
    72  H    0.141985
    73  H    0.030527
    74  H    0.051562
    75  H    0.051929
    76  H    0.027521
    77  H    0.231365
    78  H    0.023843
    79  H    0.032972
 Sum of Mulliken charges =  -0.00000

 Dipole moment (field-independent basis, Debye):
    X=              1.7810    Y=              3.7721    Z=             -0.7019  Tot=              4.2301
 Quadrupole moment (field-independent basis, Debye-Ang):
   XX=           -234.6397   YY=           -234.1994   ZZ=           -272.2844
   XY=             -2.0114   XZ=            -20.5103   YZ=            -19.0435

 Normal termination of Gaussian 16 at Fri Jul 26 22:49:12 2019.
