 Gaussian 16, Revision A.03,
 Gaussian 16:  ES64L-G16RevA.03 25-Dec-2016

 --------------------------
 # td=(NStates=1) B3LYP/SVP
 --------------------------

 --
 TD
 --
 Symbolic Z-matrix:
 Charge =  0 Multiplicity = 1

                         Standard orientation:
 ---------------------------------------------------------------------
 Center     Atomic      Atomic             Coordinates (Angstroms)
 Number     Number       Type             X           Y           Z
 ---------------------------------------------------------------------
      1          8           0       -3.299174   -1.389585   -2.864491
      2          8           0        3.166660    3.271058    3.063621
      3          8           0        3.689504    1.494796    4.419417
      4          8           0        7.812176   -1.544277   -0.779636
      5          8           0        6.592367   -3.122586   -1.881890
      6          8           0       -2.460807    1.694876    1.466611
      7          7           0       -0.234249   -2.443965    0.910519
      8          7           0       -2.727721   -1.113228   -0.525320
      9          7           0        1.142774    0.068506   -0.785369
     10          7           0       -0.987195    1.491706   -0.214086
     11          6           0       -3.352434   -1.316062    0.770146
     12          6           0       -2.672211   -2.434021    1.595162
     13          6           0       -1.275550   -2.040317    1.815000
     14          6           0       -0.686805   -1.173162    2.838210
     15          6           0        0.681223   -1.087826    2.514252
     16          6           0        1.004598   -1.747118    1.267283
     17          6           0       -4.722331   -1.884241    0.310863
     18          6           0        1.748261   -0.274604    3.234899
     19          6           0       -4.799168   -1.993095   -1.051141
     20          6           0        2.066959   -1.889056    0.398604
     21          6           0        2.053281   -0.948335   -0.619606
     22          6           0       -3.522441   -1.478050   -1.651149
     23          6           0        3.022515   -0.721691   -1.713219
     24          6           0       -1.465804   -0.432762    3.776125
     25          6           0       -5.745965   -2.077801    1.444436
     26          6           0        2.546781    0.351831   -2.566549
     27          6           0        2.085269    1.156076    2.667870
     28          6           0        1.342522    0.832207   -1.934453
     29          6           0        4.166881   -1.606817   -2.022501
     30          6           0       -5.919894   -2.489884   -1.898850
     31          6           0        5.404291   -1.168511   -1.095206
     32          6           0        3.252385    0.999492   -3.727438
     33          6           0        0.461936    1.970009   -2.146702
     34          6           0        3.051364    1.927539    3.503410
     35          6           0       -0.664512    2.230465   -1.310499
     36          6           0       -6.880492   -3.333212   -1.718786
     37          6           0        6.669019   -2.038772   -1.312262
     38          6           0       -1.511763    3.499063   -1.402918
     39          6           0       -2.224817    3.463133   -0.214821
     40          6           0       -1.917060    2.179720    0.471773
     41          6           0       -1.312710    4.450948   -2.396746
     42          6           0       -3.313359    4.395610    0.210223
     43          6           0       -2.029882    5.607122   -2.424186
     44          1           0       -3.361004   -0.540142    1.466985
     45          1           0       -2.832989   -3.342874    1.208357
     46          1           0       -3.364533   -2.300884    2.555205
     47          1           0       -0.437469   -3.124349    0.260560
     48          1           0       -1.951907   -0.517654   -0.711830
     49          1           0        1.162787   -0.153987    4.192428
     50          1           0        2.520140   -1.038666    3.505345
     51          1           0        2.992936   -2.570214    0.512361
     52          1           0       -2.327389   -0.925941    4.180899
     53          1           0       -0.859460   -0.003635    4.637113
     54          1           0       -1.823069    0.346716    3.110466
     55          1           0       -5.389898   -1.294950    2.255916
     56          1           0       -5.649212   -3.065623    2.007629
     57          1           0       -6.684396   -2.091420    1.047042
     58          1           0        2.508269    1.223367    1.791034
     59          1           0        0.967813    1.700403    2.454942
     60          1           0        0.348049    0.221823   -0.181583
     61          1           0        4.572898   -1.580601   -3.018654
     62          1           0        4.053363   -2.562660   -1.779771
     63          1           0       -5.768957   -2.158386   -2.983196
     64          1           0        5.088620   -1.175668    0.033334
     65          1           0        5.686443   -0.047114   -1.097514
     66          1           0        3.934133    0.206118   -4.152380
     67          1           0        3.875272    1.954546   -3.599385
     68          1           0        2.428495    1.146589   -4.502671
     69          1           0        0.685764    2.578890   -3.237367
     70          1           0       -7.061368   -3.866028   -0.786632
     71          1           0       -7.683061   -3.466778   -2.481078
     72          1           0        3.932370    3.513051    3.633971
     73          1           0       -0.359106    4.464724   -3.047499
     74          1           0       -4.231717    4.324627   -0.319737
     75          1           0       -3.441941    4.043335    1.393898
     76          1           0       -2.958398    5.443924    0.511052
     77          1           0        8.459153   -2.322786   -0.847607
     78          1           0       -1.724205    6.473624   -3.124576
     79          1           0       -2.908024    5.685960   -1.643657
 ---------------------------------------------------------------------

 SCF Done:  E(RB3LYP) =  -1947.86964089     A.U. after   20 cycles

 Excitation energies and oscillator strengths:

 Excited State   1:      Singlet-A      0.8723 eV 1421.32 nm  f=0.0069  <S**2>=0.000
     155 ->156         0.70370
 This state for optimization and/or second-order correction.
 Total Energy, E(TD-HF/TD-DFT) =  -1947.83758384
 Copying the excited state density for this state as the 1-particle RhoCI density.

 The electronic state is 1-A.
 Alpha  occ. eigenvalues --  -19.20507 -19.17412 -19.14196 -19.13529 -19.11210
 Alpha  occ. eigenvalues --  -19.08904 -14.37109 -14.36577 -14.32663 -14.30326
 Alpha  occ. eigenvalues --  -10.33980 -10.32021 -10.27307 -10.27283 -10.27261
 Alpha  occ. eigenvalues --  -10.25781 -10.25415 -10.23835 -10.23742 -10.23362
 Alpha  occ. eigenvalues --  -10.23168 -10.22914 -10.22619 -10.22084 -10.21522
 Alpha  occ. eigenvalues --  -10.21427 -10.21335 -10.21321 -10.21227 -10.21109
 Alpha  occ. eigenvalues --  -10.20979 -10.20746 -10.20726 -10.20439 -10.20236
 Alpha  occ. eigenvalues --  -10.19800 -10.19646 -10.18846 -10.18625 -10.18528
 Alpha  occ. eigenvalues --  -10.17785 -10.17771 -10.17002  -1.10544  -1.08628
 Alpha  occ. eigenvalues --   -1.02322  -1.01448  -1.00362  -0.99523  -0.99146
 Alpha  occ. eigenvalues --   -0.93990  -0.93155  -0.91257  -0.83358  -0.82648
 Alpha  occ. eigenvalues --   -0.81976  -0.80559  -0.79719  -0.79063  -0.77948
 Alpha  occ. eigenvalues --   -0.76970  -0.76907  -0.75359  -0.74423  -0.72881
 Alpha  occ. eigenvalues --   -0.71417  -0.70073  -0.69951  -0.69586  -0.67496
 Alpha  occ. eigenvalues --   -0.67141  -0.65448  -0.62891  -0.60807  -0.60216
 Alpha  occ. eigenvalues --   -0.58872  -0.58771  -0.57654  -0.57520  -0.56758
 Alpha  occ. eigenvalues --   -0.55748  -0.55346  -0.54857  -0.53079  -0.52713
 Alpha  occ. eigenvalues --   -0.51813  -0.51271  -0.51042  -0.50667  -0.49781
 Alpha  occ. eigenvalues --   -0.49333  -0.48918  -0.48830  -0.48075  -0.47590
 Alpha  occ. eigenvalues --   -0.47421  -0.47021  -0.46414  -0.45980  -0.45920
 Alpha  occ. eigenvalues --   -0.45464  -0.45249  -0.44863  -0.44307  -0.43919
 Alpha  occ. eigenvalues --   -0.43507  -0.43261  -0.43010  -0.42717  -0.42511
 Alpha  occ. eigenvalues --   -0.42034  -0.41938  -0.41531  -0.41399  -0.41190
 Alpha  occ. eigenvalues --   -0.41049  -0.40860  -0.40076  -0.39857  -0.39301
 Alpha  occ. eigenvalues --   -0.39035  -0.38730  -0.38725  -0.38298  -0.38215
 Alpha  occ. eigenvalues --   -0.38107  -0.37451  -0.37053  -0.36982  -0.36633
 Alpha  occ. eigenvalues --   -0.36083  -0.35791  -0.35247  -0.34906  -0.33780
 Alpha  occ. eigenvalues --   -0.33651  -0.33409  -0.32864  -0.32402  -0.32103
 Alpha  occ. eigenvalues --   -0.31927  -0.30077  -0.29701  -0.28991  -0.28669
 Alpha  occ. eigenvalues --   -0.28246  -0.26460  -0.25994  -0.24579  -0.23973
 Alpha  occ. eigenvalues --   -0.23392  -0.23203  -0.22861  -0.22151  -0.18773
 Alpha virt. eigenvalues --   -0.13032  -0.08155  -0.03916  -0.02046  -0.01983
 Alpha virt. eigenvalues --   -0.00410   0.00174   0.01997   0.02640   0.02896
 Alpha virt. eigenvalues --    0.03410   0.03992   0.04142   0.05178   0.05448

 Mulliken charges:
               1
     1  O   -0.247126
     2  O   -0.237373
     3  O   -0.203796
     4  O   -0.194945
     5  O   -0.245194
     6  O   -0.220405
     7  N   -0.121837
     8  N   -0.228469
     9  N   -0.091732
    10  N   -0.276233
    11  C    0.081937
    12  C    0.223981
    13  C   -0.076861
    14  C   -0.089652
    15  C   -0.165966
    16  C    0.082262
    17  C   -0.170845
    18  C    0.125834
    19  C   -0.044519
    20  C   -0.137428
    21  C    0.112025
    22  C    0.170220
    23  C   -0.106560
    24  C    0.107012
    25  C    0.098148
    26  C   -0.114898
    27  C    0.029178
    28  C    0.103305
    29  C    0.225315
    30  C   -0.003325
    31  C   -0.134690
    32  C    0.046138
    33  C   -0.135336
    34  C    0.146753
    35  C    0.092229
    36  C   -0.047822
    37  C    0.175828
    38  C    0.102021
    39  C   -0.208846
    40  C    0.165496
    41  C   -0.074707
    42  C    0.022035
    43  C   -0.064742
    44  H    0.014389
    45  H   -0.067066
    46  H    0.001393
    47  H    0.088118
    48  H    0.121178
    49  H   -0.002715
    50  H    0.020362
    51  H    0.034087
    52  H   -0.008483
    53  H    0.009339
    54  H    0.051562
    55  H    0.043816
    56  H    0.034458
    57  H    0.004293
    58  H   -0.014292
    59  H    0.088558
    60  H    0.169337
    61  H    0.014246
    62  H   -0.021303
    63  H    0.022240
    64  H    0.058131
    65  H    0.040857
    66  H    0.021436
    67  H    0.066108
    68  H    0.041271
    69  H    0.049316
    70  H   -0.000910
    71  H    0.027192
    72  H    0.172995
    73  H    0.022380
    74  H    0.054936
    75  H    0.035973
    76  H    0.042995
    77  H    0.206568
    78  H    0.045446
    79  H    0.045381
 Sum of Mulliken charges =  -0.00000

 Dipole moment (field-independent basis, Debye):
    X=              3.9981    Y=              1.7878    Z=             -0.7288  Tot=              4.4398
 Quadrupole moment (field-independent basis, Debye-Ang):
   XX=           -231.1814   YY=           -238.9123   ZZ=           -267.9022
   XY=              2.3452   XZ=            -21.7294   YZ=            -17.2530

 Normal termination of Gaussian 16 at Sat Jul 27 19:50:04 2019.
