 Gaussian 16, Revision A.03,
 Gaussian 16:  ES64L-G16RevA.03 25-Dec-2016

 --------------------------
 # td=(NStates=1) B3LYP/SVP
 --------------------------

 --
 TD
 --
 Symbolic Z-matrix:
 Charge =  0 Multiplicity = 1

                         Standard orientation:
 ---------------------------------------------------------------------
 Center     Atomic      Atomic             Coordinates (Angstroms)
 Number     Number       Type             X           Y           Z
 ---------------------------------------------------------------------
      1          8           0       -3.154917   -1.751517   -2.756824
      2          8           0        3.173064    3.419258    2.822675
      3          8           0        3.393810    1.941152    4.596074
      4          8           0        7.935629   -1.376906   -0.968312
      5          8           0        6.708748   -3.136232   -1.913050
      6          8           0       -2.745704    1.659909    1.138366
      7          7           0       -0.286725   -2.180579    1.150670
      8          7           0       -2.583707   -1.307167   -0.439266
      9          7           0        1.270634    0.219398   -0.607582
     10          7           0       -1.119877    1.298704   -0.430855
     11          6           0       -3.384104   -1.177391    0.740281
     12          6           0       -2.684163   -2.034078    1.969223
     13          6           0       -1.195263   -1.793323    2.117673
     14          6           0       -0.459490   -0.867427    3.027771
     15          6           0        0.846360   -0.992479    2.607888
     16          6           0        0.935130   -1.705543    1.445427
     17          6           0       -4.676660   -1.923724    0.449079
     18          6           0        1.961157   -0.124862    3.348060
     19          6           0       -4.715794   -2.101171   -0.965188
     20          6           0        2.072919   -1.792282    0.546030
     21          6           0        2.157195   -0.953111   -0.564462
     22          6           0       -3.396487   -1.658023   -1.523530
     23          6           0        3.052136   -0.821543   -1.599120
     24          6           0       -1.155680   -0.003916    4.003546
     25          6           0       -5.774855   -2.037372    1.436308
     26          6           0        2.615073    0.242924   -2.516362
     27          6           0        1.971363    1.335850    2.635161
     28          6           0        1.338385    0.768883   -1.835012
     29          6           0        4.228230   -1.608405   -1.750675
     30          6           0       -5.662777   -2.821209   -1.791490
     31          6           0        5.528491   -1.113456   -1.081861
     32          6           0        3.071830    0.578091   -3.740457
     33          6           0        0.503274    1.780242   -2.095311
     34          6           0        2.900163    2.272001    3.525389
     35          6           0       -0.757088    2.098266   -1.447319
     36          6           0       -6.698031   -3.667027   -1.402029
     37          6           0        6.735566   -2.032866   -1.378563
     38          6           0       -1.671366    3.301039   -1.702220
     39          6           0       -2.428912    3.220479   -0.565257
     40          6           0       -2.140043    2.052036    0.188831
     41          6           0       -1.544453    4.201847   -2.899174
     42          6           0       -3.601314    4.327500   -0.205288
     43          6           0       -2.199148    5.367004   -2.899243
     44          1           0       -3.589140   -0.187720    1.216131
     45          1           0       -2.668283   -3.056438    1.782074
     46          1           0       -3.259009   -1.921443    2.952380
     47          1           0       -0.615288   -2.676483    0.151970
     48          1           0       -1.827034   -0.503308   -0.582941
     49          1           0        1.930404    0.060442    4.366551
     50          1           0        2.977433   -0.424787    3.050478
     51          1           0        2.637258   -2.665182    0.705628
     52          1           0       -1.851131   -0.758779    4.575381
     53          1           0       -0.640235    0.408349    4.812250
     54          1           0       -1.846715    0.742050    3.489202
     55          1           0       -5.953162   -0.867140    1.968121
     56          1           0       -5.597429   -2.832565    2.396067
     57          1           0       -6.701475   -2.542609    0.945398
     58          1           0        2.356242    1.135575    1.585534
     59          1           0        0.875027    1.660322    2.686846
     60          1           0        0.343904    0.301484   -0.288326
     61          1           0        4.408739   -1.697932   -2.793142
     62          1           0        4.037653   -2.635375   -1.165276
     63          1           0       -5.331318   -2.638890   -2.973102
     64          1           0        5.269483   -1.122580    0.066685
     65          1           0        5.798380   -0.034751   -1.548774
     66          1           0        3.876712   -0.051492   -4.373450
     67          1           0        3.606170    1.474599   -3.547957
     68          1           0        2.300946    0.837836   -4.419516
     69          1           0        0.730405    2.490157   -3.055878
     70          1           0       -7.045516   -3.796666   -0.309573
     71          1           0       -7.369004   -3.998830   -2.179594
     72          1           0        3.935782    3.869313    3.379877
     73          1           0       -0.812869    4.052177   -3.616129
     74          1           0       -4.369923    4.329382   -1.123308
     75          1           0       -4.001173    3.942129    0.779372
     76          1           0       -3.214422    5.199225    0.047958
     77          1           0        8.614217   -2.083270   -0.966160
     78          1           0       -2.124310    6.190423   -3.606262
     79          1           0       -2.958496    5.643250   -1.939327
 ---------------------------------------------------------------------

 SCF Done:  E(RB3LYP) =  -1947.77685795     A.U. after   19 cycles

 Excitation energies and oscillator strengths:

 Excited State   1:      Singlet-A      0.7866 eV 1576.15 nm  f=0.0025  <S**2>=0.000
     155 ->156         0.70371
 This state for optimization and/or second-order correction.
 Total Energy, E(TD-HF/TD-DFT) =  -1947.74794993
 Copying the excited state density for this state as the 1-particle RhoCI density.

 The electronic state is 1-A.
 Alpha  occ. eigenvalues --  -19.18984 -19.18718 -19.15426 -19.13126 -19.12728
 Alpha  occ. eigenvalues --  -19.08682 -14.37295 -14.36150 -14.34042 -14.31510
 Alpha  occ. eigenvalues --  -10.34457 -10.32121 -10.28466 -10.27143 -10.26316
 Alpha  occ. eigenvalues --  -10.26267 -10.25405 -10.24523 -10.23879 -10.23452
 Alpha  occ. eigenvalues --  -10.22750 -10.22666 -10.22501 -10.22386 -10.22203
 Alpha  occ. eigenvalues --  -10.22066 -10.21920 -10.21842 -10.21538 -10.21299
 Alpha  occ. eigenvalues --  -10.21042 -10.20940 -10.20093 -10.19817 -10.19718
 Alpha  occ. eigenvalues --  -10.19642 -10.18970 -10.18751 -10.18683 -10.17935
 Alpha  occ. eigenvalues --  -10.17608 -10.16372 -10.16297  -1.08574  -1.07746
 Alpha  occ. eigenvalues --   -1.05597  -1.01261  -0.99790  -0.99180  -0.98747
 Alpha  occ. eigenvalues --   -0.96108  -0.94544  -0.91640  -0.85663  -0.82889
 Alpha  occ. eigenvalues --   -0.82096  -0.79768  -0.79194  -0.78386  -0.77645
 Alpha  occ. eigenvalues --   -0.76580  -0.75226  -0.74596  -0.73861  -0.72460
 Alpha  occ. eigenvalues --   -0.70777  -0.69376  -0.69226  -0.68230  -0.67591
 Alpha  occ. eigenvalues --   -0.65636  -0.64131  -0.63309  -0.61210  -0.60007
 Alpha  occ. eigenvalues --   -0.59118  -0.58865  -0.57721  -0.56618  -0.56263
 Alpha  occ. eigenvalues --   -0.55867  -0.54087  -0.53686  -0.53353  -0.52831
 Alpha  occ. eigenvalues --   -0.52091  -0.50874  -0.50753  -0.50202  -0.49997
 Alpha  occ. eigenvalues --   -0.49204  -0.48649  -0.48120  -0.47955  -0.47899
 Alpha  occ. eigenvalues --   -0.47427  -0.47081  -0.46615  -0.46331  -0.46096
 Alpha  occ. eigenvalues --   -0.45591  -0.45199  -0.44617  -0.44174  -0.44054
 Alpha  occ. eigenvalues --   -0.43628  -0.43293  -0.43039  -0.42454  -0.41899
 Alpha  occ. eigenvalues --   -0.41821  -0.41580  -0.41104  -0.40860  -0.40579
 Alpha  occ. eigenvalues --   -0.40551  -0.40297  -0.39502  -0.39462  -0.39170
 Alpha  occ. eigenvalues --   -0.38748  -0.38545  -0.37894  -0.37774  -0.37354
 Alpha  occ. eigenvalues --   -0.37261  -0.36908  -0.36606  -0.36396  -0.36001
 Alpha  occ. eigenvalues --   -0.35698  -0.35329  -0.35220  -0.34933  -0.34817
 Alpha  occ. eigenvalues --   -0.33687  -0.33075  -0.32931  -0.32240  -0.31498
 Alpha  occ. eigenvalues --   -0.31154  -0.30176  -0.29961  -0.29677  -0.29187
 Alpha  occ. eigenvalues --   -0.28142  -0.27030  -0.25770  -0.25424  -0.24985
 Alpha  occ. eigenvalues --   -0.23672  -0.22428  -0.22150  -0.21346  -0.17866
 Alpha virt. eigenvalues --   -0.12577  -0.08415  -0.05437  -0.03061  -0.02886
 Alpha virt. eigenvalues --   -0.00127   0.01211   0.01317   0.02264   0.02689
 Alpha virt. eigenvalues --    0.03202   0.03724   0.04231   0.04474   0.04784

 Mulliken charges:
               1
     1  O   -0.278950
     2  O   -0.227100
     3  O   -0.235921
     4  O   -0.238704
     5  O   -0.213645
     6  O   -0.172152
     7  N   -0.110755
     8  N   -0.263202
     9  N   -0.087145
    10  N   -0.349511
    11  C    0.041244
    12  C    0.205939
    13  C   -0.137347
    14  C   -0.116867
    15  C   -0.088384
    16  C   -0.032086
    17  C   -0.086344
    18  C    0.125229
    19  C   -0.075510
    20  C   -0.102769
    21  C    0.161947
    22  C    0.178711
    23  C   -0.049588
    24  C    0.086823
    25  C   -0.057390
    26  C   -0.044247
    27  C   -0.099553
    28  C    0.114855
    29  C    0.054404
    30  C   -0.052385
    31  C   -0.062360
    32  C    0.056576
    33  C   -0.143714
    34  C    0.179584
    35  C    0.044525
    36  C   -0.058402
    37  C    0.187153
    38  C    0.061712
    39  C   -0.225848
    40  C    0.181796
    41  C    0.066701
    42  C    0.095874
    43  C   -0.066581
    44  H    0.072081
    45  H   -0.042843
    46  H    0.004490
    47  H    0.184524
    48  H    0.198826
    49  H    0.002497
    50  H   -0.022152
    51  H   -0.002751
    52  H    0.010913
    53  H   -0.014006
    54  H    0.049040
    55  H    0.068179
    56  H    0.054080
    57  H    0.038677
    58  H    0.060788
    59  H    0.061571
    60  H    0.149662
    61  H    0.000907
    62  H    0.040227
    63  H    0.055563
    64  H    0.075478
    65  H    0.062965
    66  H    0.052833
    67  H    0.022024
    68  H    0.028338
    69  H    0.005117
    70  H    0.034246
    71  H    0.024337
    72  H    0.202935
    73  H   -0.025228
    74  H    0.071779
    75  H    0.026791
    76  H    0.006325
    77  H    0.187459
    78  H    0.034574
    79  H    0.053142
 Sum of Mulliken charges =  -0.00000

 Dipole moment (field-independent basis, Debye):
    X=              3.5858    Y=              4.9560    Z=             -2.3305  Tot=              6.5460
 Quadrupole moment (field-independent basis, Debye-Ang):
   XX=           -235.7946   YY=           -238.6697   ZZ=           -265.5095
   XY=             -4.1835   XZ=            -22.0069   YZ=            -20.6234

 Normal termination of Gaussian 16 at Wed Jul 24 22:40:47 2019.
