 Gaussian 16, Revision A.03,
 Gaussian 16:  ES64L-G16RevA.03 25-Dec-2016

 --------------------------
 # td=(NStates=1) B3LYP/SVP
 --------------------------

 --
 TD
 --
 Symbolic Z-matrix:
 Charge =  0 Multiplicity = 1

                         Standard orientation:
 ---------------------------------------------------------------------
 Center     Atomic      Atomic             Coordinates (Angstroms)
 Number     Number       Type             X           Y           Z
 ---------------------------------------------------------------------
      1          8           0       -3.074146   -1.347549   -2.870055
      2          8           0        3.290729    2.856098    3.240261
      3          8           0        4.211037    0.998395    4.101727
      4          8           0        7.516337   -1.723127   -0.623847
      5          8           0        6.719315   -2.874229   -2.486970
      6          8           0       -2.686350    1.738535    1.432117
      7          7           0       -0.475794   -2.382028    0.893612
      8          7           0       -2.658879   -1.152407   -0.639839
      9          7           0        1.173510    0.232011   -0.615615
     10          7           0       -1.122731    1.531039   -0.226568
     11          6           0       -3.503127   -1.223416    0.597028
     12          6           0       -2.734429   -2.159170    1.663097
     13          6           0       -1.348605   -1.975700    1.840344
     14          6           0       -0.620700   -1.204896    2.823802
     15          6           0        0.702520   -1.225967    2.466281
     16          6           0        0.769918   -1.889880    1.168547
     17          6           0       -4.832060   -1.849099    0.158080
     18          6           0        1.918303   -0.562349    3.284029
     19          6           0       -4.846363   -1.956791   -1.123754
     20          6           0        1.955428   -1.969536    0.276412
     21          6           0        1.982232   -0.936075   -0.687132
     22          6           0       -3.533371   -1.379271   -1.693943
     23          6           0        2.867409   -0.724881   -1.798904
     24          6           0       -1.218407   -0.585107    4.041761
     25          6           0       -5.903820   -2.184915    1.181861
     26          6           0        2.511588    0.582992   -2.348145
     27          6           0        1.984201    0.906772    2.820383
     28          6           0        1.460120    1.068606   -1.647076
     29          6           0        4.105062   -1.527574   -2.088261
     30          6           0       -5.904128   -2.515404   -2.085329
     31          6           0        5.292739   -1.141935   -1.356761
     32          6           0        3.272622    1.140098   -3.512525
     33          6           0        0.592703    2.181788   -1.823444
     34          6           0        3.274005    1.555599    3.459169
     35          6           0       -0.486583    2.433446   -1.044835
     36          6           0       -6.854148   -3.315032   -1.776765
     37          6           0        6.519655   -2.091750   -1.552514
     38          6           0       -1.268678    3.685540   -1.071401
     39          6           0       -2.202494    3.494393   -0.089448
     40          6           0       -2.030594    2.131859    0.502521
     41          6           0       -1.180473    4.707331   -2.081645
     42          6           0       -3.332790    4.316762    0.251291
     43          6           0       -1.895864    5.765985   -2.221045
     44          1           0       -3.565926   -0.426352    1.141526
     45          1           0       -3.007593   -3.217960    1.409932
     46          1           0       -3.028890   -1.985952    2.771961
     47          1           0       -0.809819   -2.679141   -0.135870
     48          1           0       -1.943972   -0.399779   -0.791339
     49          1           0        1.719989   -0.691692    4.204184
     50          1           0        2.701450   -1.098077    2.921248
     51          1           0        2.506799   -2.831086    0.204775
     52          1           0       -1.997410   -1.069944    4.656301
     53          1           0       -0.599153    0.051227    4.676062
     54          1           0       -2.000463    0.124056    3.580759
     55          1           0       -5.975944   -1.485713    2.038032
     56          1           0       -5.944475   -3.276624    1.328535
     57          1           0       -6.899118   -2.025074    0.611441
     58          1           0        1.883436    1.035505    1.654994
     59          1           0        1.172555    1.565759    3.276264
     60          1           0        0.163826    0.474181   -0.159839
     61          1           0        4.300931   -1.448352   -3.159759
     62          1           0        3.970004   -2.632387   -2.193127
     63          1           0       -5.695666   -2.255015   -3.187044
     64          1           0        5.265123   -1.180154    0.013046
     65          1           0        5.609859   -0.095262   -1.244618
     66          1           0        4.078505    0.712272   -3.935826
     67          1           0        3.581970    2.219747   -3.338767
     68          1           0        2.347611    1.115424   -4.371535
     69          1           0        0.882684    2.750947   -2.574663
     70          1           0       -7.058039   -3.636886   -0.704595
     71          1           0       -7.535383   -3.771231   -2.665439
     72          1           0        4.038375    3.227164    3.587330
     73          1           0       -0.401970    4.562892   -2.781199
     74          1           0       -3.937085    4.739549   -0.649620
     75          1           0       -4.079725    3.839025    1.126318
     76          1           0       -2.983045    5.249215    0.811874
     77          1           0        8.353007   -2.212394   -1.126479
     78          1           0       -1.603653    6.579348   -2.937798
     79          1           0       -2.808145    6.072942   -1.474131
 ---------------------------------------------------------------------

 SCF Done:  E(RB3LYP) =  -1947.77990974     A.U. after   22 cycles

 Excitation energies and oscillator strengths:

 Excited State   1:      Singlet-A      0.4873 eV 2544.15 nm  f=0.0035  <S**2>=0.000
     155 ->156         0.70532
 This state for optimization and/or second-order correction.
 Total Energy, E(TD-HF/TD-DFT) =  -1947.76200065
 Copying the excited state density for this state as the 1-particle RhoCI density.

 The electronic state is 1-A.
 Alpha  occ. eigenvalues --  -19.19925 -19.18212 -19.15477 -19.11823 -19.10922
 Alpha  occ. eigenvalues --  -19.08362 -14.37455 -14.36846 -14.33501 -14.30542
 Alpha  occ. eigenvalues --  -10.34534 -10.32021 -10.27271 -10.26787 -10.26262
 Alpha  occ. eigenvalues --  -10.26120 -10.24981 -10.24920 -10.23971 -10.23891
 Alpha  occ. eigenvalues --  -10.23324 -10.22792 -10.22693 -10.21360 -10.21330
 Alpha  occ. eigenvalues --  -10.20873 -10.20564 -10.20529 -10.20375 -10.20197
 Alpha  occ. eigenvalues --  -10.20035 -10.19863 -10.19740 -10.19670 -10.19458
 Alpha  occ. eigenvalues --  -10.19290 -10.19251 -10.19241 -10.19069 -10.17858
 Alpha  occ. eigenvalues --  -10.17489 -10.17319 -10.16916  -1.10906  -1.08408
 Alpha  occ. eigenvalues --   -1.03458  -1.00399  -0.99454  -0.98921  -0.97942
 Alpha  occ. eigenvalues --   -0.96631  -0.94553  -0.90606  -0.84494  -0.82839
 Alpha  occ. eigenvalues --   -0.82025  -0.81281  -0.79830  -0.79756  -0.78860
 Alpha  occ. eigenvalues --   -0.76962  -0.76204  -0.75851  -0.75127  -0.73064
 Alpha  occ. eigenvalues --   -0.70922  -0.70454  -0.69885  -0.69643  -0.67839
 Alpha  occ. eigenvalues --   -0.67340  -0.66353  -0.63228  -0.60745  -0.60356
 Alpha  occ. eigenvalues --   -0.60213  -0.59087  -0.57741  -0.57528  -0.56847
 Alpha  occ. eigenvalues --   -0.55848  -0.55742  -0.55037  -0.53899  -0.53602
 Alpha  occ. eigenvalues --   -0.51549  -0.51356  -0.50576  -0.49884  -0.49812
 Alpha  occ. eigenvalues --   -0.49522  -0.49225  -0.48920  -0.47968  -0.47590
 Alpha  occ. eigenvalues --   -0.47501  -0.47152  -0.46428  -0.46141  -0.45960
 Alpha  occ. eigenvalues --   -0.45850  -0.45214  -0.44991  -0.44637  -0.44413
 Alpha  occ. eigenvalues --   -0.44071  -0.43724  -0.43219  -0.43064  -0.42848
 Alpha  occ. eigenvalues --   -0.42383  -0.42044  -0.41914  -0.41762  -0.40943
 Alpha  occ. eigenvalues --   -0.40653  -0.40386  -0.40140  -0.39746  -0.39627
 Alpha  occ. eigenvalues --   -0.39461  -0.38866  -0.38674  -0.38400  -0.37532
 Alpha  occ. eigenvalues --   -0.37313  -0.37113  -0.36744  -0.36615  -0.36179
 Alpha  occ. eigenvalues --   -0.35547  -0.35126  -0.34896  -0.34537  -0.33681
 Alpha  occ. eigenvalues --   -0.33544  -0.32783  -0.32734  -0.32230  -0.31857
 Alpha  occ. eigenvalues --   -0.31291  -0.31261  -0.30208  -0.29592  -0.29291
 Alpha  occ. eigenvalues --   -0.27226  -0.26636  -0.25412  -0.25014  -0.24526
 Alpha  occ. eigenvalues --   -0.23490  -0.23242  -0.23053  -0.22589  -0.18114
 Alpha virt. eigenvalues --   -0.13633  -0.07549  -0.03508  -0.03258  -0.01241
 Alpha virt. eigenvalues --   -0.00114   0.00947   0.01536   0.02334   0.02737
 Alpha virt. eigenvalues --    0.03329   0.03752   0.04723   0.05067   0.05496

 Mulliken charges:
               1
     1  O   -0.283120
     2  O   -0.104224
     3  O   -0.285816
     4  O   -0.272735
     5  O   -0.239303
     6  O   -0.195880
     7  N   -0.066518
     8  N   -0.234885
     9  N   -0.179410
    10  N   -0.301349
    11  C    0.206381
    12  C    0.111406
    13  C   -0.116286
    14  C   -0.054891
    15  C   -0.202699
    16  C   -0.060153
    17  C   -0.176947
    18  C    0.354998
    19  C   -0.056458
    20  C   -0.003727
    21  C    0.111622
    22  C    0.153657
    23  C   -0.062549
    24  C    0.056062
    25  C    0.074175
    26  C   -0.116947
    27  C   -0.102862
    28  C    0.085174
    29  C    0.156457
    30  C    0.025819
    31  C   -0.105856
    32  C    0.069707
    33  C   -0.049408
    34  C    0.139954
    35  C    0.180953
    36  C   -0.083815
    37  C    0.207499
    38  C    0.076874
    39  C   -0.182974
    40  C    0.145877
    41  C    0.036760
    42  C   -0.030345
    43  C   -0.086017
    44  H   -0.047093
    45  H   -0.018441
    46  H    0.002459
    47  H    0.171607
    48  H    0.160394
    49  H   -0.056876
    50  H   -0.030490
    51  H   -0.014947
    52  H    0.007717
    53  H    0.002321
    54  H    0.023753
    55  H    0.039198
    56  H    0.044983
    57  H    0.032354
    58  H    0.074095
    59  H    0.049326
    60  H    0.236106
    61  H    0.010992
    62  H    0.024725
    63  H    0.028439
    64  H    0.061203
    65  H    0.051857
    66  H   -0.003754
    67  H    0.039853
    68  H    0.059186
    69  H   -0.102491
    70  H    0.019709
    71  H    0.045998
    72  H    0.140120
    73  H   -0.035781
    74  H    0.058770
    75  H    0.052953
    76  H    0.037024
    77  H    0.228367
    78  H    0.028483
    79  H    0.039679
 Sum of Mulliken charges =  -0.00000

 Dipole moment (field-independent basis, Debye):
    X=              2.7876    Y=              2.5903    Z=             -1.3750  Tot=              4.0461
 Quadrupole moment (field-independent basis, Debye-Ang):
   XX=           -235.4596   YY=           -238.1382   ZZ=           -267.9885
   XY=             10.9302   XZ=            -25.6579   YZ=             -8.5466

 Normal termination of Gaussian 16 at Tue Jul 30 20:12:23 2019.
