 Gaussian 16, Revision A.03,
 Gaussian 16:  ES64L-G16RevA.03 25-Dec-2016

 --------------------------
 # td=(NStates=1) B3LYP/SVP
 --------------------------

 --
 TD
 --
 Symbolic Z-matrix:
 Charge =  0 Multiplicity = 1

                         Standard orientation:
 ---------------------------------------------------------------------
 Center     Atomic      Atomic             Coordinates (Angstroms)
 Number     Number       Type             X           Y           Z
 ---------------------------------------------------------------------
      1          8           0       -3.327744   -1.302961   -2.751908
      2          8           0        3.047122    3.511825    2.753090
      3          8           0        3.376631    1.926126    4.423924
      4          8           0        7.548811   -1.929066   -0.331866
      5          8           0        6.715454   -3.242026   -1.898402
      6          8           0       -2.570312    1.685882    1.318742
      7          7           0       -0.279989   -2.358664    1.035056
      8          7           0       -2.625848   -1.193910   -0.560781
      9          7           0        1.136867    0.014658   -0.793136
     10          7           0       -0.955010    1.388586   -0.349560
     11          6           0       -3.289097   -1.292878    0.712314
     12          6           0       -2.618943   -2.379037    1.643458
     13          6           0       -1.340298   -1.940979    1.954780
     14          6           0       -0.626462   -0.985303    2.892980
     15          6           0        0.740570   -0.979327    2.573295
     16          6           0        0.929910   -1.823449    1.380362
     17          6           0       -4.690788   -1.932001    0.388030
     18          6           0        1.766755   -0.124520    3.193571
     19          6           0       -4.800198   -2.034220   -0.989345
     20          6           0        2.076294   -1.868882    0.461150
     21          6           0        2.014526   -0.981807   -0.599329
     22          6           0       -3.579379   -1.468635   -1.536395
     23          6           0        3.000849   -0.789531   -1.707470
     24          6           0       -1.287710   -0.210114    3.867877
     25          6           0       -5.744469   -2.309853    1.417991
     26          6           0        2.630364    0.246144   -2.484654
     27          6           0        1.764730    1.332182    2.613566
     28          6           0        1.430903    0.824401   -1.862836
     29          6           0        4.188847   -1.654337   -1.891829
     30          6           0       -5.856290   -2.514869   -1.895195
     31          6           0        5.517456   -1.376737   -1.082843
     32          6           0        3.185070    0.986838   -3.756540
     33          6           0        0.599393    1.932297   -2.195201
     34          6           0        2.708556    2.262262    3.417099
     35          6           0       -0.478388    2.201377   -1.351241
     36          6           0       -6.843459   -3.394863   -1.667506
     37          6           0        6.614207   -2.218164   -1.183611
     38          6           0       -1.362918    3.498691   -1.437678
     39          6           0       -2.246941    3.364453   -0.323081
     40          6           0       -2.016756    2.150503    0.343612
     41          6           0       -1.087144    4.440075   -2.530184
     42          6           0       -3.319727    4.255836    0.129981
     43          6           0       -1.762363    5.537200   -2.615372
     44          1           0       -3.474632   -0.310552    1.173528
     45          1           0       -2.586488   -3.326074    1.037541
     46          1           0       -3.213911   -2.310831    2.629051
     47          1           0       -0.402525   -2.982376    0.178767
     48          1           0       -1.918521   -0.516770   -0.452994
     49          1           0        1.675232   -0.142044    4.261309
     50          1           0        2.791843   -0.479407    2.877270
     51          1           0        3.011573   -2.571890    0.528441
     52          1           0       -2.153938   -0.749663    4.379715
     53          1           0       -0.718996    0.126458    4.695334
     54          1           0       -1.742392    0.712689    3.237769
     55          1           0       -5.483216   -1.731462    2.423361
     56          1           0       -5.465060   -3.496188    1.627361
     57          1           0       -6.746937   -2.224095    1.152646
     58          1           0        1.992315    1.171846    1.380143
     59          1           0        0.776161    1.804655    2.521208
     60          1           0        0.532616    0.410096   -0.069370
     61          1           0        4.552506   -1.559487   -2.842639
     62          1           0        4.014958   -2.728571   -1.762456
     63          1           0       -5.748791   -2.016797   -3.013453
     64          1           0        5.195456   -1.325197   -0.106039
     65          1           0        5.863062   -0.396366   -1.249913
     66          1           0        4.079899    0.598457   -4.111608
     67          1           0        3.509494    1.942411   -3.516001
     68          1           0        2.493927    1.111263   -4.582876
     69          1           0        0.850179    2.585445   -2.969317
     70          1           0       -6.906029   -4.055760   -0.702823
     71          1           0       -7.704390   -3.805970   -2.512108
     72          1           0        3.734633    4.090391    3.139228
     73          1           0       -0.443072    4.086704   -3.267016
     74          1           0       -4.044967    4.494405   -0.627399
     75          1           0       -3.908234    3.942719    1.013055
     76          1           0       -2.898678    5.271425    0.476113
     77          1           0        8.192177   -2.580687   -0.248110
     78          1           0       -1.679644    6.427382   -3.323168
     79          1           0       -2.580064    5.864395   -2.082779
 ---------------------------------------------------------------------

 SCF Done:  E(RB3LYP) =  -1947.84687918     A.U. after   22 cycles

 Excitation energies and oscillator strengths:

 Excited State   1:      Singlet-A      0.8231 eV 1506.22 nm  f=0.0066  <S**2>=0.000
     155 ->156         0.70489
 This state for optimization and/or second-order correction.
 Total Energy, E(TD-HF/TD-DFT) =  -1947.81662906
 Copying the excited state density for this state as the 1-particle RhoCI density.

 The electronic state is 1-A.
 Alpha  occ. eigenvalues --  -19.19206 -19.16330 -19.13282 -19.12752 -19.12064
 Alpha  occ. eigenvalues --  -19.06823 -14.37410 -14.37126 -14.31988 -14.30548
 Alpha  occ. eigenvalues --  -10.33332 -10.32464 -10.28121 -10.26739 -10.26175
 Alpha  occ. eigenvalues --  -10.25357 -10.25047 -10.23340 -10.23225 -10.22913
 Alpha  occ. eigenvalues --  -10.22782 -10.22566 -10.21917 -10.21659 -10.21639
 Alpha  occ. eigenvalues --  -10.21385 -10.21232 -10.21210 -10.20927 -10.20895
 Alpha  occ. eigenvalues --  -10.20852 -10.20765 -10.20759 -10.20572 -10.20351
 Alpha  occ. eigenvalues --  -10.20138 -10.20110 -10.19704 -10.19384 -10.18785
 Alpha  occ. eigenvalues --  -10.18003 -10.17779 -10.17759  -1.12781  -1.04895
 Alpha  occ. eigenvalues --   -1.03845  -1.00575  -0.99326  -0.98549  -0.97629
 Alpha  occ. eigenvalues --   -0.94524  -0.91349  -0.91115  -0.84294  -0.82436
 Alpha  occ. eigenvalues --   -0.82047  -0.80725  -0.80546  -0.80092  -0.79287
 Alpha  occ. eigenvalues --   -0.77913  -0.75869  -0.75700  -0.74416  -0.73707
 Alpha  occ. eigenvalues --   -0.71471  -0.70644  -0.69959  -0.69877  -0.67626
 Alpha  occ. eigenvalues --   -0.65984  -0.65635  -0.63894  -0.63587  -0.61113
 Alpha  occ. eigenvalues --   -0.59932  -0.59365  -0.58918  -0.58200  -0.57525
 Alpha  occ. eigenvalues --   -0.55943  -0.55213  -0.54866  -0.53434  -0.52912
 Alpha  occ. eigenvalues --   -0.52714  -0.51988  -0.51367  -0.50421  -0.50187
 Alpha  occ. eigenvalues --   -0.49401  -0.48571  -0.48469  -0.48333  -0.48038
 Alpha  occ. eigenvalues --   -0.47463  -0.47085  -0.46446  -0.46171  -0.45646
 Alpha  occ. eigenvalues --   -0.45502  -0.44958  -0.44686  -0.44598  -0.43847
 Alpha  occ. eigenvalues --   -0.43652  -0.43540  -0.43181  -0.42568  -0.42399
 Alpha  occ. eigenvalues --   -0.42090  -0.41742  -0.40887  -0.40833  -0.40604
 Alpha  occ. eigenvalues --   -0.40213  -0.39995  -0.39821  -0.39754  -0.39365
 Alpha  occ. eigenvalues --   -0.39092  -0.38904  -0.38495  -0.38297  -0.37603
 Alpha  occ. eigenvalues --   -0.37352  -0.37165  -0.36999  -0.36566  -0.36427
 Alpha  occ. eigenvalues --   -0.36072  -0.35932  -0.35854  -0.35318  -0.34687
 Alpha  occ. eigenvalues --   -0.34165  -0.32844  -0.32438  -0.32216  -0.31397
 Alpha  occ. eigenvalues --   -0.31070  -0.29639  -0.29292  -0.28962  -0.27978
 Alpha  occ. eigenvalues --   -0.27852  -0.27703  -0.25814  -0.24166  -0.24085
 Alpha  occ. eigenvalues --   -0.22893  -0.22608  -0.22287  -0.22135  -0.17907
 Alpha virt. eigenvalues --   -0.12618  -0.08073  -0.04047  -0.02831  -0.01332
 Alpha virt. eigenvalues --   -0.00906   0.00624   0.02294   0.02798   0.03366
 Alpha virt. eigenvalues --    0.03732   0.04461   0.04629   0.05396   0.05677

 Mulliken charges:
               1
     1  O   -0.273457
     2  O   -0.282546
     3  O   -0.244386
     4  O   -0.104229
     5  O   -0.275536
     6  O   -0.194561
     7  N   -0.136951
     8  N   -0.158215
     9  N   -0.055037
    10  N   -0.385886
    11  C    0.012970
    12  C    0.193323
    13  C   -0.062740
    14  C   -0.078566
    15  C   -0.119735
    16  C    0.018961
    17  C   -0.202800
    18  C    0.138154
    19  C   -0.008160
    20  C   -0.137188
    21  C    0.092406
    22  C    0.141383
    23  C   -0.106720
    24  C    0.032156
    25  C    0.047649
    26  C   -0.092545
    27  C   -0.101627
    28  C    0.072132
    29  C    0.132501
    30  C   -0.008324
    31  C    0.071993
    32  C    0.181491
    33  C   -0.045667
    34  C    0.234338
    35  C    0.095565
    36  C   -0.140004
    37  C    0.096368
    38  C    0.052375
    39  C   -0.172144
    40  C    0.194718
    41  C    0.074440
    42  C    0.072479
    43  C   -0.008909
    44  H    0.054171
    45  H   -0.003434
    46  H    0.006025
    47  H    0.143991
    48  H    0.121132
    49  H    0.017105
    50  H    0.002563
    51  H    0.041801
    52  H    0.006376
    53  H   -0.010085
    54  H    0.074424
    55  H    0.040056
    56  H    0.055225
    57  H    0.028375
    58  H    0.065304
    59  H    0.052253
    60  H    0.182697
    61  H   -0.022593
    62  H    0.021035
    63  H    0.057970
    64  H    0.004289
    65  H    0.012303
    66  H   -0.015240
    67  H    0.000022
    68  H    0.034403
    69  H   -0.048274
    70  H    0.032583
    71  H    0.054069
    72  H    0.190720
    73  H   -0.019761
    74  H    0.027185
    75  H    0.023192
    76  H    0.029695
    77  H    0.160971
    78  H    0.027761
    79  H   -0.007779
 Sum of Mulliken charges =  -0.00000

 Dipole moment (field-independent basis, Debye):
    X=              2.9451    Y=              4.0394    Z=             -0.5005  Tot=              5.0240
 Quadrupole moment (field-independent basis, Debye-Ang):
   XX=           -236.1288   YY=           -231.4772   ZZ=           -270.3850
   XY=              3.6920   XZ=            -18.0145   YZ=            -23.5232

 Normal termination of Gaussian 16 at Fri Jul 26 03:16:40 2019.
