 Gaussian 16, Revision A.03,
 Gaussian 16:  ES64L-G16RevA.03 25-Dec-2016

 --------------------------
 # td=(NStates=1) B3LYP/SVP
 --------------------------

 --
 TD
 --
 Symbolic Z-matrix:
 Charge =  0 Multiplicity = 1

                         Standard orientation:
 ---------------------------------------------------------------------
 Center     Atomic      Atomic             Coordinates (Angstroms)
 Number     Number       Type             X           Y           Z
 ---------------------------------------------------------------------
      1          8           0        5.335729    0.179565   -3.209471
      2          8           0       -3.052676   -3.124920    3.163339
      3          8           0       -3.343102   -0.940108    3.211615
      4          8           0       -1.561433    7.269562    1.523122
      5          8           0       -0.528394    7.024140   -0.513734
      6          8           0       -1.707622   -3.929449   -0.263385
      7          7           0        2.406429    0.941808    0.768521
      8          7           0        4.278141   -0.525128   -1.251448
      9          7           0       -1.852457    0.706650   -0.283334
     10          7           0       -2.578083   -1.855883   -0.585590
     11          6           0        4.616769   -1.403148   -0.031806
     12          6           0        4.305275   -0.530893    1.211103
     13          6           0        2.968727   -0.143645    1.361111
     14          6           0        1.962479   -0.742327    2.135609
     15          6           0        0.756601   -0.081248    1.897660
     16          6           0        0.948361    0.976243    1.017185
     17          6           0        6.196560   -1.457584   -0.283154
     18          6           0       -0.562162   -0.374722    2.542920
     19          6           0        6.521289   -0.809618   -1.458624
     20          6           0        0.165645    2.042260    0.422898
     21          6           0       -1.099725    1.836646   -0.141193
     22          6           0        5.382287   -0.348953   -2.146477
     23          6           0       -1.945507    2.896340   -0.757227
     24          6           0        2.173973   -1.846460    3.171963
     25          6           0        7.087377   -2.087873    0.737479
     26          6           0       -3.084139    2.398572   -1.080986
     27          6           0       -1.183041   -1.807460    2.563469
     28          6           0       -3.060546    1.010329   -0.994223
     29          6           0       -1.468157    4.345406   -0.865043
     30          6           0        7.838564   -0.726469   -2.032448
     31          6           0       -1.676187    5.124841    0.380887
     32          6           0       -4.309152    3.106429   -1.881731
     33          6           0       -3.943123   -0.030756   -1.251746
     34          6           0       -2.619181   -1.912013    2.913547
     35          6           0       -3.651410   -1.390691   -1.056598
     36          6           0        9.079050   -0.686180   -1.444768
     37          6           0       -1.246029    6.588069    0.409024
     38          6           0       -4.512156   -2.585210   -1.553445
     39          6           0       -3.922622   -3.669880   -1.091885
     40          6           0       -2.589751   -3.182924   -0.622041
     41          6           0       -5.714689   -2.292767   -2.299133
     42          6           0       -4.368384   -5.060297   -1.161846
     43          6           0       -6.544436   -3.243824   -2.726768
     44          1           0        4.159341   -2.353479   -0.217201
     45          1           0        4.850395    0.434407    1.200747
     46          1           0        4.639284   -1.049844    2.072039
     47          1           0        3.044719    1.619051    0.337878
     48          1           0        3.374409   -0.516072   -1.605064
     49          1           0       -0.569270   -0.039516    3.449369
     50          1           0       -1.469908    0.215042    2.086869
     51          1           0        0.958830    2.867447    0.053968
     52          1           0        3.102433   -2.068906    3.235577
     53          1           0        1.698945   -1.549454    4.126999
     54          1           0        1.747815   -2.848358    2.847950
     55          1           0        6.602723   -2.855322    1.250012
     56          1           0        7.506868   -1.371407    1.419632
     57          1           0        8.041037   -2.373911    0.184738
     58          1           0       -1.028352   -2.401215    1.779565
     59          1           0       -0.661560   -2.484345    3.252933
     60          1           0       -1.539383   -0.140552   -0.229350
     61          1           0       -1.943659    4.825190   -1.867021
     62          1           0       -0.320557    4.439029   -1.032426
     63          1           0        7.638238   -0.769850   -3.084786
     64          1           0       -1.182760    4.727031    1.319530
     65          1           0       -2.736458    5.060471    0.682507
     66          1           0       -3.844569    4.086149   -2.229901
     67          1           0       -5.311914    3.155901   -1.326808
     68          1           0       -4.512267    2.634596   -2.914389
     69          1           0       -4.872117    0.151192   -1.801289
     70          1           0        9.113118   -0.620009   -0.205482
     71          1           0       10.043328   -0.586637   -2.093860
     72          1           0       -4.067414   -3.218698    3.268280
     73          1           0       -6.072148   -1.244552   -2.396124
     74          1           0       -5.449351   -5.127310   -0.804817
     75          1           0       -4.392273   -5.509448   -2.340113
     76          1           0       -3.583964   -5.803570   -0.716771
     77          1           0       -1.010442    8.149903    1.371093
     78          1           0       -7.343611   -3.092715   -3.586451
     79          1           0       -6.543058   -4.503825   -2.619048
 ---------------------------------------------------------------------

 SCF Done:  E(RB3LYP) =  -1947.83561149     A.U. after   17 cycles

 Excitation energies and oscillator strengths:

 Excited State   1:      Singlet-A      2.1110 eV  587.33 nm  f=0.5177  <S**2>=0.000
     155 ->156         0.70704
     155 <-156        -0.12211
 This state for optimization and/or second-order correction.
 Total Energy, E(TD-HF/TD-DFT) =  -1947.75803481
 Copying the excited state density for this state as the 1-particle RhoCI density.

 The electronic state is 1-A.
 Alpha  occ. eigenvalues --  -19.20522 -19.17193 -19.13028 -19.10425 -19.09880
 Alpha  occ. eigenvalues --  -19.09629 -14.37914 -14.35672 -14.33849 -14.28235
 Alpha  occ. eigenvalues --  -10.32969 -10.30257 -10.28039 -10.25852 -10.25723
 Alpha  occ. eigenvalues --  -10.24816 -10.24573 -10.23198 -10.23153 -10.23007
 Alpha  occ. eigenvalues --  -10.22828 -10.22403 -10.22291 -10.22214 -10.22031
 Alpha  occ. eigenvalues --  -10.21623 -10.21567 -10.21378 -10.21052 -10.20761
 Alpha  occ. eigenvalues --  -10.20536 -10.20504 -10.20400 -10.20385 -10.19866
 Alpha  occ. eigenvalues --  -10.19157 -10.19101 -10.18978 -10.18622 -10.18414
 Alpha  occ. eigenvalues --  -10.18257 -10.18076 -10.17809  -1.09827  -1.08073
 Alpha  occ. eigenvalues --   -1.04020  -1.02256  -0.99782  -0.98820  -0.97212
 Alpha  occ. eigenvalues --   -0.96423  -0.94661  -0.92234  -0.83594  -0.82504
 Alpha  occ. eigenvalues --   -0.82099  -0.81128  -0.80997  -0.80365  -0.78363
 Alpha  occ. eigenvalues --   -0.77150  -0.76798  -0.75836  -0.74789  -0.72582
 Alpha  occ. eigenvalues --   -0.72263  -0.70704  -0.69090  -0.68664  -0.68336
 Alpha  occ. eigenvalues --   -0.68011  -0.66270  -0.64274  -0.61251  -0.60759
 Alpha  occ. eigenvalues --   -0.60098  -0.59569  -0.58698  -0.58552  -0.57651
 Alpha  occ. eigenvalues --   -0.56960  -0.55711  -0.54944  -0.53695  -0.52933
 Alpha  occ. eigenvalues --   -0.51936  -0.51683  -0.50682  -0.50356  -0.49472
 Alpha  occ. eigenvalues --   -0.49237  -0.49128  -0.48576  -0.47869  -0.47542
 Alpha  occ. eigenvalues --   -0.47195  -0.46826  -0.46476  -0.46028  -0.45318
 Alpha  occ. eigenvalues --   -0.45193  -0.44902  -0.44829  -0.44138  -0.43848
 Alpha  occ. eigenvalues --   -0.43620  -0.43303  -0.42954  -0.42684  -0.42365
 Alpha  occ. eigenvalues --   -0.42115  -0.42010  -0.41645  -0.41433  -0.41347
 Alpha  occ. eigenvalues --   -0.41147  -0.41075  -0.40863  -0.40533  -0.40215
 Alpha  occ. eigenvalues --   -0.39478  -0.39300  -0.38878  -0.38470  -0.38235
 Alpha  occ. eigenvalues --   -0.37863  -0.37829  -0.37595  -0.37027  -0.36269
 Alpha  occ. eigenvalues --   -0.36036  -0.35552  -0.35180  -0.34849  -0.33828
 Alpha  occ. eigenvalues --   -0.33766  -0.33346  -0.32702  -0.31977  -0.31034
 Alpha  occ. eigenvalues --   -0.30625  -0.29622  -0.29318  -0.28449  -0.27230
 Alpha  occ. eigenvalues --   -0.26909  -0.26412  -0.26001  -0.25357  -0.25188
 Alpha  occ. eigenvalues --   -0.24412  -0.24108  -0.23928  -0.22711  -0.18718
 Alpha virt. eigenvalues --   -0.10689  -0.06287  -0.05835  -0.00935  -0.00727
 Alpha virt. eigenvalues --    0.00199   0.01040   0.01683   0.02566   0.03345
 Alpha virt. eigenvalues --    0.03570   0.04025   0.04196   0.04863   0.05215

 Mulliken charges:
               1
     1  O   -0.179602
     2  O   -0.188995
     3  O   -0.283942
     4  O   -0.200671
     5  O   -0.271969
     6  O   -0.193731
     7  N   -0.129067
     8  N   -0.263364
     9  N   -0.019041
    10  N   -0.129045
    11  C    0.115058
    12  C    0.240165
    13  C   -0.099610
    14  C   -0.160251
    15  C   -0.039010
    16  C    0.028708
    17  C   -0.217776
    18  C    0.111537
    19  C   -0.039429
    20  C   -0.093368
    21  C    0.105617
    22  C    0.143797
    23  C   -0.066381
    24  C    0.207782
    25  C    0.119300
    26  C   -0.106206
    27  C    0.089445
    28  C    0.126194
    29  C    0.063265
    30  C    0.011382
    31  C   -0.006268
    32  C    0.021621
    33  C   -0.075316
    34  C    0.113212
    35  C    0.003266
    36  C   -0.094053
    37  C    0.155004
    38  C    0.071120
    39  C   -0.186763
    40  C    0.092571
    41  C    0.008941
    42  C   -0.019000
    43  C   -0.142856
    44  H    0.033299
    45  H   -0.006081
    46  H   -0.016029
    47  H    0.121676
    48  H    0.101544
    49  H   -0.046275
    50  H    0.036779
    51  H    0.039393
    52  H   -0.086532
    53  H    0.030817
    54  H    0.023363
    55  H    0.009371
    56  H    0.032406
    57  H    0.039310
    58  H   -0.024425
    59  H    0.004625
    60  H    0.063625
    61  H    0.049786
    62  H    0.026550
    63  H    0.007232
    64  H    0.051070
    65  H    0.026581
    66  H    0.016526
    67  H    0.056457
    68  H    0.038772
    69  H   -0.036052
    70  H    0.047523
    71  H    0.060161
    72  H    0.216928
    73  H    0.015688
    74  H    0.047608
    75  H    0.041193
    76  H    0.045816
    77  H    0.218932
    78  H    0.036057
    79  H    0.054032
 Sum of Mulliken charges =  -0.00000

 Dipole moment (field-independent basis, Debye):
    X=              1.2541    Y=              1.1120    Z=              2.8268  Tot=              3.2863
 Quadrupole moment (field-independent basis, Debye-Ang):
   XX=           -219.2149   YY=           -243.4643   ZZ=           -263.3903
   XY=             -8.9088   XZ=             34.3442   YZ=              5.4015

 Normal termination of Gaussian 16 at Thu Sep 26 08:55:15 2019.
