 Gaussian 16, Revision A.03,
 Gaussian 16:  ES64L-G16RevA.03 25-Dec-2016

 --------------------------
 # td=(NStates=1) B3LYP/SVP
 --------------------------

 --
 TD
 --
 Symbolic Z-matrix:
 Charge =  0 Multiplicity = 1

                         Standard orientation:
 ---------------------------------------------------------------------
 Center     Atomic      Atomic             Coordinates (Angstroms)
 Number     Number       Type             X           Y           Z
 ---------------------------------------------------------------------
      1          8           0        5.325919   -0.073863   -3.331015
      2          8           0       -2.911701   -2.964582    3.205261
      3          8           0       -3.398272   -0.841072    2.853728
      4          8           0       -1.823030    7.050264    1.598676
      5          8           0       -0.668799    6.924212   -0.281939
      6          8           0       -1.654598   -3.991476    0.041085
      7          7           0        2.357730    0.950550    0.546780
      8          7           0        4.420918   -0.514912   -1.174268
      9          7           0       -1.878225    0.669132   -0.469849
     10          7           0       -2.481838   -1.900758   -0.608692
     11          6           0        4.852557   -1.171232    0.070930
     12          6           0        4.472063   -0.152028    1.233791
     13          6           0        2.940661    0.053204    1.389713
     14          6           0        2.034183   -0.452737    2.196956
     15          6           0        0.756951    0.129592    1.800830
     16          6           0        0.946407    0.992145    0.724147
     17          6           0        6.332857   -1.210632   -0.188369
     18          6           0       -0.523557   -0.050121    2.481121
     19          6           0        6.668195   -0.784412   -1.412693
     20          6           0        0.110093    1.928650    0.033003
     21          6           0       -1.142629    1.815397   -0.552908
     22          6           0        5.465183   -0.436243   -2.210874
     23          6           0       -1.998689    2.879663   -1.169413
     24          6           0        2.194759   -1.628003    3.240089
     25          6           0        7.184345   -1.776540    0.914592
     26          6           0       -3.221559    2.202104   -1.380478
     27          6           0       -1.094712   -1.572213    2.567126
     28          6           0       -3.112678    0.888521   -1.025772
     29          6           0       -1.655846    4.310053   -0.977217
     30          6           0        7.952535   -0.890706   -2.024824
     31          6           0       -1.980594    4.904887    0.400492
     32          6           0       -4.381629    3.000264   -1.945624
     33          6           0       -3.879636   -0.121283   -1.481394
     34          6           0       -2.572947   -1.738020    2.940299
     35          6           0       -3.622993   -1.565236   -1.176127
     36          6           0        9.155683   -0.780157   -1.443172
     37          6           0       -1.458678    6.409668    0.454899
     38          6           0       -4.485009   -2.657813   -1.408374
     39          6           0       -3.916266   -3.782211   -0.868567
     40          6           0       -2.587112   -3.313256   -0.392959
     41          6           0       -5.857494   -2.467143   -1.971596
     42          6           0       -4.255352   -5.222381   -0.956473
     43          6           0       -6.661048   -3.466089   -2.429202
     44          1           0        4.585653   -2.285502    0.426148
     45          1           0        4.843601    0.790229    0.747714
     46          1           0        4.943339   -0.402678    2.214206
     47          1           0        2.872738    1.366313   -0.098412
     48          1           0        3.459968   -0.517845   -1.419311
     49          1           0       -0.366636    0.235406    3.630251
     50          1           0       -1.364399    0.385506    2.151312
     51          1           0        0.626305    2.927269   -0.132804
     52          1           0        3.136014   -2.001151    3.249671
     53          1           0        2.030270   -1.037728    4.286531
     54          1           0        1.451868   -2.465228    3.149180
     55          1           0        6.685832   -2.450484    1.746725
     56          1           0        7.404979   -1.013313    1.630754
     57          1           0        7.960577   -2.249537    0.340771
     58          1           0       -0.841439   -2.244849    1.704750
     59          1           0       -0.581674   -2.213351    3.303560
     60          1           0       -1.695587   -0.338761   -0.260775
     61          1           0       -2.059989    4.824134   -1.802321
     62          1           0       -0.631799    4.658489   -1.005946
     63          1           0        7.855829   -0.858395   -3.026493
     64          1           0       -1.399488    4.131997    1.036460
     65          1           0       -2.995626    4.835896    0.848147
     66          1           0       -4.290978    4.213240   -2.122897
     67          1           0       -5.242400    2.599908   -1.492047
     68          1           0       -4.561742    2.743206   -3.030464
     69          1           0       -4.763469   -0.171519   -2.113390
     70          1           0        9.146035   -0.678692   -0.375200
     71          1           0       10.273772   -0.737731   -1.736277
     72          1           0       -3.844446   -3.012537    3.331123
     73          1           0       -6.049914   -1.465783   -2.033005
     74          1           0       -5.202182   -5.334787   -0.303821
     75          1           0       -4.299475   -5.444729   -1.917481
     76          1           0       -3.383338   -5.748559   -0.263347
     77          1           0       -1.404696    7.895021    1.490687
     78          1           0       -7.665733   -3.309942   -2.929993
     79          1           0       -6.466275   -4.533591   -2.559884
 ---------------------------------------------------------------------

 SCF Done:  E(RB3LYP) =  -1947.86204409     A.U. after   17 cycles

 Excitation energies and oscillator strengths:

 Excited State   1:      Singlet-A      1.9229 eV  644.77 nm  f=0.3775  <S**2>=0.000
     155 ->156         0.70029
     155 <-156        -0.12632
 This state for optimization and/or second-order correction.
 Total Energy, E(TD-HF/TD-DFT) =  -1947.79137781
 Copying the excited state density for this state as the 1-particle RhoCI density.

 The electronic state is 1-A.
 Alpha  occ. eigenvalues --  -19.18589 -19.17816 -19.14204 -19.12222 -19.11537
 Alpha  occ. eigenvalues --  -19.10513 -14.36215 -14.35312 -14.34538 -14.29263
 Alpha  occ. eigenvalues --  -10.33344 -10.30639 -10.29733 -10.26970 -10.25448
 Alpha  occ. eigenvalues --  -10.24092 -10.23669 -10.23017 -10.22578 -10.22452
 Alpha  occ. eigenvalues --  -10.22389 -10.21948 -10.21818 -10.21576 -10.21515
 Alpha  occ. eigenvalues --  -10.21050 -10.20991 -10.20921 -10.20911 -10.20788
 Alpha  occ. eigenvalues --  -10.20219 -10.20141 -10.20105 -10.19968 -10.19965
 Alpha  occ. eigenvalues --  -10.19945 -10.19710 -10.19413 -10.19344 -10.18996
 Alpha  occ. eigenvalues --  -10.18992 -10.18802 -10.18248  -1.11376  -1.10748
 Alpha  occ. eigenvalues --   -1.04926  -1.01937  -1.01564  -0.98842  -0.98553
 Alpha  occ. eigenvalues --   -0.98092  -0.93308  -0.92997  -0.82886  -0.82649
 Alpha  occ. eigenvalues --   -0.81744  -0.80757  -0.80579  -0.79052  -0.77653
 Alpha  occ. eigenvalues --   -0.77314  -0.76075  -0.75321  -0.74272  -0.72239
 Alpha  occ. eigenvalues --   -0.71630  -0.70716  -0.70325  -0.68897  -0.68601
 Alpha  occ. eigenvalues --   -0.67762  -0.66000  -0.64098  -0.61573  -0.61087
 Alpha  occ. eigenvalues --   -0.60767  -0.60077  -0.59149  -0.58420  -0.57181
 Alpha  occ. eigenvalues --   -0.56526  -0.55998  -0.55053  -0.53825  -0.53006
 Alpha  occ. eigenvalues --   -0.52593  -0.51797  -0.51264  -0.50823  -0.49532
 Alpha  occ. eigenvalues --   -0.49313  -0.48889  -0.48331  -0.47802  -0.47169
 Alpha  occ. eigenvalues --   -0.47070  -0.47013  -0.46536  -0.46495  -0.46042
 Alpha  occ. eigenvalues --   -0.45999  -0.45437  -0.45220  -0.44893  -0.44463
 Alpha  occ. eigenvalues --   -0.44059  -0.43939  -0.43145  -0.42785  -0.42486
 Alpha  occ. eigenvalues --   -0.42221  -0.42136  -0.41751  -0.41693  -0.41141
 Alpha  occ. eigenvalues --   -0.41073  -0.40921  -0.40540  -0.40293  -0.39789
 Alpha  occ. eigenvalues --   -0.39675  -0.38815  -0.38779  -0.38323  -0.37794
 Alpha  occ. eigenvalues --   -0.37473  -0.37298  -0.37186  -0.36850  -0.36570
 Alpha  occ. eigenvalues --   -0.36401  -0.35819  -0.35069  -0.34557  -0.34116
 Alpha  occ. eigenvalues --   -0.33955  -0.33367  -0.33248  -0.32581  -0.32393
 Alpha  occ. eigenvalues --   -0.31178  -0.30832  -0.29762  -0.28928  -0.28355
 Alpha  occ. eigenvalues --   -0.27922  -0.26415  -0.26331  -0.25393  -0.24836
 Alpha  occ. eigenvalues --   -0.24373  -0.23824  -0.23625  -0.22842  -0.18876
 Alpha virt. eigenvalues --   -0.11431  -0.06921  -0.05859  -0.01493  -0.01124
 Alpha virt. eigenvalues --    0.00270   0.01397   0.02176   0.02876   0.03952
 Alpha virt. eigenvalues --    0.04820   0.05339   0.05678   0.05883   0.06187

 Mulliken charges:
               1
     1  O   -0.156836
     2  O   -0.113893
     3  O   -0.257631
     4  O   -0.164443
     5  O   -0.213147
     6  O   -0.202746
     7  N   -0.037248
     8  N   -0.284479
     9  N   -0.073160
    10  N   -0.280370
    11  C    0.080353
    12  C    0.161651
    13  C   -0.095795
    14  C   -0.132648
    15  C   -0.082408
    16  C    0.101127
    17  C   -0.167781
    18  C    0.132937
    19  C   -0.060161
    20  C   -0.112028
    21  C    0.060051
    22  C    0.197632
    23  C   -0.053551
    24  C    0.101119
    25  C    0.086070
    26  C   -0.139951
    27  C   -0.074009
    28  C    0.207679
    29  C    0.101237
    30  C    0.038241
    31  C   -0.047598
    32  C    0.089833
    33  C   -0.092730
    34  C    0.109237
    35  C   -0.011870
    36  C   -0.049576
    37  C    0.150660
    38  C    0.022555
    39  C   -0.233445
    40  C    0.162122
    41  C    0.065833
    42  C    0.092089
    43  C   -0.052732
    44  H    0.050032
    45  H   -0.000831
    46  H    0.013716
    47  H    0.051974
    48  H    0.113400
    49  H    0.021038
    50  H   -0.024984
    51  H    0.008428
    52  H   -0.031814
    53  H    0.030612
    54  H    0.050949
    55  H    0.017817
    56  H    0.027920
    57  H    0.049041
    58  H    0.067320
    59  H    0.007430
    60  H    0.158835
    61  H   -0.006127
    62  H    0.012709
    63  H   -0.038364
    64  H    0.061141
    65  H    0.036812
    66  H    0.052376
    67  H    0.005459
    68  H    0.020757
    69  H   -0.030948
    70  H    0.001520
    71  H    0.049579
    72  H    0.162712
    73  H   -0.045589
    74  H    0.037982
    75  H    0.022233
    76  H    0.058012
    77  H    0.162258
    78  H    0.031254
    79  H    0.025153
 Sum of Mulliken charges =  -0.00000

 Dipole moment (field-independent basis, Debye):
    X=             -0.4452    Y=              0.6642    Z=              2.4182  Tot=              2.5470
 Quadrupole moment (field-independent basis, Debye-Ang):
   XX=           -215.5688   YY=           -243.7709   ZZ=           -259.5639
   XY=             -3.4957   XZ=             32.6614   YZ=              0.6907

 Normal termination of Gaussian 16 at Tue Oct  8 14:25:16 2019.
