 Gaussian 16, Revision A.03,
 Gaussian 16:  ES64L-G16RevA.03 25-Dec-2016

 --------------------------
 # td=(NStates=1) B3LYP/SVP
 --------------------------

 --
 TD
 --
 Symbolic Z-matrix:
 Charge =  0 Multiplicity = 1

                         Standard orientation:
 ---------------------------------------------------------------------
 Center     Atomic      Atomic             Coordinates (Angstroms)
 Number     Number       Type             X           Y           Z
 ---------------------------------------------------------------------
      1          8           0       -3.331797   -1.604182   -2.799647
      2          8           0        2.785383    3.243943    3.061851
      3          8           0        3.762049    1.599202    4.268043
      4          8           0        7.697810   -1.672545   -0.612400
      5          8           0        6.767240   -3.051692   -2.044451
      6          8           0       -2.563539    1.699719    1.443930
      7          7           0       -0.296999   -2.431588    0.995122
      8          7           0       -2.739214   -1.131772   -0.674947
      9          7           0        1.200031    0.192678   -0.646950
     10          7           0       -1.029570    1.386134   -0.250156
     11          6           0       -3.353578   -1.226331    0.653862
     12          6           0       -2.635103   -2.295973    1.644768
     13          6           0       -1.244525   -2.041647    1.839449
     14          6           0       -0.588606   -1.119148    2.843277
     15          6           0        0.798442   -1.051369    2.501434
     16          6           0        0.955843   -1.837358    1.311049
     17          6           0       -4.747544   -1.797369    0.259517
     18          6           0        1.843876   -0.372021    3.210575
     19          6           0       -4.874891   -2.061843   -1.032968
     20          6           0        2.073271   -1.861481    0.409030
     21          6           0        2.060942   -0.925316   -0.639672
     22          6           0       -3.562553   -1.556708   -1.681664
     23          6           0        3.070704   -0.667630   -1.684325
     24          6           0       -1.383450   -0.494693    3.961835
     25          6           0       -5.753461   -2.065475    1.368030
     26          6           0        2.647803    0.347200   -2.427371
     27          6           0        1.821164    1.154420    2.735269
     28          6           0        1.364448    0.896792   -1.750631
     29          6           0        4.252554   -1.650101   -1.972395
     30          6           0       -5.837350   -2.648756   -1.965645
     31          6           0        5.457262   -1.207491   -1.123757
     32          6           0        3.319962    1.158635   -3.648552
     33          6           0        0.556946    2.006205   -2.079306
     34          6           0        2.910358    1.900570    3.390102
     35          6           0       -0.557620    2.228546   -1.332482
     36          6           0       -6.893456   -3.454098   -1.711641
     37          6           0        6.687687   -2.066781   -1.293336
     38          6           0       -1.475795    3.408643   -1.442894
     39          6           0       -2.396461    3.437918   -0.304909
     40          6           0       -1.977268    2.127628    0.391845
     41          6           0       -1.259957    4.565262   -2.334356
     42          6           0       -3.460196    4.432026    0.093685
     43          6           0       -1.784762    5.708814   -2.313739
     44          1           0       -3.505947   -0.225217    1.218082
     45          1           0       -2.750616   -3.243436    1.030509
     46          1           0       -3.276501   -2.240334    2.598297
     47          1           0       -0.488700   -2.965587    0.136413
     48          1           0       -2.037342   -0.199801   -0.792660
     49          1           0        1.749709   -0.285793    4.282594
     50          1           0        2.967116   -0.786035    3.107528
     51          1           0        2.843668   -2.599398    0.420624
     52          1           0       -2.051741   -1.277257    4.314688
     53          1           0       -0.659847    0.026305    4.588716
     54          1           0       -1.923636    0.270234    3.307445
     55          1           0       -5.644612   -1.392171    2.227763
     56          1           0       -5.482750   -2.998389    1.807940
     57          1           0       -6.707533   -2.021318    0.958296
     58          1           0        2.106826    1.043054    1.608240
     59          1           0        0.840051    1.559712    2.660304
     60          1           0        0.270654    0.540870   -0.138190
     61          1           0        4.666511   -1.640556   -2.936527
     62          1           0        3.912038   -2.606030   -1.680378
     63          1           0       -5.597582   -2.351045   -2.977606
     64          1           0        5.389805   -1.190459    0.045662
     65          1           0        5.752692   -0.210762   -1.512215
     66          1           0        4.635328    1.051060   -3.775828
     67          1           0        2.996486    2.375216   -3.509484
     68          1           0        2.649752    0.753154   -4.588162
     69          1           0        0.961948    2.677478   -2.922179
     70          1           0       -7.187258   -3.807253   -0.659488
     71          1           0       -7.692731   -3.735951   -2.509313
     72          1           0        3.501332    3.753952    3.567493
     73          1           0       -0.375165    4.249741   -3.193965
     74          1           0       -4.263470    4.249334   -0.940876
     75          1           0       -3.941876    3.988303    0.915729
     76          1           0       -2.961161    5.511254    0.589008
     77          1           0        8.498838   -2.296843   -0.532189
     78          1           0       -1.711501    6.404680   -3.031693
     79          1           0       -2.567809    5.969141   -1.429161
 ---------------------------------------------------------------------

 SCF Done:  E(RB3LYP) =  -1947.78968105     A.U. after   24 cycles

 Excitation energies and oscillator strengths:

 Excited State   1:      Singlet-A      0.5564 eV 2228.48 nm  f=0.0001  <S**2>=0.000
     155 ->156         0.70335
 This state for optimization and/or second-order correction.
 Total Energy, E(TD-HF/TD-DFT) =  -1947.76923512
 Copying the excited state density for this state as the 1-particle RhoCI density.

 The electronic state is 1-A.
 Alpha  occ. eigenvalues --  -19.20181 -19.17144 -19.12649 -19.12101 -19.11141
 Alpha  occ. eigenvalues --  -19.08191 -14.38293 -14.37497 -14.32599 -14.31905
 Alpha  occ. eigenvalues --  -10.32743 -10.32248 -10.28867 -10.27917 -10.27061
 Alpha  occ. eigenvalues --  -10.26683 -10.26675 -10.25287 -10.24002 -10.23937
 Alpha  occ. eigenvalues --  -10.23479 -10.23390 -10.23234 -10.23038 -10.22824
 Alpha  occ. eigenvalues --  -10.22431 -10.22024 -10.21843 -10.21735 -10.20741
 Alpha  occ. eigenvalues --  -10.20716 -10.20149 -10.20105 -10.19777 -10.19467
 Alpha  occ. eigenvalues --  -10.19114 -10.18973 -10.18455 -10.17749 -10.17613
 Alpha  occ. eigenvalues --  -10.17281 -10.17210 -10.17009  -1.12062  -1.06806
 Alpha  occ. eigenvalues --   -1.04290  -1.01039  -1.00067  -0.99540  -0.97437
 Alpha  occ. eigenvalues --   -0.96297  -0.92072  -0.90328  -0.84483  -0.82369
 Alpha  occ. eigenvalues --   -0.81794  -0.80864  -0.79405  -0.79034  -0.78710
 Alpha  occ. eigenvalues --   -0.76639  -0.76345  -0.75627  -0.73974  -0.72196
 Alpha  occ. eigenvalues --   -0.71174  -0.70290  -0.69093  -0.68749  -0.67120
 Alpha  occ. eigenvalues --   -0.66373  -0.65471  -0.63095  -0.62521  -0.60824
 Alpha  occ. eigenvalues --   -0.59793  -0.58368  -0.58061  -0.57831  -0.56352
 Alpha  occ. eigenvalues --   -0.55279  -0.54710  -0.53791  -0.53020  -0.52393
 Alpha  occ. eigenvalues --   -0.51659  -0.51188  -0.50650  -0.49895  -0.49647
 Alpha  occ. eigenvalues --   -0.49245  -0.48602  -0.48406  -0.47820  -0.47271
 Alpha  occ. eigenvalues --   -0.47013  -0.46681  -0.46326  -0.46096  -0.45471
 Alpha  occ. eigenvalues --   -0.45206  -0.44863  -0.44501  -0.44292  -0.43691
 Alpha  occ. eigenvalues --   -0.43068  -0.42742  -0.42489  -0.42171  -0.41716
 Alpha  occ. eigenvalues --   -0.41602  -0.41386  -0.41109  -0.40898  -0.40731
 Alpha  occ. eigenvalues --   -0.40520  -0.40477  -0.39740  -0.39641  -0.39545
 Alpha  occ. eigenvalues --   -0.39178  -0.38978  -0.38945  -0.38491  -0.38399
 Alpha  occ. eigenvalues --   -0.38190  -0.37719  -0.37285  -0.36931  -0.36557
 Alpha  occ. eigenvalues --   -0.35537  -0.35345  -0.35035  -0.34747  -0.33734
 Alpha  occ. eigenvalues --   -0.33389  -0.32703  -0.32430  -0.32129  -0.31868
 Alpha  occ. eigenvalues --   -0.30951  -0.30345  -0.29763  -0.29206  -0.28189
 Alpha  occ. eigenvalues --   -0.27782  -0.27591  -0.25438  -0.24688  -0.24028
 Alpha  occ. eigenvalues --   -0.23494  -0.23372  -0.22737  -0.22059  -0.17669
 Alpha virt. eigenvalues --   -0.13049  -0.08059  -0.02904  -0.02033  -0.01378
 Alpha virt. eigenvalues --   -0.00686   0.00044   0.01150   0.01617   0.02149
 Alpha virt. eigenvalues --    0.02698   0.02937   0.03789   0.04360   0.04572

 Mulliken charges:
               1
     1  O   -0.148661
     2  O   -0.240121
     3  O   -0.270316
     4  O   -0.155255
     5  O   -0.267415
     6  O   -0.278179
     7  N   -0.037716
     8  N   -0.282106
     9  N   -0.111135
    10  N   -0.371481
    11  C    0.034055
    12  C    0.146332
    13  C   -0.075079
    14  C   -0.194475
    15  C   -0.031151
    16  C    0.007494
    17  C   -0.241238
    18  C    0.035072
    19  C   -0.048987
    20  C   -0.069854
    21  C    0.106555
    22  C    0.089714
    23  C   -0.103263
    24  C    0.113851
    25  C    0.149431
    26  C   -0.067903
    27  C   -0.044543
    28  C    0.039945
    29  C    0.212554
    30  C    0.027698
    31  C   -0.074184
    32  C   -0.086014
    33  C   -0.117418
    34  C    0.193555
    35  C    0.170523
    36  C   -0.087209
    37  C    0.103670
    38  C    0.009004
    39  C   -0.176500
    40  C    0.203052
    41  C   -0.012583
    42  C    0.009223
    43  C   -0.026412
    44  H    0.071130
    45  H   -0.016019
    46  H    0.006214
    47  H    0.120965
    48  H    0.201754
    49  H    0.010016
    50  H    0.024462
    51  H    0.000484
    52  H    0.022453
    53  H   -0.001381
    54  H    0.057901
    55  H    0.001599
    56  H    0.013614
    57  H    0.012418
    58  H    0.052516
    59  H    0.053453
    60  H    0.229812
    61  H    0.004325
    62  H    0.010148
    63  H    0.001765
    64  H    0.062720
    65  H    0.041731
    66  H    0.083254
    67  H    0.070187
    68  H    0.079305
    69  H    0.018857
    70  H    0.025962
    71  H    0.036313
    72  H    0.195426
    73  H    0.015322
    74  H    0.095648
    75  H    0.018261
    76  H    0.092577
    77  H    0.224465
    78  H   -0.010722
    79  H    0.040533
 Sum of Mulliken charges =  -0.00000

 Dipole moment (field-independent basis, Debye):
    X=              4.4032    Y=              3.7925    Z=             -1.3534  Tot=              5.9668
 Quadrupole moment (field-independent basis, Debye-Ang):
   XX=           -233.8797   YY=           -239.9413   ZZ=           -272.3345
   XY=             -2.8297   XZ=            -16.7876   YZ=            -18.0507

 Normal termination of Gaussian 16 at Wed Jul 31 08:35:57 2019.
