 Gaussian 16, Revision A.03,
 Gaussian 16:  ES64L-G16RevA.03 25-Dec-2016

 --------------------------
 # td=(NStates=1) B3LYP/SVP
 --------------------------

 --
 TD
 --
 Symbolic Z-matrix:
 Charge =  0 Multiplicity = 1

                         Standard orientation:
 ---------------------------------------------------------------------
 Center     Atomic      Atomic             Coordinates (Angstroms)
 Number     Number       Type             X           Y           Z
 ---------------------------------------------------------------------
      1          8           0       -3.125642   -1.420176   -2.787037
      2          8           0        2.955729    3.354338    2.765379
      3          8           0        3.788202    1.742686    4.092476
      4          8           0        7.796382   -1.714573   -0.405362
      5          8           0        6.654668   -2.975545   -1.978697
      6          8           0       -2.528873    1.579771    1.391524
      7          7           0       -0.298284   -2.340056    0.999283
      8          7           0       -2.622024   -1.311592   -0.481666
      9          7           0        1.149493    0.063893   -0.676789
     10          7           0       -1.045419    1.347182   -0.272252
     11          6           0       -3.401428   -1.370976    0.711987
     12          6           0       -2.746967   -2.325316    1.694284
     13          6           0       -1.236064   -2.023811    1.895572
     14          6           0       -0.560592   -1.157616    2.921628
     15          6           0        0.838573   -0.989018    2.547812
     16          6           0        0.955342   -1.819883    1.344052
     17          6           0       -4.795190   -1.769238    0.392270
     18          6           0        1.986116   -0.183914    3.056536
     19          6           0       -4.817090   -1.995460   -1.004248
     20          6           0        2.078874   -1.905215    0.406221
     21          6           0        2.081847   -0.877034   -0.545886
     22          6           0       -3.435046   -1.530908   -1.567127
     23          6           0        3.055431   -0.735728   -1.718552
     24          6           0       -1.255334   -0.317028    3.840494
     25          6           0       -5.900948   -1.996883    1.411411
     26          6           0        2.550209    0.327637   -2.455165
     27          6           0        1.842427    1.253450    2.658579
     28          6           0        1.343811    0.847339   -1.854189
     29          6           0        4.266676   -1.591430   -1.954518
     30          6           0       -5.810908   -2.453720   -1.931012
     31          6           0        5.418864   -1.301782   -1.033590
     32          6           0        3.062532    0.967295   -3.813878
     33          6           0        0.455413    1.864627   -2.128589
     34          6           0        2.940325    2.094429    3.322709
     35          6           0       -0.593052    2.128040   -1.315060
     36          6           0       -6.979130   -3.147869   -1.705018
     37          6           0        6.622996   -2.049541   -1.282198
     38          6           0       -1.464599    3.315334   -1.319390
     39          6           0       -2.308110    3.318365   -0.240253
     40          6           0       -1.968866    2.069930    0.433594
     41          6           0       -1.360458    4.343513   -2.380493
     42          6           0       -3.337051    4.229343    0.202788
     43          6           0       -1.801400    5.577371   -2.478810
     44          1           0       -3.546197   -0.406852    1.140438
     45          1           0       -2.792874   -3.347261    1.473391
     46          1           0       -3.138932   -2.233265    2.867581
     47          1           0       -0.302331   -2.861175    0.046049
     48          1           0       -1.883498   -0.831570   -0.718198
     49          1           0        1.800105   -0.138687    4.296864
     50          1           0        2.814346   -0.329272    2.750910
     51          1           0        2.937044   -2.493608    0.728306
     52          1           0       -2.126358   -0.803301    4.398356
     53          1           0       -0.663252   -0.240885    4.412358
     54          1           0       -1.705581    0.625848    3.302338
     55          1           0       -5.936081   -1.319873    2.124787
     56          1           0       -5.813598   -2.942287    1.993116
     57          1           0       -6.945794   -2.112012    0.925111
     58          1           0        1.847612    1.585136    1.676935
     59          1           0        0.784429    1.756715    2.996519
     60          1           0        0.252991    0.179700   -0.106949
     61          1           0        4.557943   -1.684607   -3.015051
     62          1           0        3.885399   -2.645267   -2.088172
     63          1           0       -5.672773   -2.590040   -3.209429
     64          1           0        5.068241   -1.098293   -0.073113
     65          1           0        5.715319   -0.184901   -1.242833
     66          1           0        4.234271    0.697575   -3.990124
     67          1           0        3.041144    2.208899   -3.852009
     68          1           0        2.242444    0.708920   -4.496667
     69          1           0        0.695046    2.506649   -2.880666
     70          1           0       -7.270391   -3.407450   -0.662627
     71          1           0       -7.552064   -3.405817   -2.520457
     72          1           0        4.009334    3.734132    2.919089
     73          1           0       -0.762161    3.949055   -3.067112
     74          1           0       -3.959583    4.594036   -0.673451
     75          1           0       -4.061449    3.705486    0.867357
     76          1           0       -3.074184    5.322870    0.842976
     77          1           0        8.357218   -2.518777   -0.381180
     78          1           0       -1.476671    6.246350   -3.244824
     79          1           0       -2.532423    6.160012   -1.817671
 ---------------------------------------------------------------------

 SCF Done:  E(RB3LYP) =  -1947.66399263     A.U. after   18 cycles

 Excitation energies and oscillator strengths:

 Excited State   1:      Singlet-A      0.8204 eV 1511.19 nm  f=0.0111  <S**2>=0.000
     155 ->156         0.70573
 This state for optimization and/or second-order correction.
 Total Energy, E(TD-HF/TD-DFT) =  -1947.63384200
 Copying the excited state density for this state as the 1-particle RhoCI density.

 The electronic state is 1-A.
 Alpha  occ. eigenvalues --  -19.17626 -19.16565 -19.15671 -19.12663 -19.11521
 Alpha  occ. eigenvalues --  -19.08260 -14.38142 -14.37490 -14.33313 -14.30296
 Alpha  occ. eigenvalues --  -10.33628 -10.31233 -10.27197 -10.27133 -10.27114
 Alpha  occ. eigenvalues --  -10.26054 -10.24905 -10.24298 -10.23901 -10.23579
 Alpha  occ. eigenvalues --  -10.23052 -10.22639 -10.22545 -10.22422 -10.21723
 Alpha  occ. eigenvalues --  -10.21301 -10.21293 -10.21224 -10.20880 -10.20852
 Alpha  occ. eigenvalues --  -10.20576 -10.20525 -10.20349 -10.20228 -10.20212
 Alpha  occ. eigenvalues --  -10.19998 -10.19854 -10.19840 -10.19183 -10.18679
 Alpha  occ. eigenvalues --  -10.18084 -10.17565 -10.14803  -1.10755  -1.07737
 Alpha  occ. eigenvalues --   -1.03528  -0.99634  -0.99556  -0.99364  -0.98790
 Alpha  occ. eigenvalues --   -0.96251  -0.93542  -0.92850  -0.84232  -0.83259
 Alpha  occ. eigenvalues --   -0.81656  -0.81562  -0.81034  -0.79942  -0.78758
 Alpha  occ. eigenvalues --   -0.77483  -0.76936  -0.76395  -0.74207  -0.72888
 Alpha  occ. eigenvalues --   -0.71114  -0.70921  -0.70573  -0.69270  -0.68134
 Alpha  occ. eigenvalues --   -0.66732  -0.66215  -0.63888  -0.61851  -0.60595
 Alpha  occ. eigenvalues --   -0.59742  -0.59174  -0.58492  -0.57669  -0.57073
 Alpha  occ. eigenvalues --   -0.55967  -0.55849  -0.55347  -0.54054  -0.53728
 Alpha  occ. eigenvalues --   -0.53294  -0.52424  -0.51551  -0.50340  -0.49749
 Alpha  occ. eigenvalues --   -0.49370  -0.49150  -0.48945  -0.48589  -0.48132
 Alpha  occ. eigenvalues --   -0.47312  -0.47012  -0.46714  -0.46565  -0.46219
 Alpha  occ. eigenvalues --   -0.46083  -0.45962  -0.44722  -0.44560  -0.44374
 Alpha  occ. eigenvalues --   -0.43833  -0.43432  -0.43162  -0.43072  -0.42660
 Alpha  occ. eigenvalues --   -0.42486  -0.42398  -0.42087  -0.41677  -0.41210
 Alpha  occ. eigenvalues --   -0.40892  -0.40683  -0.40390  -0.40188  -0.39601
 Alpha  occ. eigenvalues --   -0.39229  -0.38875  -0.38582  -0.38502  -0.38270
 Alpha  occ. eigenvalues --   -0.37456  -0.37250  -0.37036  -0.36899  -0.36631
 Alpha  occ. eigenvalues --   -0.35948  -0.35475  -0.34961  -0.34837  -0.34067
 Alpha  occ. eigenvalues --   -0.33352  -0.32874  -0.32383  -0.31938  -0.31710
 Alpha  occ. eigenvalues --   -0.31555  -0.30427  -0.30358  -0.29263  -0.28373
 Alpha  occ. eigenvalues --   -0.27929  -0.27535  -0.25825  -0.25118  -0.23969
 Alpha  occ. eigenvalues --   -0.23556  -0.22673  -0.22481  -0.21870  -0.18482
 Alpha virt. eigenvalues --   -0.13194  -0.07739  -0.04996  -0.02318  -0.01285
 Alpha virt. eigenvalues --   -0.00482   0.01640   0.01921   0.02252   0.02574
 Alpha virt. eigenvalues --    0.03432   0.03843   0.04179   0.04396   0.04536

 Mulliken charges:
               1
     1  O   -0.285379
     2  O   -0.288789
     3  O   -0.209984
     4  O   -0.309187
     5  O   -0.144515
     6  O   -0.200880
     7  N   -0.073708
     8  N   -0.106269
     9  N   -0.120834
    10  N   -0.320115
    11  C    0.185656
    12  C    0.176147
    13  C   -0.102525
    14  C   -0.185178
    15  C   -0.084311
    16  C   -0.093590
    17  C   -0.161440
    18  C    0.295365
    19  C   -0.037659
    20  C   -0.096610
    21  C    0.090042
    22  C    0.121718
    23  C   -0.119009
    24  C    0.267290
    25  C    0.132804
    26  C   -0.088927
    27  C   -0.066482
    28  C    0.135816
    29  C    0.090553
    30  C   -0.101947
    31  C    0.048907
    32  C   -0.004442
    33  C   -0.069102
    34  C    0.138810
    35  C    0.172906
    36  C   -0.024448
    37  C    0.179779
    38  C    0.023413
    39  C   -0.136657
    40  C    0.142382
    41  C    0.085627
    42  C   -0.012159
    43  C   -0.034546
    44  H    0.028242
    45  H   -0.029558
    46  H    0.022723
    47  H    0.151304
    48  H    0.068156
    49  H    0.049331
    50  H   -0.132107
    51  H    0.025822
    52  H   -0.020007
    53  H   -0.168004
    54  H    0.078335
    55  H   -0.022997
    56  H    0.028357
    57  H    0.036964
    58  H    0.005446
    59  H    0.061841
    60  H    0.217270
    61  H   -0.000731
    62  H    0.028418
    63  H    0.053374
    64  H    0.021560
    65  H    0.046739
    66  H    0.066932
    67  H    0.050401
    68  H    0.054179
    69  H   -0.071996
    70  H    0.009143
    71  H    0.004716
    72  H    0.236043
    73  H   -0.072659
    74  H    0.036187
    75  H    0.031522
    76  H    0.059199
    77  H    0.187336
    78  H    0.016115
    79  H    0.033879
 Sum of Mulliken charges =  -0.00000

 Dipole moment (field-independent basis, Debye):
    X=              2.3201    Y=              2.0337    Z=             -1.4996  Tot=              3.4304
 Quadrupole moment (field-independent basis, Debye-Ang):
   XX=           -243.1568   YY=           -234.6385   ZZ=           -269.0908
   XY=              1.1471   XZ=            -23.6695   YZ=            -16.2598

 Normal termination of Gaussian 16 at Tue Jul 30 08:53:28 2019.
