 Gaussian 16, Revision A.03,
 Gaussian 16:  ES64L-G16RevA.03 25-Dec-2016

 --------------------------
 # td=(NStates=1) B3LYP/SVP
 --------------------------

 --
 TD
 --
 Symbolic Z-matrix:
 Charge =  0 Multiplicity = 1

                         Standard orientation:
 ---------------------------------------------------------------------
 Center     Atomic      Atomic             Coordinates (Angstroms)
 Number     Number       Type             X           Y           Z
 ---------------------------------------------------------------------
      1          8           0        5.210705   -0.232558   -3.233704
      2          8           0       -3.115293   -2.673248    3.271713
      3          8           0       -3.507322   -0.420129    3.155759
      4          8           0       -1.235020    7.159010    1.384319
      5          8           0       -0.293209    6.878880   -0.658590
      6          8           0       -1.803366   -3.961990    0.172194
      7          7           0        2.247050    0.938092    0.587027
      8          7           0        4.206427   -0.610788   -1.254796
      9          7           0       -1.839407    0.709568   -0.329992
     10          7           0       -2.584106   -1.863993   -0.456857
     11          6           0        4.698138   -1.201015    0.126290
     12          6           0        4.346364   -0.319490    1.272973
     13          6           0        2.897339   -0.007880    1.348464
     14          6           0        1.971664   -0.604829    2.216857
     15          6           0        0.668363    0.029145    1.963428
     16          6           0        0.946674    0.978206    0.939143
     17          6           0        6.227610   -1.440720   -0.195483
     18          6           0       -0.630169   -0.046220    2.692677
     19          6           0        6.529248   -1.016289   -1.358323
     20          6           0        0.119724    2.026364    0.242213
     21          6           0       -1.162126    1.934427   -0.282496
     22          6           0        5.313153   -0.536177   -2.065903
     23          6           0       -1.892761    2.945333   -0.989946
     24          6           0        2.084473   -1.821213    3.145736
     25          6           0        7.045279   -2.200916    0.857270
     26          6           0       -2.988748    2.288173   -1.513582
     27          6           0       -1.254438   -1.369359    2.710912
     28          6           0       -2.983503    0.928572   -1.045298
     29          6           0       -1.450377    4.367946   -0.965701
     30          6           0        7.900295   -0.970438   -2.085305
     31          6           0       -1.521507    5.080423    0.320569
     32          6           0       -4.226255    2.980999   -2.126144
     33          6           0       -3.865454   -0.092630   -1.420359
     34          6           0       -2.706736   -1.351823    3.025456
     35          6           0       -3.747786   -1.453079   -1.055597
     36          6           0        9.096613   -0.997551   -1.537536
     37          6           0       -0.991305    6.500835    0.230096
     38          6           0       -4.547875   -2.587912   -1.504501
     39          6           0       -3.951488   -3.798869   -0.978604
     40          6           0       -2.595690   -3.281970   -0.480243
     41          6           0       -5.880523   -2.515926   -2.191354
     42          6           0       -4.357096   -5.259326   -1.123939
     43          6           0       -6.616311   -3.445256   -2.589972
     44          1           0        4.117653   -2.379023    0.097822
     45          1           0        5.064071    0.632054    1.116676
     46          1           0        4.749802   -0.705456    2.187070
     47          1           0        2.635119    1.386848   -0.240102
     48          1           0        3.187482   -0.727892   -1.489122
     49          1           0       -0.243241    0.284372    3.686772
     50          1           0       -1.459170    0.779610    2.558897
     51          1           0        0.746585    3.059287    0.021912
     52          1           0        3.163313   -2.006668    3.247250
     53          1           0        1.993063   -1.699452    4.255260
     54          1           0        1.717666   -2.657423    2.643794
     55          1           0        6.654994   -3.079658    1.363124
     56          1           0        7.330499   -1.614305    1.751323
     57          1           0        8.009582   -2.739662    0.302120
     58          1           0       -1.131178   -1.666078    1.714768
     59          1           0       -0.648290   -2.027102    3.269797
     60          1           0       -1.507035   -0.116822   -0.107672
     61          1           0       -2.063329    5.157761   -1.600903
     62          1           0       -0.465889    4.300287   -1.389933
     63          1           0        7.792453   -0.804621   -3.227243
     64          1           0       -0.724683    4.763745    1.093333
     65          1           0       -2.467230    5.016930    0.635065
     66          1           0       -4.078498    4.094200   -2.393689
     67          1           0       -5.174854    3.044783   -1.638734
     68          1           0       -4.637270    2.202313   -2.955563
     69          1           0       -4.736253    0.080886   -2.152014
     70          1           0        9.293225   -1.372694   -0.413443
     71          1           0       10.008411   -0.845718   -2.231332
     72          1           0       -3.979456   -2.605755    3.408876
     73          1           0       -6.034193   -1.478563   -2.125947
     74          1           0       -5.188035   -5.437392   -0.606460
     75          1           0       -4.637120   -5.587287   -2.095127
     76          1           0       -3.567484   -5.938205   -0.665320
     77          1           0       -0.888587    7.944565    1.231151
     78          1           0       -7.645536   -3.337626   -2.835678
     79          1           0       -6.297016   -4.579327   -2.458725
 ---------------------------------------------------------------------

 SCF Done:  E(RB3LYP) =  -1947.81575960     A.U. after   19 cycles

 Excitation energies and oscillator strengths:

 Excited State   1:      Singlet-A      1.9422 eV  638.37 nm  f=0.2106  <S**2>=0.000
     152 ->156         0.15637
     154 ->156         0.27509
     155 ->156         0.62756
     155 <-156        -0.10374
 This state for optimization and/or second-order correction.
 Total Energy, E(TD-HF/TD-DFT) =  -1947.74438506
 Copying the excited state density for this state as the 1-particle RhoCI density.

 The electronic state is 1-A.
 Alpha  occ. eigenvalues --  -19.19080 -19.15334 -19.14277 -19.12430 -19.10194
 Alpha  occ. eigenvalues --  -19.09411 -14.38612 -14.36684 -14.35356 -14.28609
 Alpha  occ. eigenvalues --  -10.33093 -10.31430 -10.28388 -10.26778 -10.26251
 Alpha  occ. eigenvalues --  -10.25379 -10.24738 -10.23531 -10.23329 -10.23296
 Alpha  occ. eigenvalues --  -10.23129 -10.22605 -10.22340 -10.22216 -10.22011
 Alpha  occ. eigenvalues --  -10.21967 -10.21741 -10.21588 -10.21106 -10.20991
 Alpha  occ. eigenvalues --  -10.20779 -10.20752 -10.20673 -10.20444 -10.20050
 Alpha  occ. eigenvalues --  -10.19969 -10.19612 -10.19575 -10.19126 -10.18996
 Alpha  occ. eigenvalues --  -10.18798 -10.18342 -10.17655  -1.13081  -1.07745
 Alpha  occ. eigenvalues --   -1.03962  -1.02500  -1.00282  -0.99558  -0.99059
 Alpha  occ. eigenvalues --   -0.99013  -0.91866  -0.90337  -0.84485  -0.82296
 Alpha  occ. eigenvalues --   -0.81993  -0.81405  -0.80420  -0.80335  -0.79267
 Alpha  occ. eigenvalues --   -0.77533  -0.76171  -0.75622  -0.74569  -0.72811
 Alpha  occ. eigenvalues --   -0.71697  -0.71550  -0.70350  -0.70065  -0.69144
 Alpha  occ. eigenvalues --   -0.67353  -0.65611  -0.63275  -0.62339  -0.60359
 Alpha  occ. eigenvalues --   -0.59901  -0.59289  -0.58874  -0.58322  -0.57471
 Alpha  occ. eigenvalues --   -0.56918  -0.56283  -0.55123  -0.53888  -0.53083
 Alpha  occ. eigenvalues --   -0.52433  -0.51997  -0.51338  -0.50571  -0.50269
 Alpha  occ. eigenvalues --   -0.50057  -0.49354  -0.48971  -0.47832  -0.47453
 Alpha  occ. eigenvalues --   -0.47054  -0.46538  -0.46522  -0.46134  -0.45881
 Alpha  occ. eigenvalues --   -0.45386  -0.45067  -0.44785  -0.44585  -0.44144
 Alpha  occ. eigenvalues --   -0.43711  -0.43579  -0.42957  -0.42881  -0.42393
 Alpha  occ. eigenvalues --   -0.42112  -0.41608  -0.41532  -0.41308  -0.41208
 Alpha  occ. eigenvalues --   -0.41077  -0.40999  -0.40458  -0.40247  -0.39970
 Alpha  occ. eigenvalues --   -0.39696  -0.39436  -0.39078  -0.38984  -0.38597
 Alpha  occ. eigenvalues --   -0.38113  -0.37634  -0.37517  -0.37358  -0.36867
 Alpha  occ. eigenvalues --   -0.36433  -0.35515  -0.35178  -0.34466  -0.34387
 Alpha  occ. eigenvalues --   -0.34302  -0.33057  -0.32546  -0.31724  -0.31637
 Alpha  occ. eigenvalues --   -0.31409  -0.30919  -0.29662  -0.28660  -0.27589
 Alpha  occ. eigenvalues --   -0.27112  -0.26748  -0.26073  -0.25965  -0.25264
 Alpha  occ. eigenvalues --   -0.24646  -0.23747  -0.23469  -0.21765  -0.19311
 Alpha virt. eigenvalues --   -0.11379  -0.06784  -0.04822  -0.00570  -0.00105
 Alpha virt. eigenvalues --    0.00298   0.00879   0.00941   0.02543   0.03045
 Alpha virt. eigenvalues --    0.03442   0.04125   0.04185   0.04919   0.05102

 Mulliken charges:
               1
     1  O   -0.214251
     2  O   -0.154507
     3  O   -0.242374
     4  O   -0.107647
     5  O   -0.201254
     6  O   -0.215064
     7  N   -0.038655
     8  N   -0.250687
     9  N    0.015455
    10  N   -0.314126
    11  C   -0.045447
    12  C    0.203751
    13  C   -0.059536
    14  C   -0.174288
    15  C   -0.091623
    16  C    0.003782
    17  C   -0.132850
    18  C    0.014131
    19  C   -0.025555
    20  C   -0.144909
    21  C    0.088613
    22  C    0.148205
    23  C   -0.028899
    24  C    0.141375
    25  C    0.010907
    26  C   -0.107717
    27  C    0.091101
    28  C    0.147721
    29  C    0.081386
    30  C   -0.000783
    31  C    0.049391
    32  C    0.015152
    33  C   -0.121844
    34  C    0.150951
    35  C    0.084269
    36  C   -0.080065
    37  C    0.087986
    38  C   -0.072960
    39  C   -0.191409
    40  C    0.159696
    41  C    0.100909
    42  C    0.152285
    43  C   -0.032486
    44  H    0.053073
    45  H    0.017798
    46  H   -0.003053
    47  H    0.121030
    48  H    0.157392
    49  H    0.006754
    50  H    0.044309
    51  H    0.038377
    52  H   -0.039154
    53  H    0.028440
    54  H    0.042160
    55  H    0.019855
    56  H    0.036689
    57  H    0.054287
    58  H    0.040956
    59  H    0.019272
    60  H    0.071180
    61  H    0.027944
    62  H    0.018050
    63  H    0.042056
    64  H    0.052638
    65  H   -0.000825
    66  H    0.036148
    67  H    0.023218
    68  H    0.034803
    69  H    0.003250
    70  H    0.047040
    71  H    0.046572
    72  H    0.116030
    73  H   -0.049186
    74  H   -0.017697
    75  H    0.028626
    76  H    0.033075
    77  H    0.116337
    78  H    0.012239
    79  H    0.022187
 Sum of Mulliken charges =  -0.00000

 Dipole moment (field-independent basis, Debye):
    X=              0.5713    Y=              2.3287    Z=              2.8116  Tot=              3.6951
 Quadrupole moment (field-independent basis, Debye-Ang):
   XX=           -220.7715   YY=           -239.0285   ZZ=           -266.6982
   XY=            -12.2968   XZ=             35.0274   YZ=              3.5242

 Normal termination of Gaussian 16 at Sun Sep 15 03:45:07 2019.
