 Gaussian 16, Revision A.03,
 Gaussian 16:  ES64L-G16RevA.03 25-Dec-2016

 --------------------------
 # td=(NStates=1) B3LYP/SVP
 --------------------------

 --
 TD
 --
 Symbolic Z-matrix:
 Charge =  0 Multiplicity = 1

                         Standard orientation:
 ---------------------------------------------------------------------
 Center     Atomic      Atomic             Coordinates (Angstroms)
 Number     Number       Type             X           Y           Z
 ---------------------------------------------------------------------
      1          8           0        5.088424   -0.099470   -3.290184
      2          8           0       -2.948734   -3.023293    2.964660
      3          8           0       -3.219617   -0.785081    3.166667
      4          8           0       -1.644480    7.259778    1.322382
      5          8           0       -0.964457    6.982589   -0.826805
      6          8           0       -1.605075   -4.000385    0.111694
      7          7           0        2.339659    0.987983    0.518321
      8          7           0        4.274147   -0.773421   -1.230352
      9          7           0       -1.920365    0.619372   -0.221730
     10          7           0       -2.498009   -1.960073   -0.670867
     11          6           0        4.848154   -1.202896    0.029628
     12          6           0        4.446657   -0.202375    1.213757
     13          6           0        3.007109    0.050075    1.409105
     14          6           0        2.028752   -0.503021    2.232065
     15          6           0        0.754013    0.042386    1.841964
     16          6           0        1.056849    0.941552    0.828827
     17          6           0        6.345651   -1.347568   -0.198357
     18          6           0       -0.513775   -0.185761    2.598298
     19          6           0        6.599706   -0.878942   -1.507142
     20          6           0        0.156636    1.995712    0.253031
     21          6           0       -1.176824    1.837663   -0.223091
     22          6           0        5.247219   -0.548312   -2.135005
     23          6           0       -2.040519    2.938623   -0.814171
     24          6           0        2.313908   -1.511655    3.272846
     25          6           0        7.187095   -1.770906    0.889885
     26          6           0       -3.236599    2.246327   -1.134494
     27          6           0       -1.062958   -1.660427    2.563083
     28          6           0       -3.125190    0.917492   -0.812870
     29          6           0       -1.626408    4.370118   -0.820882
     30          6           0        7.865154   -0.569076   -2.115168
     31          6           0       -1.829138    5.101750    0.514128
     32          6           0       -4.381375    2.754356   -1.901632
     33          6           0       -3.961601   -0.176282   -1.283920
     34          6           0       -2.431838   -1.739248    2.877955
     35          6           0       -3.673109   -1.560661   -1.156571
     36          6           0        9.142581   -0.681990   -1.633382
     37          6           0       -1.440534    6.548432    0.218982
     38          6           0       -4.500207   -2.668931   -1.465568
     39          6           0       -3.813991   -3.819443   -1.007514
     40          6           0       -2.550067   -3.288072   -0.419158
     41          6           0       -5.864081   -2.534766   -2.014401
     42          6           0       -4.111589   -5.254803   -1.060381
     43          6           0       -6.647957   -3.531914   -2.569300
     44          1           0        4.181655   -2.114193    0.138448
     45          1           0        4.999914    0.774673    0.985987
     46          1           0        4.820703   -0.649366    2.183530
     47          1           0        2.936260    1.654523   -0.217079
     48          1           0        3.271977   -0.698961   -1.469765
     49          1           0       -0.502094    0.179336    3.669667
     50          1           0       -1.354625    0.356876    2.124988
     51          1           0        0.591231    2.960044    0.075775
     52          1           0        3.411295   -1.607255    3.380780
     53          1           0        1.814090   -1.123439    4.123798
     54          1           0        1.926472   -2.590475    3.189263
     55          1           0        6.538426   -2.083260    1.947871
     56          1           0        7.928441   -0.934428    1.097622
     57          1           0        7.946989   -2.623129    0.617177
     58          1           0       -0.973259   -2.160848    1.465111
     59          1           0       -0.566776   -2.117823    3.271896
     60          1           0       -1.664911   -0.359817   -0.153523
     61          1           0       -2.339427    4.965943   -1.499766
     62          1           0       -0.602128    4.521347   -1.362950
     63          1           0        7.857562   -0.252578   -3.097081
     64          1           0       -0.962085    4.714489    1.309777
     65          1           0       -2.876630    5.065808    1.013699
     66          1           0       -4.349971    3.875351   -1.955330
     67          1           0       -5.335647    2.523583   -1.462008
     68          1           0       -4.304204    2.245530   -2.959076
     69          1           0       -4.723968    0.261908   -2.115703
     70          1           0        9.452610   -0.868344   -0.394456
     71          1           0       10.124834   -0.499655   -2.355555
     72          1           0       -3.843261   -2.794460    3.327460
     73          1           0       -6.366691   -1.525866   -2.094442
     74          1           0       -5.235823   -5.577658   -0.723387
     75          1           0       -3.952250   -5.735816   -2.134473
     76          1           0       -3.341399   -5.502044   -0.291402
     77          1           0       -1.659737    8.251815    0.949000
     78          1           0       -7.649549   -3.370483   -3.168566
     79          1           0       -6.284868   -4.596101   -2.595471
 ---------------------------------------------------------------------

 SCF Done:  E(RB3LYP) =  -1947.86410093     A.U. after   19 cycles

 Excitation energies and oscillator strengths:

 Excited State   1:      Singlet-A      1.8646 eV  664.94 nm  f=0.1625  <S**2>=0.000
     154 ->156         0.46650
     155 ->156         0.51813
 This state for optimization and/or second-order correction.
 Total Energy, E(TD-HF/TD-DFT) =  -1947.79557831
 Copying the excited state density for this state as the 1-particle RhoCI density.

 The electronic state is 1-A.
 Alpha  occ. eigenvalues --  -19.20723 -19.16358 -19.14460 -19.10952 -19.10006
 Alpha  occ. eigenvalues --  -19.08715 -14.39606 -14.36874 -14.35859 -14.28522
 Alpha  occ. eigenvalues --  -10.33641 -10.30525 -10.28241 -10.25994 -10.25908
 Alpha  occ. eigenvalues --  -10.25582 -10.24902 -10.24309 -10.23909 -10.23535
 Alpha  occ. eigenvalues --  -10.23339 -10.23244 -10.23182 -10.23151 -10.23113
 Alpha  occ. eigenvalues --  -10.23046 -10.22960 -10.22910 -10.21469 -10.21385
 Alpha  occ. eigenvalues --  -10.21088 -10.20740 -10.20722 -10.20287 -10.20281
 Alpha  occ. eigenvalues --  -10.19893 -10.19810 -10.19779 -10.19700 -10.19698
 Alpha  occ. eigenvalues --  -10.19566 -10.19475 -10.18558  -1.11156  -1.06497
 Alpha  occ. eigenvalues --   -1.01649  -1.00821  -0.98528  -0.98329  -0.97655
 Alpha  occ. eigenvalues --   -0.96081  -0.93761  -0.92105  -0.83360  -0.82553
 Alpha  occ. eigenvalues --   -0.81787  -0.81511  -0.80077  -0.79190  -0.78137
 Alpha  occ. eigenvalues --   -0.77912  -0.76653  -0.75404  -0.73797  -0.72615
 Alpha  occ. eigenvalues --   -0.71849  -0.71174  -0.69555  -0.69060  -0.68685
 Alpha  occ. eigenvalues --   -0.67302  -0.65762  -0.63556  -0.61061  -0.60058
 Alpha  occ. eigenvalues --   -0.59606  -0.57991  -0.57597  -0.57221  -0.56447
 Alpha  occ. eigenvalues --   -0.56078  -0.54998  -0.54947  -0.54141  -0.53126
 Alpha  occ. eigenvalues --   -0.52121  -0.51510  -0.50879  -0.50596  -0.50066
 Alpha  occ. eigenvalues --   -0.49877  -0.49541  -0.48604  -0.47881  -0.47554
 Alpha  occ. eigenvalues --   -0.47317  -0.46659  -0.46536  -0.46351  -0.45720
 Alpha  occ. eigenvalues --   -0.45592  -0.44665  -0.43904  -0.43746  -0.43513
 Alpha  occ. eigenvalues --   -0.43102  -0.42902  -0.42655  -0.42321  -0.42188
 Alpha  occ. eigenvalues --   -0.42041  -0.41805  -0.41701  -0.41416  -0.41024
 Alpha  occ. eigenvalues --   -0.40572  -0.40270  -0.40019  -0.39846  -0.39559
 Alpha  occ. eigenvalues --   -0.39153  -0.38846  -0.38775  -0.38579  -0.38290
 Alpha  occ. eigenvalues --   -0.38090  -0.37968  -0.37576  -0.37416  -0.37148
 Alpha  occ. eigenvalues --   -0.36619  -0.36159  -0.35082  -0.34865  -0.33963
 Alpha  occ. eigenvalues --   -0.33681  -0.33291  -0.33057  -0.32449  -0.31859
 Alpha  occ. eigenvalues --   -0.30458  -0.29889  -0.29666  -0.27973  -0.27039
 Alpha  occ. eigenvalues --   -0.26311  -0.26266  -0.25952  -0.24931  -0.24528
 Alpha  occ. eigenvalues --   -0.24092  -0.23762  -0.23066  -0.21445  -0.19757
 Alpha virt. eigenvalues --   -0.12053  -0.07456  -0.06934  -0.02191  -0.00994
 Alpha virt. eigenvalues --   -0.00116   0.00321   0.00684   0.01282   0.01580
 Alpha virt. eigenvalues --    0.01756   0.02906   0.03129   0.04182   0.04617

 Mulliken charges:
               1
     1  O   -0.267541
     2  O   -0.208723
     3  O   -0.305089
     4  O   -0.198278
     5  O   -0.243445
     6  O   -0.292388
     7  N   -0.160232
     8  N   -0.193170
     9  N   -0.082262
    10  N   -0.260412
    11  C    0.083597
    12  C    0.142954
    13  C   -0.077863
    14  C   -0.116162
    15  C   -0.057476
    16  C    0.059048
    17  C   -0.089918
    18  C    0.044806
    19  C   -0.018054
    20  C   -0.064488
    21  C    0.080771
    22  C    0.135203
    23  C   -0.026948
    24  C    0.094359
    25  C   -0.028418
    26  C   -0.162373
    27  C    0.065471
    28  C    0.100051
    29  C    0.023534
    30  C    0.033343
    31  C   -0.074543
    32  C    0.087867
    33  C   -0.148951
    34  C    0.129848
    35  C    0.101970
    36  C   -0.149263
    37  C    0.147708
    38  C    0.080221
    39  C   -0.164320
    40  C    0.174374
    41  C   -0.048938
    42  C   -0.020666
    43  C   -0.086603
    44  H    0.024371
    45  H    0.003361
    46  H    0.009300
    47  H    0.192530
    48  H    0.145845
    49  H    0.023627
    50  H    0.013141
    51  H   -0.018567
    52  H   -0.004012
    53  H    0.011171
    54  H    0.051326
    55  H    0.058394
    56  H    0.053815
    57  H    0.063612
    58  H    0.121710
    59  H   -0.023065
    60  H    0.137856
    61  H    0.025154
    62  H    0.063712
    63  H   -0.013872
    64  H    0.075497
    65  H    0.076999
    66  H    0.015765
    67  H    0.023509
    68  H    0.059032
    69  H    0.025862
    70  H    0.041874
    71  H    0.063860
    72  H    0.180601
    73  H    0.007813
    74  H    0.045603
    75  H    0.061077
    76  H    0.053321
    77  H    0.220054
    78  H    0.046345
    79  H    0.024780
 Sum of Mulliken charges =  -0.00000

 Dipole moment (field-independent basis, Debye):
    X=              0.8244    Y=              5.3383    Z=              3.3059  Tot=              6.3329
 Quadrupole moment (field-independent basis, Debye-Ang):
   XX=           -222.6823   YY=           -241.9847   ZZ=           -267.7408
   XY=            -16.8820   XZ=             34.2715   YZ=              3.3848

 Normal termination of Gaussian 16 at Tue Oct  8 10:04:39 2019.
