 Gaussian 16, Revision A.03,
 Gaussian 16:  ES64L-G16RevA.03 25-Dec-2016

 --------------------------
 # td=(NStates=1) B3LYP/SVP
 --------------------------

 --
 TD
 --
 Symbolic Z-matrix:
 Charge =  0 Multiplicity = 1

                         Standard orientation:
 ---------------------------------------------------------------------
 Center     Atomic      Atomic             Coordinates (Angstroms)
 Number     Number       Type             X           Y           Z
 ---------------------------------------------------------------------
      1          8           0        5.211618   -0.261645   -3.319948
      2          8           0       -3.147170   -2.755158    3.331099
      3          8           0       -3.404657   -0.542324    2.878893
      4          8           0       -1.060514    7.073413    1.577837
      5          8           0       -0.060578    6.923025   -0.464412
      6          8           0       -1.947421   -3.947329   -0.017177
      7          7           0        2.335404    0.810235    0.483306
      8          7           0        4.258998   -0.865975   -1.253092
      9          7           0       -1.886143    0.737477   -0.338985
     10          7           0       -2.696393   -1.736972   -0.569839
     11          6           0        4.809184   -1.450473    0.028678
     12          6           0        4.336865   -0.542594    1.227759
     13          6           0        2.887160   -0.143251    1.315805
     14          6           0        1.873336   -0.758169    2.124933
     15          6           0        0.682670   -0.015877    1.795001
     16          6           0        1.028629    0.909960    0.713189
     17          6           0        6.277114   -1.524802   -0.123798
     18          6           0       -0.607175   -0.107428    2.538492
     19          6           0        6.641829   -1.084910   -1.415397
     20          6           0        0.230823    1.949505    0.118648
     21          6           0       -1.086395    1.840113   -0.371592
     22          6           0        5.397556   -0.722500   -2.107897
     23          6           0       -1.815717    2.946168   -0.898472
     24          6           0        2.075173   -1.785070    3.150485
     25          6           0        7.150364   -2.006893    1.034926
     26          6           0       -3.028219    2.426475   -1.335530
     27          6           0       -1.255263   -1.558305    2.590109
     28          6           0       -3.099161    1.046154   -0.969477
     29          6           0       -1.321092    4.299198   -0.983164
     30          6           0        7.905297   -0.969267   -2.064329
     31          6           0       -1.460771    5.182420    0.318093
     32          6           0       -4.188609    3.298019   -1.822574
     33          6           0       -4.060336    0.024231   -1.212330
     34          6           0       -2.720314   -1.553793    2.993101
     35          6           0       -3.848367   -1.428343   -0.958916
     36          6           0        9.165668   -0.930644   -1.452058
     37          6           0       -0.772826    6.490129    0.357446
     38          6           0       -4.764469   -2.576743   -1.457285
     39          6           0       -4.062536   -3.640403   -1.089162
     40          6           0       -2.758543   -3.152560   -0.499081
     41          6           0       -6.004645   -2.230833   -2.124745
     42          6           0       -4.494526   -5.033631   -0.960144
     43          6           0       -6.853806   -3.176618   -2.589579
     44          1           0        4.300735   -2.429437    0.270209
     45          1           0        4.956952    0.281253    1.394908
     46          1           0        4.682678   -1.087337    2.108262
     47          1           0        2.699646    1.443940   -0.328792
     48          1           0        3.288166   -1.157598   -1.532159
     49          1           0       -0.454029    0.129239    3.726324
     50          1           0       -1.384807    0.586771    2.183987
     51          1           0        0.813292    2.916631   -0.211814
     52          1           0        3.126709   -2.020698    3.331856
     53          1           0        1.547561   -1.622586    4.067082
     54          1           0        1.626665   -2.617392    2.669276
     55          1           0        6.770739   -2.927092    1.339024
     56          1           0        7.277177   -1.177313    1.760872
     57          1           0        8.027045   -2.572676    0.517475
     58          1           0       -1.049292   -1.924039    1.495240
     59          1           0       -0.576038   -2.216001    3.274915
     60          1           0       -1.636817   -0.285621   -0.240887
     61          1           0       -1.840141    4.845959   -1.892174
     62          1           0       -0.069975    4.595459   -1.194267
     63          1           0        7.817212   -1.110016   -3.276966
     64          1           0       -0.995017    4.575631    1.067645
     65          1           0       -2.683507    5.287254    0.713547
     66          1           0       -3.792347    4.362359   -2.219877
     67          1           0       -4.950970    3.223142   -1.047116
     68          1           0       -4.658190    2.783817   -2.791878
     69          1           0       -5.042037    0.476155   -1.866238
     70          1           0        9.220972   -0.785567   -0.259652
     71          1           0       10.156804   -0.537077   -2.021559
     72          1           0       -4.115694   -2.641153    3.331872
     73          1           0       -6.522354   -1.337750   -2.272423
     74          1           0       -5.639503   -4.945340   -0.404002
     75          1           0       -4.708120   -5.693438   -1.906660
     76          1           0       -3.809643   -5.659615   -0.434959
     77          1           0       -0.437022    7.839420    1.429125
     78          1           0       -7.704902   -2.876698   -3.242108
     79          1           0       -6.608620   -4.371387   -2.904983
 ---------------------------------------------------------------------

 SCF Done:  E(RB3LYP) =  -1947.82398716     A.U. after   17 cycles

 Excitation energies and oscillator strengths:

 Excited State   1:      Singlet-A      1.9431 eV  638.07 nm  f=0.4617  <S**2>=0.000
     155 ->156         0.70472
     155 <-156        -0.12313
 This state for optimization and/or second-order correction.
 Total Energy, E(TD-HF/TD-DFT) =  -1947.75257897
 Copying the excited state density for this state as the 1-particle RhoCI density.

 The electronic state is 1-A.
 Alpha  occ. eigenvalues --  -19.18790 -19.18710 -19.14805 -19.11658 -19.11389
 Alpha  occ. eigenvalues --  -19.09354 -14.39120 -14.35647 -14.35560 -14.30417
 Alpha  occ. eigenvalues --  -10.32749 -10.31314 -10.29142 -10.27618 -10.25272
 Alpha  occ. eigenvalues --  -10.24354 -10.24052 -10.23711 -10.23553 -10.23332
 Alpha  occ. eigenvalues --  -10.22989 -10.22628 -10.22480 -10.22426 -10.22183
 Alpha  occ. eigenvalues --  -10.22040 -10.22017 -10.21932 -10.21705 -10.21165
 Alpha  occ. eigenvalues --  -10.21022 -10.20866 -10.20846 -10.20805 -10.20664
 Alpha  occ. eigenvalues --  -10.20608 -10.20398 -10.19955 -10.19895 -10.19536
 Alpha  occ. eigenvalues --  -10.19484 -10.19332 -10.18990  -1.11432  -1.10267
 Alpha  occ. eigenvalues --   -1.02958  -1.01803  -0.99689  -0.98875  -0.97975
 Alpha  occ. eigenvalues --   -0.97642  -0.94830  -0.91240  -0.82599  -0.82275
 Alpha  occ. eigenvalues --   -0.81800  -0.81276  -0.80314  -0.78864  -0.77385
 Alpha  occ. eigenvalues --   -0.77006  -0.76293  -0.75033  -0.73698  -0.71855
 Alpha  occ. eigenvalues --   -0.71729  -0.71197  -0.69431  -0.68755  -0.67931
 Alpha  occ. eigenvalues --   -0.66252  -0.65693  -0.63527  -0.60800  -0.59870
 Alpha  occ. eigenvalues --   -0.58783  -0.58299  -0.57844  -0.57223  -0.56949
 Alpha  occ. eigenvalues --   -0.55574  -0.54261  -0.54196  -0.53536  -0.52537
 Alpha  occ. eigenvalues --   -0.52057  -0.51028  -0.50674  -0.50142  -0.50022
 Alpha  occ. eigenvalues --   -0.49167  -0.48841  -0.48467  -0.48370  -0.48202
 Alpha  occ. eigenvalues --   -0.47906  -0.47348  -0.46806  -0.46068  -0.45632
 Alpha  occ. eigenvalues --   -0.45468  -0.45099  -0.44527  -0.44039  -0.43817
 Alpha  occ. eigenvalues --   -0.43565  -0.43214  -0.42777  -0.42583  -0.41939
 Alpha  occ. eigenvalues --   -0.41653  -0.41563  -0.41441  -0.41206  -0.41016
 Alpha  occ. eigenvalues --   -0.40885  -0.40517  -0.39851  -0.39236  -0.38937
 Alpha  occ. eigenvalues --   -0.38719  -0.38342  -0.38319  -0.38135  -0.37535
 Alpha  occ. eigenvalues --   -0.37130  -0.37110  -0.36946  -0.36878  -0.36271
 Alpha  occ. eigenvalues --   -0.36097  -0.35666  -0.34667  -0.34310  -0.34237
 Alpha  occ. eigenvalues --   -0.34048  -0.33194  -0.32768  -0.32496  -0.31646
 Alpha  occ. eigenvalues --   -0.31353  -0.31321  -0.30207  -0.29325  -0.28844
 Alpha  occ. eigenvalues --   -0.27227  -0.25701  -0.25487  -0.25025  -0.24412
 Alpha  occ. eigenvalues --   -0.24394  -0.23877  -0.23784  -0.22956  -0.18120
 Alpha virt. eigenvalues --   -0.10639  -0.07792  -0.06720  -0.01609  -0.01196
 Alpha virt. eigenvalues --   -0.00581   0.00516   0.01626   0.02439   0.02779
 Alpha virt. eigenvalues --    0.03256   0.03807   0.04398   0.04472   0.05041

 Mulliken charges:
               1
     1  O   -0.308131
     2  O   -0.135203
     3  O   -0.249097
     4  O   -0.208616
     5  O   -0.177814
     6  O   -0.209056
     7  N   -0.050423
     8  N   -0.234973
     9  N   -0.094068
    10  N   -0.227828
    11  C    0.060557
    12  C    0.198590
    13  C   -0.088202
    14  C   -0.142959
    15  C   -0.090279
    16  C    0.024127
    17  C   -0.179241
    18  C    0.026528
    19  C   -0.006542
    20  C   -0.131100
    21  C    0.069462
    22  C    0.184906
    23  C    0.027778
    24  C    0.167912
    25  C    0.127800
    26  C   -0.121361
    27  C   -0.103265
    28  C    0.085102
    29  C   -0.088595
    30  C   -0.052398
    31  C   -0.042102
    32  C    0.028660
    33  C   -0.136315
    34  C    0.157402
    35  C    0.024766
    36  C   -0.119229
    37  C    0.144597
    38  C    0.137780
    39  C   -0.175816
    40  C    0.167799
    41  C    0.004908
    42  C    0.005940
    43  C   -0.116033
    44  H    0.027320
    45  H   -0.036161
    46  H   -0.027675
    47  H    0.166061
    48  H    0.158679
    49  H    0.015980
    50  H    0.030436
    51  H    0.007814
    52  H   -0.005922
    53  H    0.018443
    54  H    0.026433
    55  H   -0.003369
    56  H    0.072586
    57  H    0.038023
    58  H    0.095448
    59  H    0.028584
    60  H    0.173015
    61  H    0.036886
    62  H    0.061081
    63  H    0.067418
    64  H    0.038199
    65  H    0.070223
    66  H    0.047275
    67  H    0.048395
    68  H    0.033217
    69  H    0.018472
    70  H    0.049041
    71  H    0.068505
    72  H    0.176194
    73  H   -0.014247
    74  H    0.047854
    75  H    0.040181
    76  H    0.021685
    77  H    0.173281
    78  H    0.024904
    79  H    0.049778
 Sum of Mulliken charges =  -0.00000

 Dipole moment (field-independent basis, Debye):
    X=              0.8211    Y=              0.3581    Z=              3.2277  Tot=              3.3497
 Quadrupole moment (field-independent basis, Debye-Ang):
   XX=           -218.8074   YY=           -246.7731   ZZ=           -265.7107
   XY=             -7.0757   XZ=             36.7175   YZ=              0.8762

 Normal termination of Gaussian 16 at Sat Sep 28 08:26:20 2019.
