 Gaussian 16, Revision A.03,
 Gaussian 16:  ES64L-G16RevA.03 25-Dec-2016

 --------------------------
 # td=(NStates=1) B3LYP/SVP
 --------------------------

 --
 TD
 --
 Symbolic Z-matrix:
 Charge =  0 Multiplicity = 1

                         Standard orientation:
 ---------------------------------------------------------------------
 Center     Atomic      Atomic             Coordinates (Angstroms)
 Number     Number       Type             X           Y           Z
 ---------------------------------------------------------------------
      1          8           0       -3.364831   -1.246405   -2.919725
      2          8           0        3.534174    2.768232    3.258886
      3          8           0        3.891811    1.030794    4.581178
      4          8           0        7.696341   -1.493772   -1.033735
      5          8           0        6.655731   -2.867133   -2.330882
      6          8           0       -2.610712    1.640924    1.594980
      7          7           0       -0.353143   -2.448809    0.765202
      8          7           0       -2.731531   -1.047752   -0.806104
      9          7           0        1.179392    0.187449   -0.696698
     10          7           0       -0.984704    1.466811   -0.077518
     11          6           0       -3.393478   -1.246331    0.555931
     12          6           0       -2.679274   -2.280017    1.575839
     13          6           0       -1.225338   -2.077287    1.726652
     14          6           0       -0.478661   -1.242883    2.768421
     15          6           0        0.803703   -1.293328    2.417391
     16          6           0        0.928677   -1.881137    1.204657
     17          6           0       -4.770776   -1.859230    0.217143
     18          6           0        1.986952   -0.633660    3.167497
     19          6           0       -4.844059   -2.017304   -1.069286
     20          6           0        2.006085   -1.934965    0.195848
     21          6           0        2.065709   -0.872079   -0.722139
     22          6           0       -3.574282   -1.422814   -1.751148
     23          6           0        2.884603   -0.590399   -1.860303
     24          6           0       -1.097253   -0.586706    3.921354
     25          6           0       -5.800737   -2.227362    1.270551
     26          6           0        2.455106    0.607730   -2.534848
     27          6           0        2.088973    0.845246    2.790238
     28          6           0        1.347626    1.036724   -1.640336
     29          6           0        4.194371   -1.420796   -2.240113
     30          6           0       -6.010867   -2.443543   -2.032495
     31          6           0        5.289774   -1.137023   -1.269593
     32          6           0        3.049486    1.239023   -3.785680
     33          6           0        0.459876    2.120155   -1.897110
     34          6           0        3.215767    1.501276    3.674140
     35          6           0       -0.609089    2.387167   -1.102274
     36          6           0       -6.964732   -3.271885   -1.653002
     37          6           0        6.557571   -1.885934   -1.584994
     38          6           0       -1.434655    3.612066   -1.120556
     39          6           0       -2.386270    3.392889   -0.056471
     40          6           0       -1.950695    2.101046    0.718910
     41          6           0       -1.247822    4.705531   -2.013180
     42          6           0       -3.465216    4.372213    0.506184
     43          6           0       -2.039801    5.847133   -2.102739
     44          1           0       -3.574357   -0.378115    1.036221
     45          1           0       -2.805374   -3.353615    1.094445
     46          1           0       -3.062013   -2.069067    2.636576
     47          1           0       -0.602093   -2.853812   -0.122800
     48          1           0       -2.080148   -0.351161   -0.793282
     49          1           0        1.648727   -0.780471    4.135758
     50          1           0        2.913250   -1.268567    2.871543
     51          1           0        2.616365   -2.812879    0.312205
     52          1           0       -1.856198   -1.026806    4.633332
     53          1           0       -0.326711   -0.158030    4.512525
     54          1           0       -1.743885    0.322357    3.417979
     55          1           0       -5.885927   -1.426396    2.220242
     56          1           0       -5.568051   -3.271760    1.619434
     57          1           0       -6.684906   -2.146369    0.738185
     58          1           0        2.096523    1.124881    1.719497
     59          1           0        1.252311    1.441053    3.120577
     60          1           0        0.410756    0.430853   -0.008766
     61          1           0        4.375254   -1.222916   -3.226984
     62          1           0        4.020613   -2.578630   -2.172678
     63          1           0       -6.205867   -1.888122   -2.945971
     64          1           0        4.949300   -1.339608   -0.180724
     65          1           0        5.472700   -0.122166   -1.021120
     66          1           0        3.974447    0.695180   -4.209566
     67          1           0        3.538480    2.144253   -3.450894
     68          1           0        2.276890    1.630104   -4.630167
     69          1           0        0.652090    2.902234   -2.782973
     70          1           0       -6.872882   -3.914686   -0.757207
     71          1           0       -7.949515   -3.597125   -2.225391
     72          1           0        4.326190    2.851266    3.858711
     73          1           0       -0.329883    4.637898   -2.671428
     74          1           0       -4.245719    4.233514   -0.354697
     75          1           0       -3.884913    4.022909    1.395770
     76          1           0       -3.013125    5.345439    0.694146
     77          1           0        8.419209   -2.204469   -1.402595
     78          1           0       -1.780490    6.515646   -2.874958
     79          1           0       -2.828892    6.041068   -1.331661
 ---------------------------------------------------------------------

 SCF Done:  E(RB3LYP) =  -1947.85758668     A.U. after   22 cycles

 Excitation energies and oscillator strengths:

 Excited State   1:      Singlet-A      0.5821 eV 2129.77 nm  f=0.0005  <S**2>=0.000
     155 ->156         0.70435
 This state for optimization and/or second-order correction.
 Total Energy, E(TD-HF/TD-DFT) =  -1947.83619311
 Copying the excited state density for this state as the 1-particle RhoCI density.

 The electronic state is 1-A.
 Alpha  occ. eigenvalues --  -19.19464 -19.17887 -19.13305 -19.12677 -19.11886
 Alpha  occ. eigenvalues --  -19.07371 -14.38116 -14.37397 -14.32641 -14.30404
 Alpha  occ. eigenvalues --  -10.33065 -10.32508 -10.27942 -10.27277 -10.26653
 Alpha  occ. eigenvalues --  -10.26083 -10.24798 -10.24227 -10.24110 -10.23777
 Alpha  occ. eigenvalues --  -10.23603 -10.23019 -10.22379 -10.21979 -10.21888
 Alpha  occ. eigenvalues --  -10.21651 -10.21574 -10.21412 -10.21337 -10.21008
 Alpha  occ. eigenvalues --  -10.20987 -10.20512 -10.20417 -10.20243 -10.20225
 Alpha  occ. eigenvalues --  -10.20212 -10.19762 -10.19429 -10.18844 -10.18742
 Alpha  occ. eigenvalues --  -10.18267 -10.17261 -10.17081  -1.10587  -1.09680
 Alpha  occ. eigenvalues --   -1.04216  -1.02550  -1.01402  -0.99369  -0.98922
 Alpha  occ. eigenvalues --   -0.95879  -0.91601  -0.91169  -0.83923  -0.82650
 Alpha  occ. eigenvalues --   -0.81731  -0.80885  -0.80428  -0.79645  -0.77934
 Alpha  occ. eigenvalues --   -0.77085  -0.76125  -0.74795  -0.74170  -0.72998
 Alpha  occ. eigenvalues --   -0.70926  -0.70267  -0.69750  -0.69308  -0.67767
 Alpha  occ. eigenvalues --   -0.67271  -0.65686  -0.62545  -0.60840  -0.60213
 Alpha  occ. eigenvalues --   -0.59350  -0.59148  -0.58340  -0.57743  -0.57496
 Alpha  occ. eigenvalues --   -0.56765  -0.56349  -0.54876  -0.53285  -0.52487
 Alpha  occ. eigenvalues --   -0.51856  -0.51602  -0.51046  -0.50307  -0.49600
 Alpha  occ. eigenvalues --   -0.49045  -0.48669  -0.48603  -0.48311  -0.48287
 Alpha  occ. eigenvalues --   -0.47757  -0.47198  -0.46852  -0.46354  -0.46282
 Alpha  occ. eigenvalues --   -0.45167  -0.45085  -0.44643  -0.44353  -0.43983
 Alpha  occ. eigenvalues --   -0.43228  -0.42945  -0.42865  -0.42594  -0.42245
 Alpha  occ. eigenvalues --   -0.42120  -0.41976  -0.41794  -0.41596  -0.41424
 Alpha  occ. eigenvalues --   -0.41090  -0.41064  -0.40737  -0.40264  -0.40085
 Alpha  occ. eigenvalues --   -0.39966  -0.39585  -0.39175  -0.38816  -0.37738
 Alpha  occ. eigenvalues --   -0.37695  -0.37371  -0.36844  -0.36584  -0.36393
 Alpha  occ. eigenvalues --   -0.36018  -0.35969  -0.35906  -0.35712  -0.35500
 Alpha  occ. eigenvalues --   -0.34737  -0.32995  -0.32117  -0.32080  -0.31929
 Alpha  occ. eigenvalues --   -0.31423  -0.29805  -0.29564  -0.29138  -0.28741
 Alpha  occ. eigenvalues --   -0.28488  -0.27242  -0.25242  -0.24959  -0.24852
 Alpha  occ. eigenvalues --   -0.24177  -0.23173  -0.22890  -0.22153  -0.17820
 Alpha virt. eigenvalues --   -0.12951  -0.08050  -0.02349  -0.02112  -0.01474
 Alpha virt. eigenvalues --   -0.00415   0.00756   0.01798   0.02495   0.02947
 Alpha virt. eigenvalues --    0.03379   0.03935   0.04566   0.05209   0.05561

 Mulliken charges:
               1
     1  O   -0.217306
     2  O   -0.205101
     3  O   -0.249665
     4  O   -0.211126
     5  O   -0.273418
     6  O   -0.192156
     7  N   -0.083962
     8  N   -0.127446
     9  N   -0.003324
    10  N   -0.399647
    11  C    0.156098
    12  C    0.134600
    13  C   -0.103235
    14  C   -0.115077
    15  C   -0.092154
    16  C   -0.069868
    17  C   -0.213892
    18  C    0.181174
    19  C   -0.078910
    20  C   -0.100431
    21  C    0.173271
    22  C    0.101469
    23  C   -0.136728
    24  C    0.016208
    25  C    0.067708
    26  C   -0.099274
    27  C    0.014103
    28  C    0.040839
    29  C    0.147029
    30  C    0.037363
    31  C    0.014490
    32  C    0.053595
    33  C   -0.128698
    34  C    0.145888
    35  C    0.122766
    36  C   -0.093768
    37  C    0.146322
    38  C    0.082735
    39  C   -0.248652
    40  C    0.202252
    41  C   -0.079063
    42  C    0.092330
    43  C    0.001068
    44  H   -0.007042
    45  H    0.004359
    46  H    0.021395
    47  H    0.119294
    48  H    0.094650
    49  H   -0.001359
    50  H    0.022611
    51  H    0.023316
    52  H    0.023938
    53  H   -0.021224
    54  H    0.058019
    55  H    0.040392
    56  H    0.049910
    57  H    0.016804
    58  H    0.033309
    59  H    0.031213
    60  H    0.196208
    61  H   -0.012316
    62  H    0.043155
    63  H    0.019677
    64  H    0.048798
    65  H    0.004611
    66  H    0.039276
    67  H    0.023853
    68  H    0.069661
    69  H    0.020756
    70  H    0.016550
    71  H    0.037908
    72  H    0.175900
    73  H   -0.000580
    74  H    0.059344
    75  H    0.006514
    76  H    0.048965
    77  H    0.236230
    78  H    0.015220
    79  H    0.032278
 Sum of Mulliken charges =  -0.00000

 Dipole moment (field-independent basis, Debye):
    X=              3.2974    Y=              2.5825    Z=             -0.5151  Tot=              4.2199
 Quadrupole moment (field-independent basis, Debye-Ang):
   XX=           -238.0120   YY=           -240.9895   ZZ=           -271.4084
   XY=              4.7394   XZ=            -22.7006   YZ=            -14.8564

 Normal termination of Gaussian 16 at Mon Jul 29 20:56:31 2019.
