 Gaussian 16, Revision A.03,
 Gaussian 16:  ES64L-G16RevA.03 25-Dec-2016

 --------------------------
 # td=(NStates=1) B3LYP/SVP
 --------------------------

 --
 TD
 --
 Symbolic Z-matrix:
 Charge =  0 Multiplicity = 1

                         Standard orientation:
 ---------------------------------------------------------------------
 Center     Atomic      Atomic             Coordinates (Angstroms)
 Number     Number       Type             X           Y           Z
 ---------------------------------------------------------------------
      1          8           0        5.448721    0.002623   -3.186909
      2          8           0       -3.142752   -2.959773    3.060300
      3          8           0       -3.437567   -0.729728    2.800064
      4          8           0       -1.735269    7.187057    1.385778
      5          8           0       -1.075619    7.107718   -0.707080
      6          8           0       -1.436172   -4.062798   -0.056235
      7          7           0        2.389652    1.034982    0.538028
      8          7           0        4.344925   -0.507330   -1.122503
      9          7           0       -1.791691    0.602613   -0.360763
     10          7           0       -2.333871   -2.028474   -0.582518
     11          6           0        4.807111   -1.060322    0.096656
     12          6           0        4.335430   -0.186137    1.340146
     13          6           0        2.918982    0.120094    1.374351
     14          6           0        1.883105   -0.426957    2.249185
     15          6           0        0.687711    0.150084    1.894792
     16          6           0        0.981108    1.072134    0.841600
     17          6           0        6.259570   -1.249664   -0.126803
     18          6           0       -0.650783   -0.201624    2.586490
     19          6           0        6.760603   -0.760272   -1.271536
     20          6           0        0.135565    1.983487    0.100933
     21          6           0       -1.208515    1.836840   -0.345641
     22          6           0        5.447178   -0.336408   -2.038423
     23          6           0       -2.187880    2.894627   -0.936804
     24          6           0        2.171338   -1.463885    3.278569
     25          6           0        7.250470   -1.885677    0.975066
     26          6           0       -3.325276    2.337091   -1.230795
     27          6           0       -1.178698   -1.573774    2.642878
     28          6           0       -3.127053    0.828412   -0.913986
     29          6           0       -1.784537    4.280005   -1.024015
     30          6           0        8.002790   -0.614125   -2.003262
     31          6           0       -2.009676    5.078062    0.286862
     32          6           0       -4.499477    2.857782   -1.915829
     33          6           0       -3.927974   -0.128419   -1.195384
     34          6           0       -2.672945   -1.658652    2.928276
     35          6           0       -3.585450   -1.540600   -1.090398
     36          6           0        9.266773   -0.667056   -1.557722
     37          6           0       -1.517466    6.510227    0.259493
     38          6           0       -4.412970   -2.853314   -1.416773
     39          6           0       -3.656870   -3.921307   -1.110397
     40          6           0       -2.363512   -3.417463   -0.568077
     41          6           0       -5.739929   -2.805586   -1.967156
     42          6           0       -3.787024   -5.427002   -1.180352
     43          6           0       -6.483913   -3.807878   -2.437496
     44          1           0        4.385957   -2.025558    0.552773
     45          1           0        4.865023    0.761444    1.171280
     46          1           0        4.593038   -0.785639    2.225493
     47          1           0        2.832037    1.750995    0.034069
     48          1           0        3.467252   -0.411694   -1.465381
     49          1           0       -0.355469    0.373442    3.535667
     50          1           0       -1.453904    0.315979    2.217677
     51          1           0        0.502447    3.017884   -0.136010
     52          1           0        3.302073   -1.161390    3.406170
     53          1           0        1.454739   -1.309032    4.188348
     54          1           0        2.198160   -2.559929    2.738550
     55          1           0        6.548891   -2.682377    1.406638
     56          1           0        7.872188   -1.348259    1.664578
     57          1           0        7.901789   -2.412972    0.496800
     58          1           0       -1.037260   -2.117500    1.611532
     59          1           0       -0.631160   -2.160928    3.451992
     60          1           0       -1.622323   -0.486805   -0.428909
     61          1           0       -2.259057    4.877932   -1.782657
     62          1           0       -0.638523    4.305536   -1.299776
     63          1           0        7.818519   -0.222658   -2.998490
     64          1           0       -1.642928    4.478923    1.207285
     65          1           0       -3.151090    5.501355    0.354042
     66          1           0       -4.194395    3.821111   -2.584634
     67          1           0       -5.347559    3.121411   -1.333651
     68          1           0       -4.913820    2.017169   -2.721783
     69          1           0       -4.978462    0.175696   -1.589905
     70          1           0        9.564782   -1.000197   -0.573963
     71          1           0       10.115330   -0.575451   -2.325897
     72          1           0       -4.169650   -3.115267    3.208622
     73          1           0       -6.347152   -1.929467   -1.878649
     74          1           0       -4.545802   -5.729434   -0.441022
     75          1           0       -3.995848   -5.805781   -2.159771
     76          1           0       -3.267972   -5.977792   -0.495310
     77          1           0       -1.361185    8.055044    1.209461
     78          1           0       -7.483931   -3.695673   -2.625329
     79          1           0       -5.985292   -4.909789   -2.659589
 ---------------------------------------------------------------------

 SCF Done:  E(RB3LYP) =  -1947.81529376     A.U. after   17 cycles

 Excitation energies and oscillator strengths:

 Excited State   1:      Singlet-A      1.8121 eV  684.21 nm  f=0.3814  <S**2>=0.000
     155 ->156         0.70984
     155 <-156        -0.12628
 This state for optimization and/or second-order correction.
 Total Energy, E(TD-HF/TD-DFT) =  -1947.74870151
 Copying the excited state density for this state as the 1-particle RhoCI density.

 The electronic state is 1-A.
 Alpha  occ. eigenvalues --  -19.18686 -19.16477 -19.12612 -19.11496 -19.11260
 Alpha  occ. eigenvalues --  -19.10218 -14.38523 -14.35745 -14.35257 -14.30491
 Alpha  occ. eigenvalues --  -10.32557 -10.31106 -10.29053 -10.26416 -10.25681
 Alpha  occ. eigenvalues --  -10.25285 -10.24621 -10.24018 -10.23557 -10.22979
 Alpha  occ. eigenvalues --  -10.22781 -10.22322 -10.22000 -10.21622 -10.21421
 Alpha  occ. eigenvalues --  -10.21353 -10.21245 -10.21225 -10.21199 -10.21070
 Alpha  occ. eigenvalues --  -10.20082 -10.20078 -10.20043 -10.19984 -10.19981
 Alpha  occ. eigenvalues --  -10.19976 -10.19944 -10.19866 -10.19504 -10.19413
 Alpha  occ. eigenvalues --  -10.18707 -10.18453 -10.18249  -1.11335  -1.06144
 Alpha  occ. eigenvalues --   -1.03703  -1.00344  -1.00302  -0.98182  -0.97903
 Alpha  occ. eigenvalues --   -0.95621  -0.94594  -0.89828  -0.83683  -0.81998
 Alpha  occ. eigenvalues --   -0.81771  -0.81414  -0.80569  -0.79883  -0.78165
 Alpha  occ. eigenvalues --   -0.77071  -0.76506  -0.76105  -0.74658  -0.72403
 Alpha  occ. eigenvalues --   -0.71476  -0.70833  -0.70532  -0.68548  -0.68361
 Alpha  occ. eigenvalues --   -0.66732  -0.66065  -0.64221  -0.61269  -0.60568
 Alpha  occ. eigenvalues --   -0.60061  -0.59575  -0.58377  -0.57865  -0.56842
 Alpha  occ. eigenvalues --   -0.55242  -0.54956  -0.54659  -0.54031  -0.53190
 Alpha  occ. eigenvalues --   -0.51586  -0.51102  -0.50948  -0.50642  -0.49618
 Alpha  occ. eigenvalues --   -0.49243  -0.48674  -0.48612  -0.47902  -0.47492
 Alpha  occ. eigenvalues --   -0.46940  -0.46774  -0.46292  -0.46019  -0.45844
 Alpha  occ. eigenvalues --   -0.45404  -0.45134  -0.44906  -0.44517  -0.44288
 Alpha  occ. eigenvalues --   -0.44069  -0.43501  -0.42977  -0.42651  -0.42029
 Alpha  occ. eigenvalues --   -0.41777  -0.41584  -0.41297  -0.41195  -0.41172
 Alpha  occ. eigenvalues --   -0.40732  -0.40471  -0.40290  -0.39871  -0.39645
 Alpha  occ. eigenvalues --   -0.39234  -0.38943  -0.38166  -0.38101  -0.37589
 Alpha  occ. eigenvalues --   -0.37323  -0.37154  -0.36882  -0.36380  -0.36200
 Alpha  occ. eigenvalues --   -0.35948  -0.35698  -0.35189  -0.34521  -0.34175
 Alpha  occ. eigenvalues --   -0.33428  -0.33088  -0.32618  -0.32355  -0.32192
 Alpha  occ. eigenvalues --   -0.31285  -0.30711  -0.28331  -0.27932  -0.27472
 Alpha  occ. eigenvalues --   -0.26785  -0.26626  -0.26470  -0.25719  -0.25300
 Alpha  occ. eigenvalues --   -0.24462  -0.24435  -0.23526  -0.22673  -0.17855
 Alpha virt. eigenvalues --   -0.10892  -0.05986  -0.05415  -0.01635  -0.00005
 Alpha virt. eigenvalues --    0.00303   0.00886   0.01233   0.02925   0.03142
 Alpha virt. eigenvalues --    0.03543   0.04319   0.04736   0.05062   0.05495

 Mulliken charges:
               1
     1  O   -0.189794
     2  O   -0.271533
     3  O   -0.223179
     4  O   -0.159398
     5  O   -0.247525
     6  O   -0.219440
     7  N   -0.057572
     8  N   -0.179213
     9  N   -0.160009
    10  N   -0.338414
    11  C    0.083232
    12  C    0.231076
    13  C   -0.112714
    14  C   -0.142079
    15  C   -0.078523
    16  C    0.070621
    17  C   -0.183980
    18  C    0.126720
    19  C   -0.038029
    20  C   -0.102184
    21  C    0.055434
    22  C    0.138753
    23  C   -0.019080
    24  C    0.005486
    25  C    0.139762
    26  C   -0.059609
    27  C   -0.019720
    28  C    0.132083
    29  C    0.064427
    30  C    0.011417
    31  C   -0.063477
    32  C    0.007004
    33  C   -0.132538
    34  C    0.160354
    35  C    0.091012
    36  C   -0.039933
    37  C    0.117082
    38  C    0.100920
    39  C   -0.220494
    40  C    0.164125
    41  C   -0.045616
    42  C    0.173287
    43  C   -0.032695
    44  H    0.013523
    45  H   -0.023877
    46  H   -0.016371
    47  H    0.108518
    48  H    0.099049
    49  H    0.020706
    50  H   -0.028338
    51  H   -0.019721
    52  H    0.029862
    53  H    0.055202
    54  H    0.066645
    55  H    0.007371
    56  H    0.038490
    57  H   -0.033469
    58  H    0.110383
    59  H    0.024506
    60  H    0.195220
    61  H   -0.000685
    62  H    0.040859
    63  H    0.013349
    64  H    0.073058
    65  H    0.067111
    66  H    0.045756
    67  H    0.031091
    68  H    0.047326
    69  H    0.005799
    70  H    0.011423
    71  H    0.041510
    72  H    0.222077
    73  H   -0.018607
    74  H   -0.002775
    75  H    0.046435
    76  H   -0.018991
    77  H    0.174214
    78  H   -0.000055
    79  H    0.037361
 Sum of Mulliken charges =  -0.00000

 Dipole moment (field-independent basis, Debye):
    X=             -1.5651    Y=              1.6144    Z=              2.9398  Tot=              3.7011
 Quadrupole moment (field-independent basis, Debye-Ang):
   XX=           -213.3112   YY=           -247.0245   ZZ=           -262.8048
   XY=             -0.5930   XZ=             26.9522   YZ=              3.1532

 Normal termination of Gaussian 16 at Mon Sep 16 15:11:19 2019.
