 Gaussian 16, Revision A.03,
 Gaussian 16:  ES64L-G16RevA.03 25-Dec-2016

 --------------------------
 # td=(NStates=1) B3LYP/SVP
 --------------------------

 --
 TD
 --
 Symbolic Z-matrix:
 Charge =  0 Multiplicity = 1

                         Standard orientation:
 ---------------------------------------------------------------------
 Center     Atomic      Atomic             Coordinates (Angstroms)
 Number     Number       Type             X           Y           Z
 ---------------------------------------------------------------------
      1          8           0       -3.268693   -1.314316   -2.855836
      2          8           0        2.866573    3.151807    3.120908
      3          8           0        3.557879    1.444347    4.542475
      4          8           0        7.743944   -1.335569   -0.686265
      5          8           0        6.960636   -2.894588   -2.102773
      6          8           0       -2.781226    1.581293    1.395772
      7          7           0       -0.176057   -2.400219    0.986301
      8          7           0       -2.690800   -1.142906   -0.611066
      9          7           0        1.237732    0.141230   -0.729158
     10          7           0       -1.141942    1.365039   -0.240524
     11          6           0       -3.356268   -1.306351    0.709404
     12          6           0       -2.547239   -2.411525    1.522761
     13          6           0       -1.174710   -1.960091    1.854581
     14          6           0       -0.527522   -1.205407    2.842310
     15          6           0        0.787490   -1.126594    2.514233
     16          6           0        1.078342   -1.853710    1.252355
     17          6           0       -4.635803   -1.926889    0.252857
     18          6           0        1.923424   -0.382350    3.243370
     19          6           0       -4.663296   -2.084315   -1.048720
     20          6           0        2.168137   -1.869800    0.321028
     21          6           0        2.137484   -0.905471   -0.658689
     22          6           0       -3.439357   -1.516907   -1.684563
     23          6           0        2.964588   -0.663421   -1.768669
     24          6           0       -1.304204   -0.410515    3.858774
     25          6           0       -5.709425   -2.442939    1.252309
     26          6           0        2.557954    0.531162   -2.454905
     27          6           0        1.885093    1.060767    2.876620
     28          6           0        1.385314    0.922752   -1.840170
     29          6           0        4.225700   -1.474961   -2.094870
     30          6           0       -5.752189   -2.582389   -2.046905
     31          6           0        5.434415   -1.070290   -1.306971
     32          6           0        3.153070    1.176388   -3.658971
     33          6           0        0.470274    1.941838   -1.953169
     34          6           0        2.865585    1.886950    3.674854
     35          6           0       -0.669241    2.264600   -1.181061
     36          6           0       -6.746556   -3.421360   -1.703226
     37          6           0        6.779647   -1.915419   -1.398264
     38          6           0       -1.515070    3.447457   -1.258534
     39          6           0       -2.454114    3.356114   -0.204298
     40          6           0       -2.139820    2.011780    0.387220
     41          6           0       -1.407437    4.541013   -2.256565
     42          6           0       -3.541107    4.235407    0.267750
     43          6           0       -2.213069    5.620546   -2.341658
     44          1           0       -3.507223   -0.409981    1.305878
     45          1           0       -2.455726   -3.244902    1.024362
     46          1           0       -3.221880   -2.349080    2.626831
     47          1           0       -0.346309   -2.508764   -0.153653
     48          1           0       -1.967227   -0.326779   -0.893200
     49          1           0        1.920883   -0.503875    4.348246
     50          1           0        2.744496   -1.048301    3.051745
     51          1           0        2.830110   -2.710128    0.233253
     52          1           0       -1.691761   -1.103696    4.605390
     53          1           0       -0.625211    0.180138    4.408630
     54          1           0       -1.891030    0.441860    3.296829
     55          1           0       -5.677305   -1.626651    2.169597
     56          1           0       -5.562233   -3.352644    1.763348
     57          1           0       -6.585820   -2.093503    0.844637
     58          1           0        2.237990    1.162489    1.906561
     59          1           0        0.836333    1.486064    2.917628
     60          1           0        0.324027    0.211720   -0.047447
     61          1           0        4.470879   -1.236531   -3.096812
     62          1           0        3.915174   -2.648959   -2.010463
     63          1           0       -5.431011   -2.468711   -3.076250
     64          1           0        5.425629   -1.126148   -0.349301
     65          1           0        5.697969   -0.061330   -1.506784
     66          1           0        3.796027    0.585445   -4.107314
     67          1           0        3.870844    2.144860   -3.289416
     68          1           0        2.302835    1.541179   -4.559258
     69          1           0        0.843942    2.808486   -2.654652
     70          1           0       -7.096442   -3.507335   -0.682698
     71          1           0       -7.586495   -3.727852   -2.387808
     72          1           0        3.510718    3.863855    3.578013
     73          1           0       -0.391133    4.430179   -2.984412
     74          1           0       -4.152466    4.365104   -0.768863
     75          1           0       -4.227135    3.889750    1.051643
     76          1           0       -3.056504    5.329863    0.287677
     77          1           0        8.631399   -1.850129   -0.780996
     78          1           0       -2.114411    6.225113   -3.344341
     79          1           0       -3.127914    5.636949   -1.701025
 ---------------------------------------------------------------------

 SCF Done:  E(RB3LYP) =  -1947.78446461     A.U. after   21 cycles

 Excitation energies and oscillator strengths:

 Excited State   1:      Singlet-A      0.6258 eV 1981.34 nm  f=0.0032  <S**2>=0.000
     155 ->156         0.70404
 This state for optimization and/or second-order correction.
 Total Energy, E(TD-HF/TD-DFT) =  -1947.76146841
 Copying the excited state density for this state as the 1-particle RhoCI density.

 The electronic state is 1-A.
 Alpha  occ. eigenvalues --  -19.20374 -19.18141 -19.13516 -19.12845 -19.11476
 Alpha  occ. eigenvalues --  -19.08072 -14.37257 -14.37091 -14.32442 -14.31394
 Alpha  occ. eigenvalues --  -10.33533 -10.31528 -10.27880 -10.26434 -10.26154
 Alpha  occ. eigenvalues --  -10.25481 -10.25456 -10.23784 -10.23738 -10.23520
 Alpha  occ. eigenvalues --  -10.23309 -10.23057 -10.22917 -10.22628 -10.22364
 Alpha  occ. eigenvalues --  -10.22098 -10.21917 -10.21867 -10.21270 -10.21164
 Alpha  occ. eigenvalues --  -10.20826 -10.20085 -10.20018 -10.19107 -10.19067
 Alpha  occ. eigenvalues --  -10.18997 -10.18762 -10.17849 -10.17729 -10.17617
 Alpha  occ. eigenvalues --  -10.17292 -10.17230 -10.16520  -1.10713  -1.07571
 Alpha  occ. eigenvalues --   -1.01173  -1.01037  -1.01029  -1.00325  -1.00301
 Alpha  occ. eigenvalues --   -0.95313  -0.93584  -0.91395  -0.84177  -0.83465
 Alpha  occ. eigenvalues --   -0.81684  -0.80162  -0.79734  -0.78988  -0.78724
 Alpha  occ. eigenvalues --   -0.76730  -0.75996  -0.75695  -0.73962  -0.73124
 Alpha  occ. eigenvalues --   -0.71533  -0.70314  -0.69755  -0.69084  -0.68218
 Alpha  occ. eigenvalues --   -0.66617  -0.65726  -0.63393  -0.61917  -0.60734
 Alpha  occ. eigenvalues --   -0.59436  -0.58418  -0.57951  -0.57620  -0.56078
 Alpha  occ. eigenvalues --   -0.55459  -0.54605  -0.54277  -0.53011  -0.52748
 Alpha  occ. eigenvalues --   -0.51948  -0.51135  -0.50942  -0.50317  -0.49673
 Alpha  occ. eigenvalues --   -0.49245  -0.48905  -0.48577  -0.48325  -0.47764
 Alpha  occ. eigenvalues --   -0.47288  -0.46910  -0.46794  -0.46091  -0.45580
 Alpha  occ. eigenvalues --   -0.45250  -0.44506  -0.44386  -0.43999  -0.43711
 Alpha  occ. eigenvalues --   -0.43631  -0.43260  -0.43070  -0.42957  -0.42442
 Alpha  occ. eigenvalues --   -0.42146  -0.41605  -0.41371  -0.40805  -0.40709
 Alpha  occ. eigenvalues --   -0.40329  -0.40280  -0.40111  -0.39619  -0.39517
 Alpha  occ. eigenvalues --   -0.39205  -0.38864  -0.38810  -0.38312  -0.38153
 Alpha  occ. eigenvalues --   -0.37577  -0.37431  -0.37269  -0.37069  -0.36216
 Alpha  occ. eigenvalues --   -0.35571  -0.35192  -0.34881  -0.34422  -0.34289
 Alpha  occ. eigenvalues --   -0.33665  -0.33508  -0.32676  -0.31977  -0.31723
 Alpha  occ. eigenvalues --   -0.31308  -0.29666  -0.29569  -0.29396  -0.28652
 Alpha  occ. eigenvalues --   -0.28102  -0.26891  -0.25584  -0.24686  -0.23893
 Alpha  occ. eigenvalues --   -0.23655  -0.23287  -0.22747  -0.22628  -0.18847
 Alpha virt. eigenvalues --   -0.13869  -0.08633  -0.03036  -0.02437  -0.00505
 Alpha virt. eigenvalues --    0.00188   0.01089   0.01533   0.02020   0.02430
 Alpha virt. eigenvalues --    0.02782   0.03045   0.04004   0.04254   0.04594

 Mulliken charges:
               1
     1  O   -0.226968
     2  O   -0.273104
     3  O   -0.195364
     4  O   -0.204839
     5  O   -0.226444
     6  O   -0.267869
     7  N   -0.148554
     8  N   -0.282940
     9  N   -0.184444
    10  N   -0.301613
    11  C    0.112024
    12  C    0.225713
    13  C   -0.061440
    14  C   -0.125640
    15  C   -0.155970
    16  C   -0.028724
    17  C   -0.215302
    18  C    0.123678
    19  C   -0.072933
    20  C   -0.062159
    21  C    0.118989
    22  C    0.119343
    23  C   -0.110702
    24  C    0.117396
    25  C    0.118947
    26  C   -0.092506
    27  C    0.035708
    28  C    0.143142
    29  C    0.125482
    30  C    0.033383
    31  C    0.092413
    32  C    0.060075
    33  C   -0.126269
    34  C    0.156165
    35  C    0.112407
    36  C   -0.042705
    37  C    0.113613
    38  C    0.040001
    39  C   -0.166694
    40  C    0.165399
    41  C   -0.051203
    42  C    0.029945
    43  C   -0.060133
    44  H    0.052167
    45  H   -0.076281
    46  H    0.027432
    47  H    0.167392
    48  H    0.176716
    49  H   -0.000275
    50  H   -0.014160
    51  H    0.003078
    52  H    0.011169
    53  H   -0.039003
    54  H    0.074376
    55  H   -0.002989
    56  H    0.041737
    57  H    0.014210
    58  H    0.000949
    59  H    0.057688
    60  H    0.239404
    61  H   -0.005522
    62  H    0.054845
    63  H    0.010693
    64  H   -0.033024
    65  H    0.018362
    66  H   -0.029566
    67  H    0.055840
    68  H    0.072974
    69  H    0.007529
    70  H    0.006829
    71  H    0.021985
    72  H    0.218959
    73  H    0.032405
    74  H    0.063432
    75  H    0.054407
    76  H    0.063211
    77  H    0.219986
    78  H    0.055409
    79  H    0.018334
 Sum of Mulliken charges =  -0.00000

 Dipole moment (field-independent basis, Debye):
    X=              4.7042    Y=              4.3608    Z=             -0.9153  Tot=              6.4795
 Quadrupole moment (field-independent basis, Debye-Ang):
   XX=           -230.5544   YY=           -240.6171   ZZ=           -269.9446
   XY=              2.7282   XZ=            -19.3655   YZ=            -12.5307

 Normal termination of Gaussian 16 at Fri Jul 26 12:33:37 2019.
