 Gaussian 16, Revision A.03,
 Gaussian 16:  ES64L-G16RevA.03 25-Dec-2016

 --------------------------
 # td=(NStates=1) B3LYP/SVP
 --------------------------

 --
 TD
 --
 Symbolic Z-matrix:
 Charge =  0 Multiplicity = 1

                         Standard orientation:
 ---------------------------------------------------------------------
 Center     Atomic      Atomic             Coordinates (Angstroms)
 Number     Number       Type             X           Y           Z
 ---------------------------------------------------------------------
      1          8           0       -3.204589   -0.725656   -2.992705
      2          8           0        3.062485    2.155930    3.910629
      3          8           0        3.964398    0.107060    4.407439
      4          8           0        7.770688   -1.450415   -0.997653
      5          8           0        6.596613   -2.392535   -2.740023
      6          8           0       -2.628514    1.334840    1.674242
      7          7           0       -0.418319   -2.504970    0.299718
      8          7           0       -2.715795   -0.959374   -0.736134
      9          7           0        1.106617    0.265660   -0.713612
     10          7           0       -1.114945    1.492450    0.001014
     11          6           0       -3.500765   -1.428312    0.437922
     12          6           0       -2.770980   -2.676726    1.195617
     13          6           0       -1.331647   -2.328135    1.355644
     14          6           0       -0.577795   -1.772103    2.484285
     15          6           0        0.758155   -1.674786    2.127129
     16          6           0        0.818807   -2.009211    0.762797
     17          6           0       -4.813342   -1.889957   -0.155950
     18          6           0        1.815075   -1.198497    3.021362
     19          6           0       -4.857360   -1.696146   -1.462404
     20          6           0        2.027465   -1.911194   -0.102229
     21          6           0        2.069383   -0.770164   -0.895065
     22          6           0       -3.519918   -1.084587   -1.889964
     23          6           0        3.087650   -0.237338   -1.841276
     24          6           0       -1.287734   -1.490872    3.808346
     25          6           0       -5.798225   -2.366335    0.818813
     26          6           0        2.607947    1.004286   -2.258315
     27          6           0        2.015481    0.366223    2.895703
     28          6           0        1.506416    1.300400   -1.414201
     29          6           0        4.287425   -1.004278   -2.276272
     30          6           0       -5.796654   -2.085579   -2.483587
     31          6           0        5.515116   -0.701256   -1.385472
     32          6           0        3.191382    1.953281   -3.260223
     33          6           0        0.622153    2.457467   -1.485044
     34          6           0        3.112226    0.850695    3.892553
     35          6           0       -0.618184    2.554405   -0.769967
     36          6           0       -6.910960   -2.778731   -2.379167
     37          6           0        6.688975   -1.593797   -1.812609
     38          6           0       -1.469407    3.734338   -0.555072
     39          6           0       -2.352321    3.363147    0.379840
     40          6           0       -2.132553    1.963132    0.765285
     41          6           0       -1.134700    5.103480   -1.092019
     42          6           0       -3.496237    4.192448    1.054387
     43          6           0       -1.921285    6.168757   -1.059296
     44          1           0       -3.619304   -0.508536    1.352762
     45          1           0       -2.627814   -3.545505    0.432393
     46          1           0       -3.376702   -3.238804    2.120397
     47          1           0       -0.494320   -2.545061   -0.752348
     48          1           0       -2.045539   -0.199075   -0.687142
     49          1           0        1.737432   -1.680970    4.035153
     50          1           0        2.824595   -1.612140    2.763158
     51          1           0        2.699876   -2.649278   -0.227153
     52          1           0       -1.901707   -2.187062    4.376042
     53          1           0       -0.481496   -1.110767    4.414378
     54          1           0       -1.999809   -0.539155    3.661011
     55          1           0       -5.862001   -1.780928    1.736065
     56          1           0       -5.786387   -3.421467    0.912430
     57          1           0       -6.813710   -2.216417    0.323834
     58          1           0        2.432890    0.505021    2.091427
     59          1           0        1.058273    1.006919    2.793353
     60          1           0        0.264236    0.413006   -0.146174
     61          1           0        4.633098   -0.925035   -3.245143
     62          1           0        4.036755   -2.027695   -2.470172
     63          1           0       -5.938991   -1.617940   -3.422752
     64          1           0        5.391611   -0.880030   -0.178136
     65          1           0        5.764347    0.318820   -1.254141
     66          1           0        4.178844    1.641030   -3.687511
     67          1           0        3.320565    2.894933   -2.809737
     68          1           0        2.651264    2.066491   -4.331449
     69          1           0        1.106259    3.237335   -2.222680
     70          1           0       -7.205954   -3.173657   -1.347481
     71          1           0       -7.578161   -3.060477   -3.188734
     72          1           0        3.802760    2.518949    4.505830
     73          1           0       -0.145146    5.227976   -1.812607
     74          1           0       -3.994089    4.632705    0.210445
     75          1           0       -4.166988    3.534422    1.693195
     76          1           0       -3.276915    5.047294    1.503911
     77          1           0        8.372367   -1.966483   -1.687948
     78          1           0       -1.578675    7.206798   -1.651816
     79          1           0       -2.874546    6.460289   -0.384290
 ---------------------------------------------------------------------

 SCF Done:  E(RB3LYP) =  -1947.82145374     A.U. after   21 cycles

 Excitation energies and oscillator strengths:

 Excited State   1:      Singlet-A      0.8444 eV 1468.31 nm  f=0.0014  <S**2>=0.000
     155 ->156         0.70434
 This state for optimization and/or second-order correction.
 Total Energy, E(TD-HF/TD-DFT) =  -1947.79042250
 Copying the excited state density for this state as the 1-particle RhoCI density.

 The electronic state is 1-A.
 Alpha  occ. eigenvalues --  -19.21104 -19.19955 -19.15381 -19.12369 -19.11030
 Alpha  occ. eigenvalues --  -19.08127 -14.37473 -14.36924 -14.31739 -14.29803
 Alpha  occ. eigenvalues --  -10.34474 -10.32180 -10.26782 -10.26298 -10.26222
 Alpha  occ. eigenvalues --  -10.26143 -10.25483 -10.23962 -10.23726 -10.23177
 Alpha  occ. eigenvalues --  -10.23098 -10.22688 -10.22545 -10.22431 -10.22140
 Alpha  occ. eigenvalues --  -10.21840 -10.21580 -10.21158 -10.20993 -10.20625
 Alpha  occ. eigenvalues --  -10.20554 -10.20439 -10.19431 -10.18952 -10.18826
 Alpha  occ. eigenvalues --  -10.18530 -10.18530 -10.17990 -10.17801 -10.17557
 Alpha  occ. eigenvalues --  -10.17441 -10.16875 -10.16829  -1.11243  -1.10471
 Alpha  occ. eigenvalues --   -1.02911  -1.02264  -1.00772  -1.00728  -0.99590
 Alpha  occ. eigenvalues --   -0.94608  -0.92761  -0.90060  -0.84584  -0.82073
 Alpha  occ. eigenvalues --   -0.80793  -0.80496  -0.80265  -0.79414  -0.76968
 Alpha  occ. eigenvalues --   -0.76200  -0.75835  -0.75160  -0.73863  -0.72947
 Alpha  occ. eigenvalues --   -0.70751  -0.70324  -0.70159  -0.69337  -0.67199
 Alpha  occ. eigenvalues --   -0.66554  -0.64872  -0.62229  -0.61121  -0.60249
 Alpha  occ. eigenvalues --   -0.59655  -0.58955  -0.58208  -0.57574  -0.57221
 Alpha  occ. eigenvalues --   -0.55602  -0.55044  -0.54587  -0.52643  -0.52304
 Alpha  occ. eigenvalues --   -0.51806  -0.51506  -0.51338  -0.50725  -0.49432
 Alpha  occ. eigenvalues --   -0.48826  -0.48588  -0.48248  -0.48029  -0.47527
 Alpha  occ. eigenvalues --   -0.47509  -0.47280  -0.47009  -0.46365  -0.45520
 Alpha  occ. eigenvalues --   -0.45135  -0.44560  -0.44466  -0.44367  -0.43641
 Alpha  occ. eigenvalues --   -0.43421  -0.43381  -0.42948  -0.42631  -0.42174
 Alpha  occ. eigenvalues --   -0.41960  -0.41514  -0.41296  -0.41013  -0.40843
 Alpha  occ. eigenvalues --   -0.40423  -0.40332  -0.40061  -0.39980  -0.39646
 Alpha  occ. eigenvalues --   -0.39223  -0.38554  -0.38335  -0.38216  -0.37577
 Alpha  occ. eigenvalues --   -0.37393  -0.36906  -0.36711  -0.36523  -0.35617
 Alpha  occ. eigenvalues --   -0.35364  -0.35073  -0.34904  -0.34332  -0.33948
 Alpha  occ. eigenvalues --   -0.33748  -0.32786  -0.32575  -0.32116  -0.31539
 Alpha  occ. eigenvalues --   -0.30932  -0.30808  -0.29700  -0.28970  -0.28422
 Alpha  occ. eigenvalues --   -0.28018  -0.27669  -0.25404  -0.24144  -0.23956
 Alpha  occ. eigenvalues --   -0.23616  -0.22870  -0.22670  -0.21805  -0.18201
 Alpha virt. eigenvalues --   -0.12476  -0.07375  -0.03372  -0.02670  -0.01362
 Alpha virt. eigenvalues --    0.00663   0.01490   0.01745   0.02838   0.03244
 Alpha virt. eigenvalues --    0.03345   0.03613   0.03741   0.04114   0.05221

 Mulliken charges:
               1
     1  O   -0.210430
     2  O   -0.157746
     3  O   -0.262449
     4  O   -0.206270
     5  O   -0.247485
     6  O   -0.198721
     7  N   -0.100907
     8  N   -0.238636
     9  N   -0.034097
    10  N   -0.354829
    11  C   -0.018859
    12  C    0.094823
    13  C   -0.043517
    14  C   -0.110297
    15  C   -0.058055
    16  C   -0.050326
    17  C   -0.161281
    18  C    0.073697
    19  C    0.018874
    20  C   -0.018004
    21  C    0.095820
    22  C    0.130437
    23  C   -0.054318
    24  C    0.063563
    25  C    0.126375
    26  C   -0.091731
    27  C    0.093682
    28  C    0.002638
    29  C    0.158375
    30  C    0.005527
    31  C   -0.048689
    32  C    0.052266
    33  C   -0.102117
    34  C    0.137794
    35  C    0.130985
    36  C   -0.083791
    37  C    0.181875
    38  C    0.058942
    39  C   -0.217909
    40  C    0.158783
    41  C   -0.004692
    42  C    0.154792
    43  C   -0.138710
    44  H    0.110142
    45  H   -0.004807
    46  H    0.044872
    47  H    0.146991
    48  H    0.140121
    49  H    0.025273
    50  H   -0.013711
    51  H   -0.034512
    52  H    0.017355
    53  H   -0.015360
    54  H    0.038937
    55  H    0.026410
    56  H    0.019427
    57  H    0.017552
    58  H   -0.069471
    59  H    0.057508
    60  H    0.175036
    61  H   -0.016359
    62  H    0.010673
    63  H   -0.005151
    64  H    0.062771
    65  H    0.023762
    66  H    0.016408
    67  H    0.029327
    68  H    0.058976
    69  H    0.011251
    70  H   -0.003795
    71  H    0.021637
    72  H    0.197787
    73  H    0.043202
    74  H    0.009787
    75  H    0.043077
    76  H   -0.019009
    77  H    0.206555
    78  H    0.044842
    79  H    0.057120
 Sum of Mulliken charges =  -0.00000

 Dipole moment (field-independent basis, Debye):
    X=              4.8688    Y=              3.7928    Z=             -0.8027  Tot=              6.2237
 Quadrupole moment (field-independent basis, Debye-Ang):
   XX=           -227.8310   YY=           -233.4611   ZZ=           -265.7195
   XY=             12.2265   XZ=            -24.1238   YZ=             -1.0770

 Normal termination of Gaussian 16 at Fri Jul 26 13:55:45 2019.
