 Gaussian 16, Revision A.03,
 Gaussian 16:  ES64L-G16RevA.03 25-Dec-2016

 --------------------------
 # td=(NStates=1) B3LYP/SVP
 --------------------------

 --
 TD
 --
 Symbolic Z-matrix:
 Charge =  0 Multiplicity = 1

                         Standard orientation:
 ---------------------------------------------------------------------
 Center     Atomic      Atomic             Coordinates (Angstroms)
 Number     Number       Type             X           Y           Z
 ---------------------------------------------------------------------
      1          8           0       -3.127543   -1.404748   -2.957915
      2          8           0        3.205082    2.971583    3.005719
      3          8           0        3.577625    1.213916    4.510406
      4          8           0        7.660959   -1.374096   -0.723163
      5          8           0        6.778645   -2.739686   -2.161744
      6          8           0       -2.657688    1.564311    1.622054
      7          7           0       -0.190084   -2.457029    0.839481
      8          7           0       -2.529020   -1.327813   -0.724282
      9          7           0        1.116658    0.154707   -0.756759
     10          7           0       -1.024810    1.459531   -0.080822
     11          6           0       -3.226208   -1.351780    0.619626
     12          6           0       -2.567064   -2.395183    1.628034
     13          6           0       -1.194012   -2.109747    1.681676
     14          6           0       -0.527407   -1.414883    2.766206
     15          6           0        0.830664   -1.238758    2.418014
     16          6           0        1.024055   -1.760997    1.157655
     17          6           0       -4.597417   -1.919338    0.174915
     18          6           0        1.993644   -0.546372    3.111213
     19          6           0       -4.702165   -1.981215   -1.124185
     20          6           0        2.092756   -1.802219    0.188789
     21          6           0        2.067061   -0.827871   -0.792791
     22          6           0       -3.317113   -1.642551   -1.776231
     23          6           0        2.825038   -0.535657   -1.939590
     24          6           0       -1.168892   -0.715551    3.990600
     25          6           0       -5.648967   -2.016428    1.210137
     26          6           0        2.348225    0.566886   -2.586141
     27          6           0        2.008127    0.913575    2.855617
     28          6           0        1.330157    1.071900   -1.806967
     29          6           0        4.171522   -1.299218   -2.255895
     30          6           0       -5.808016   -2.462731   -1.996858
     31          6           0        5.342899   -1.033452   -1.207348
     32          6           0        3.008645    1.372033   -3.711030
     33          6           0        0.411846    2.123172   -1.889834
     34          6           0        3.027869    1.759917    3.536963
     35          6           0       -0.707096    2.345742   -1.130016
     36          6           0       -6.806027   -3.327618   -1.717978
     37          6           0        6.673111   -1.864350   -1.423822
     38          6           0       -1.619062    3.515539   -1.091223
     39          6           0       -2.441624    3.332751    0.006862
     40          6           0       -2.105415    2.064459    0.636988
     41          6           0       -1.520315    4.591536   -2.112007
     42          6           0       -3.525359    4.226721    0.619153
     43          6           0       -2.245963    5.654240   -2.145346
     44          1           0       -3.148029   -0.277492    1.047902
     45          1           0       -2.859595   -3.621259    1.353089
     46          1           0       -3.034995   -2.402895    2.580110
     47          1           0       -0.571839   -2.756740   -0.230420
     48          1           0       -1.921421   -0.537084   -0.775408
     49          1           0        2.025133   -0.593749    4.293754
     50          1           0        2.810268   -1.046344    2.832202
     51          1           0        2.688879   -2.620366    0.332257
     52          1           0       -1.757257   -1.442110    4.430223
     53          1           0       -0.313605   -0.365476    4.738722
     54          1           0       -1.964138    0.046847    3.684415
     55          1           0       -5.412022   -1.354907    2.051042
     56          1           0       -5.544386   -3.089491    1.771416
     57          1           0       -6.739570   -1.814569    0.815829
     58          1           0        2.048657    1.114829    1.641224
     59          1           0        0.994964    1.282569    2.853447
     60          1           0        0.206050    0.207478   -0.254685
     61          1           0        4.721658   -1.108457   -3.248136
     62          1           0        3.916853   -2.488002   -2.224768
     63          1           0       -5.665954   -2.134343   -2.954316
     64          1           0        5.177095   -1.240713   -0.086543
     65          1           0        5.707496    0.031218   -1.092164
     66          1           0        3.937630    0.849020   -3.942664
     67          1           0        3.160272    2.352831   -3.401635
     68          1           0        2.367510    1.170203   -4.603336
     69          1           0        0.534032    2.759384   -2.593037
     70          1           0       -6.933448   -3.961474   -0.846678
     71          1           0       -7.469022   -3.422321   -2.608826
     72          1           0        3.837889    3.402905    3.499887
     73          1           0       -0.925792    4.600404   -3.158344
     74          1           0       -4.069395    4.662029   -0.190825
     75          1           0       -4.071278    3.525103    1.249146
     76          1           0       -2.958802    5.129675    1.300144
     77          1           0        8.549971   -1.768369   -0.723671
     78          1           0       -2.025660    6.538988   -2.838493
     79          1           0       -2.968973    5.961363   -1.378176
 ---------------------------------------------------------------------

 SCF Done:  E(RB3LYP) =  -1947.82856257     A.U. after   20 cycles

 Excitation energies and oscillator strengths:

 Excited State   1:      Singlet-A      0.6072 eV 2041.91 nm  f=0.0001  <S**2>=0.000
     155 ->156         0.70437
 This state for optimization and/or second-order correction.
 Total Energy, E(TD-HF/TD-DFT) =  -1947.80624846
 Copying the excited state density for this state as the 1-particle RhoCI density.

 The electronic state is 1-A.
 Alpha  occ. eigenvalues --  -19.19492 -19.18746 -19.12837 -19.12450 -19.12021
 Alpha  occ. eigenvalues --  -19.08912 -14.36718 -14.36398 -14.33067 -14.30543
 Alpha  occ. eigenvalues --  -10.32493 -10.32020 -10.28070 -10.27072 -10.26146
 Alpha  occ. eigenvalues --  -10.25390 -10.24829 -10.24452 -10.23350 -10.22887
 Alpha  occ. eigenvalues --  -10.22851 -10.22657 -10.22544 -10.22361 -10.21968
 Alpha  occ. eigenvalues --  -10.21357 -10.21345 -10.20917 -10.20340 -10.20295
 Alpha  occ. eigenvalues --  -10.20293 -10.20032 -10.19657 -10.19621 -10.19261
 Alpha  occ. eigenvalues --  -10.19130 -10.18328 -10.18142 -10.17775 -10.17737
 Alpha  occ. eigenvalues --  -10.17445 -10.16842 -10.16381  -1.12393  -1.10963
 Alpha  occ. eigenvalues --   -1.03444  -1.02549  -1.00903  -1.00175  -1.00051
 Alpha  occ. eigenvalues --   -0.94919  -0.91953  -0.91651  -0.83681  -0.82917
 Alpha  occ. eigenvalues --   -0.81164  -0.80430  -0.80138  -0.78710  -0.77932
 Alpha  occ. eigenvalues --   -0.76696  -0.76156  -0.74809  -0.74494  -0.73622
 Alpha  occ. eigenvalues --   -0.71037  -0.70172  -0.69614  -0.68943  -0.67925
 Alpha  occ. eigenvalues --   -0.66657  -0.65311  -0.63747  -0.62789  -0.61097
 Alpha  occ. eigenvalues --   -0.60157  -0.59539  -0.58899  -0.57762  -0.57092
 Alpha  occ. eigenvalues --   -0.56119  -0.55796  -0.54066  -0.53203  -0.52558
 Alpha  occ. eigenvalues --   -0.51412  -0.50918  -0.50168  -0.49822  -0.49653
 Alpha  occ. eigenvalues --   -0.49346  -0.48953  -0.48509  -0.48326  -0.48257
 Alpha  occ. eigenvalues --   -0.47505  -0.47327  -0.46776  -0.46583  -0.46487
 Alpha  occ. eigenvalues --   -0.44919  -0.44793  -0.44484  -0.44021  -0.43900
 Alpha  occ. eigenvalues --   -0.43610  -0.43527  -0.42676  -0.41964  -0.41734
 Alpha  occ. eigenvalues --   -0.41569  -0.41355  -0.41111  -0.41073  -0.40468
 Alpha  occ. eigenvalues --   -0.40179  -0.40069  -0.39708  -0.39570  -0.39210
 Alpha  occ. eigenvalues --   -0.39153  -0.38922  -0.38162  -0.38037  -0.37850
 Alpha  occ. eigenvalues --   -0.37333  -0.37118  -0.36823  -0.36547  -0.36349
 Alpha  occ. eigenvalues --   -0.36256  -0.35602  -0.35198  -0.34933  -0.34598
 Alpha  occ. eigenvalues --   -0.34078  -0.33445  -0.32526  -0.32362  -0.31442
 Alpha  occ. eigenvalues --   -0.30473  -0.29595  -0.29419  -0.29165  -0.28739
 Alpha  occ. eigenvalues --   -0.27521  -0.27066  -0.26094  -0.25372  -0.24131
 Alpha  occ. eigenvalues --   -0.23932  -0.23008  -0.22756  -0.22171  -0.18403
 Alpha virt. eigenvalues --   -0.13504  -0.08119  -0.03100  -0.01145  -0.00031
 Alpha virt. eigenvalues --    0.01223   0.02035   0.02073   0.02609   0.03147
 Alpha virt. eigenvalues --    0.03932   0.04606   0.04735   0.05099   0.05250

 Mulliken charges:
               1
     1  O   -0.237389
     2  O   -0.112104
     3  O   -0.263788
     4  O   -0.173975
     5  O   -0.154837
     6  O   -0.229968
     7  N   -0.148131
     8  N   -0.200889
     9  N   -0.126595
    10  N   -0.388367
    11  C   -0.000071
    12  C    0.108180
    13  C   -0.052530
    14  C   -0.158344
    15  C   -0.074032
    16  C   -0.053142
    17  C   -0.145332
    18  C    0.175907
    19  C   -0.074315
    20  C   -0.066968
    21  C    0.182841
    22  C    0.151965
    23  C   -0.032390
    24  C    0.093489
    25  C    0.035179
    26  C   -0.143177
    27  C   -0.065198
    28  C    0.122918
    29  C    0.038063
    30  C    0.027669
    31  C   -0.077112
    32  C    0.163196
    33  C    0.022639
    34  C    0.176130
    35  C    0.104237
    36  C   -0.023150
    37  C    0.080172
    38  C    0.117554
    39  C   -0.218715
    40  C    0.204152
    41  C   -0.030012
    42  C    0.074187
    43  C   -0.089117
    44  H    0.102505
    45  H    0.015908
    46  H   -0.021011
    47  H    0.172059
    48  H    0.123510
    49  H    0.025616
    50  H   -0.051918
    51  H   -0.012523
    52  H   -0.025555
    53  H    0.030235
    54  H    0.042286
    55  H    0.019259
    56  H    0.033739
    57  H    0.054371
    58  H    0.019953
    59  H    0.035823
    60  H    0.195101
    61  H    0.047061
    62  H    0.056818
    63  H   -0.025535
    64  H    0.045012
    65  H    0.035331
    66  H    0.001762
    67  H    0.031903
    68  H    0.038741
    69  H   -0.141340
    70  H    0.020633
    71  H    0.026031
    72  H    0.148824
    73  H    0.043060
    74  H    0.032846
    75  H    0.037398
    76  H    0.061970
    77  H    0.193257
    78  H    0.035689
    79  H    0.012347
 Sum of Mulliken charges =  -0.00000

 Dipole moment (field-independent basis, Debye):
    X=              4.5063    Y=              4.2044    Z=             -1.6372  Tot=              6.3768
 Quadrupole moment (field-independent basis, Debye-Ang):
   XX=           -225.1600   YY=           -233.8956   ZZ=           -272.3455
   XY=              4.9197   XZ=            -17.2541   YZ=            -13.9580

 Normal termination of Gaussian 16 at Sat Jul 27 04:45:51 2019.
