 Gaussian 16, Revision A.03,
 Gaussian 16:  ES64L-G16RevA.03 25-Dec-2016

 --------------------------
 # td=(NStates=1) B3LYP/SVP
 --------------------------

 --
 TD
 --
 Symbolic Z-matrix:
 Charge =  0 Multiplicity = 1

                         Standard orientation:
 ---------------------------------------------------------------------
 Center     Atomic      Atomic             Coordinates (Angstroms)
 Number     Number       Type             X           Y           Z
 ---------------------------------------------------------------------
      1          8           0        5.464672   -0.108610   -3.369625
      2          8           0       -2.985732   -2.839941    3.239559
      3          8           0       -3.381791   -0.707445    2.875753
      4          8           0       -1.738638    7.100105    1.476773
      5          8           0       -0.847038    7.059417   -0.493816
      6          8           0       -1.636223   -4.074967    0.083894
      7          7           0        2.419295    1.090227    0.548062
      8          7           0        4.448357   -0.519838   -1.254498
      9          7           0       -1.880221    0.661127   -0.334115
     10          7           0       -2.549363   -1.991789   -0.491125
     11          6           0        4.841911   -1.165814   -0.066645
     12          6           0        4.327791   -0.280765    1.194986
     13          6           0        2.934685    0.096010    1.315464
     14          6           0        1.957677   -0.499435    2.133785
     15          6           0        0.741421    0.079579    1.865900
     16          6           0        1.000311    1.080508    0.795252
     17          6           0        6.351385   -1.287921   -0.204983
     18          6           0       -0.485871   -0.110298    2.597098
     19          6           0        6.756312   -0.797825   -1.438241
     20          6           0        0.129903    1.957587    0.103753
     21          6           0       -1.294051    1.882012   -0.247447
     22          6           0        5.559895   -0.444013   -2.163547
     23          6           0       -2.100055    2.898149   -0.922617
     24          6           0        2.205051   -1.410666    3.351712
     25          6           0        7.135476   -1.849063    1.120195
     26          6           0       -3.209619    2.226799   -1.328030
     27          6           0       -1.095705   -1.590180    2.596106
     28          6           0       -3.060647    0.769184   -0.918323
     29          6           0       -1.806393    4.335724   -1.081695
     30          6           0        8.029497   -0.755252   -2.024719
     31          6           0       -1.974941    5.028713    0.197111
     32          6           0       -4.297027    2.790409   -2.111353
     33          6           0       -3.995327   -0.195009   -1.247432
     34          6           0       -2.612703   -1.606023    2.873458
     35          6           0       -3.678446   -1.545846   -1.024295
     36          6           0        9.274715   -0.731585   -1.397368
     37          6           0       -1.475840    6.495294    0.287824
     38          6           0       -4.548054   -2.771761   -1.434749
     39          6           0       -3.884530   -3.849018   -0.948364
     40          6           0       -2.600976   -3.456326   -0.522864
     41          6           0       -5.836499   -2.615500   -1.947975
     42          6           0       -4.117615   -5.335709   -1.097014
     43          6           0       -6.686022   -3.512861   -2.457114
     44          1           0        4.541081   -2.126563    0.171938
     45          1           0        4.888117    0.783877    1.080463
     46          1           0        4.729526   -0.640863    2.156541
     47          1           0        2.960015    1.358310   -0.270108
     48          1           0        3.502665   -0.670214   -1.642293
     49          1           0       -0.252507    0.302823    3.690643
     50          1           0       -1.164889    0.574313    2.291423
     51          1           0        0.521509    2.918246   -0.229679
     52          1           0        3.340955   -1.026524    3.761962
     53          1           0        1.573274   -1.294632    4.198271
     54          1           0        2.285866   -2.613842    2.917301
     55          1           0        6.665300   -2.719800    1.600223
     56          1           0        7.561663   -1.199879    1.880483
     57          1           0        8.126116   -2.341696    0.759857
     58          1           0       -1.078758   -2.036933    1.625475
     59          1           0       -0.445443   -2.034273    3.233743
     60          1           0       -1.220722   -0.317173   -0.134073
     61          1           0       -2.301013    4.940593   -1.949210
     62          1           0       -0.807504    4.459901   -1.252607
     63          1           0        7.952402   -0.560050   -2.955174
     64          1           0       -1.649508    4.510820    1.196162
     65          1           0       -3.082845    5.002624    0.414434
     66          1           0       -4.341448    3.912415   -2.355210
     67          1           0       -5.213377    2.734925   -1.435574
     68          1           0       -4.436545    2.218629   -3.096511
     69          1           0       -4.778296   -0.110951   -2.105741
     70          1           0        9.329748   -0.932078   -0.346706
     71          1           0        9.986123   -0.795999   -2.116127
     72          1           0       -3.876237   -2.773990    3.254861
     73          1           0       -6.336277   -1.660242   -1.868495
     74          1           0       -4.969007   -5.599228   -0.471597
     75          1           0       -4.439360   -5.652905   -2.161442
     76          1           0       -3.166207   -5.877345   -0.672210
     77          1           0       -1.382740    8.077238    1.317130
     78          1           0       -7.682652   -3.240353   -2.769257
     79          1           0       -6.321740   -4.650332   -2.584700
 ---------------------------------------------------------------------

 SCF Done:  E(RB3LYP) =  -1947.82488432     A.U. after   20 cycles

 Excitation energies and oscillator strengths:

 Excited State   1:      Singlet-A      1.8259 eV  679.04 nm  f=0.4544  <S**2>=0.000
     155 ->156         0.69920
     155 <-156        -0.12909
 This state for optimization and/or second-order correction.
 Total Energy, E(TD-HF/TD-DFT) =  -1947.75778478
 Copying the excited state density for this state as the 1-particle RhoCI density.

 The electronic state is 1-A.
 Alpha  occ. eigenvalues --  -19.17745 -19.15955 -19.13263 -19.11579 -19.11410
 Alpha  occ. eigenvalues --  -19.09870 -14.39395 -14.37912 -14.36692 -14.28168
 Alpha  occ. eigenvalues --  -10.31830 -10.30627 -10.29937 -10.25836 -10.25314
 Alpha  occ. eigenvalues --  -10.24638 -10.24483 -10.24380 -10.24249 -10.23658
 Alpha  occ. eigenvalues --  -10.23059 -10.22990 -10.22615 -10.22013 -10.22012
 Alpha  occ. eigenvalues --  -10.21725 -10.21390 -10.20737 -10.20508 -10.20483
 Alpha  occ. eigenvalues --  -10.20324 -10.20301 -10.20277 -10.20065 -10.19934
 Alpha  occ. eigenvalues --  -10.19595 -10.19496 -10.19435 -10.19236 -10.19182
 Alpha  occ. eigenvalues --  -10.18996 -10.18767 -10.18432  -1.11395  -1.10575
 Alpha  occ. eigenvalues --   -1.01944  -1.00969  -1.00765  -0.99247  -0.98682
 Alpha  occ. eigenvalues --   -0.97218  -0.94986  -0.90101  -0.83749  -0.83247
 Alpha  occ. eigenvalues --   -0.82793  -0.81063  -0.80538  -0.79286  -0.77992
 Alpha  occ. eigenvalues --   -0.77211  -0.76485  -0.75865  -0.74445  -0.72590
 Alpha  occ. eigenvalues --   -0.71545  -0.70561  -0.69087  -0.68709  -0.68443
 Alpha  occ. eigenvalues --   -0.67331  -0.66516  -0.63985  -0.63279  -0.60711
 Alpha  occ. eigenvalues --   -0.59998  -0.59200  -0.58088  -0.57842  -0.56965
 Alpha  occ. eigenvalues --   -0.56188  -0.55555  -0.55436  -0.55007  -0.53944
 Alpha  occ. eigenvalues --   -0.53112  -0.51959  -0.50991  -0.50359  -0.50176
 Alpha  occ. eigenvalues --   -0.49827  -0.49332  -0.48451  -0.48017  -0.47710
 Alpha  occ. eigenvalues --   -0.47334  -0.47003  -0.46791  -0.46131  -0.45703
 Alpha  occ. eigenvalues --   -0.45466  -0.44865  -0.44269  -0.44087  -0.43681
 Alpha  occ. eigenvalues --   -0.43514  -0.43364  -0.42950  -0.42786  -0.42483
 Alpha  occ. eigenvalues --   -0.42238  -0.42050  -0.41999  -0.41535  -0.41175
 Alpha  occ. eigenvalues --   -0.40762  -0.40475  -0.40435  -0.39968  -0.39743
 Alpha  occ. eigenvalues --   -0.39470  -0.38983  -0.38789  -0.38710  -0.38551
 Alpha  occ. eigenvalues --   -0.38024  -0.37752  -0.37112  -0.37021  -0.36915
 Alpha  occ. eigenvalues --   -0.36191  -0.36105  -0.34950  -0.34801  -0.34551
 Alpha  occ. eigenvalues --   -0.34135  -0.33218  -0.32837  -0.32801  -0.32520
 Alpha  occ. eigenvalues --   -0.31539  -0.31040  -0.28982  -0.28389  -0.27706
 Alpha  occ. eigenvalues --   -0.27333  -0.26629  -0.26047  -0.25828  -0.25613
 Alpha  occ. eigenvalues --   -0.24763  -0.23996  -0.23435  -0.22109  -0.17711
 Alpha virt. eigenvalues --   -0.10621  -0.08115  -0.06949  -0.01451  -0.00761
 Alpha virt. eigenvalues --    0.00521   0.01120   0.02136   0.02511   0.03238
 Alpha virt. eigenvalues --    0.03629   0.03943   0.04147   0.04730   0.05076

 Mulliken charges:
               1
     1  O   -0.246334
     2  O   -0.119853
     3  O   -0.201786
     4  O   -0.239409
     5  O   -0.167765
     6  O   -0.279732
     7  N   -0.067155
     8  N   -0.217009
     9  N   -0.088605
    10  N   -0.307212
    11  C    0.149702
    12  C    0.098198
    13  C   -0.083204
    14  C   -0.092647
    15  C   -0.094847
    16  C    0.079238
    17  C   -0.132421
    18  C    0.093554
    19  C   -0.019702
    20  C   -0.085261
    21  C    0.007366
    22  C    0.171941
    23  C   -0.074158
    24  C   -0.014999
    25  C    0.022624
    26  C   -0.141822
    27  C    0.070562
    28  C    0.163564
    29  C    0.214350
    30  C    0.007564
    31  C   -0.102696
    32  C    0.037857
    33  C   -0.160699
    34  C    0.110830
    35  C    0.017459
    36  C    0.072994
    37  C    0.124015
    38  C    0.113406
    39  C   -0.181420
    40  C    0.181551
    41  C   -0.064680
    42  C    0.050113
    43  C   -0.051363
    44  H    0.001400
    45  H    0.009132
    46  H   -0.002853
    47  H    0.128631
    48  H    0.143956
    49  H    0.023702
    50  H   -0.039499
    51  H   -0.012019
    52  H    0.033188
    53  H    0.036617
    54  H    0.065746
    55  H    0.030484
    56  H    0.050808
    57  H    0.030825
    58  H    0.056225
    59  H   -0.008983
    60  H    0.241685
    61  H    0.037245
    62  H   -0.036339
    63  H   -0.075801
    64  H    0.064309
    65  H    0.027528
    66  H    0.022853
    67  H    0.033910
    68  H    0.046161
    69  H    0.023896
    70  H    0.009059
    71  H    0.010733
    72  H    0.120897
    73  H   -0.005799
    74  H    0.013052
    75  H    0.044579
    76  H    0.055304
    77  H    0.209673
    78  H    0.022738
    79  H    0.034852
 Sum of Mulliken charges =  -0.00000

 Dipole moment (field-independent basis, Debye):
    X=              1.7915    Y=              1.7749    Z=              2.3651  Tot=              3.4574
 Quadrupole moment (field-independent basis, Debye-Ang):
   XX=           -214.8098   YY=           -253.7934   ZZ=           -261.7187
   XY=            -13.5857   XZ=             35.1608   YZ=              2.3740

 Normal termination of Gaussian 16 at Tue Sep 17 11:06:22 2019.
