 Gaussian 16, Revision A.03,
 Gaussian 16:  ES64L-G16RevA.03 25-Dec-2016

 --------------------------
 # td=(NStates=1) B3LYP/SVP
 --------------------------

 --
 TD
 --
 Symbolic Z-matrix:
 Charge =  0 Multiplicity = 1

                         Standard orientation:
 ---------------------------------------------------------------------
 Center     Atomic      Atomic             Coordinates (Angstroms)
 Number     Number       Type             X           Y           Z
 ---------------------------------------------------------------------
      1          8           0       -3.164189   -1.346228   -2.876257
      2          8           0        3.013254    3.209270    3.193663
      3          8           0        3.758454    1.312226    4.242286
      4          8           0        7.509326   -1.850303   -0.646727
      5          8           0        6.379484   -3.108484   -2.105315
      6          8           0       -2.698304    1.727292    1.431368
      7          7           0       -0.210488   -2.375451    0.941159
      8          7           0       -2.659897   -1.136555   -0.531138
      9          7           0        1.112763    0.180118   -0.687958
     10          7           0       -1.010480    1.582002   -0.053565
     11          6           0       -3.372680   -1.274588    0.717487
     12          6           0       -2.623415   -2.325076    1.600544
     13          6           0       -1.158568   -2.073012    1.882401
     14          6           0       -0.519386   -1.223219    2.836189
     15          6           0        0.826598   -1.094394    2.517508
     16          6           0        1.034625   -1.864301    1.269578
     17          6           0       -4.651800   -1.960443    0.258566
     18          6           0        1.894713   -0.357012    3.231001
     19          6           0       -4.694604   -2.189951   -1.081922
     20          6           0        2.127416   -1.801726    0.310286
     21          6           0        2.045666   -0.887359   -0.693477
     22          6           0       -3.439557   -1.537763   -1.708490
     23          6           0        2.985136   -0.583623   -1.788565
     24          6           0       -1.239887   -0.460459    3.934101
     25          6           0       -5.750433   -2.441895    1.253060
     26          6           0        2.414346    0.530933   -2.475269
     27          6           0        1.964168    1.139989    2.833729
     28          6           0        1.373423    0.997671   -1.741467
     29          6           0        4.148030   -1.481519   -2.148143
     30          6           0       -5.680147   -2.617612   -1.967103
     31          6           0        5.408495   -1.137014   -1.391479
     32          6           0        3.066991    1.193426   -3.652157
     33          6           0        0.469559    2.009071   -1.984825
     34          6           0        2.986730    1.963336    3.496546
     35          6           0       -0.552655    2.426065   -1.163686
     36          6           0       -6.537516   -3.542539   -1.717427
     37          6           0        6.461908   -2.180006   -1.448102
     38          6           0       -1.487432    3.586217   -1.310438
     39          6           0       -2.476861    3.416184   -0.329684
     40          6           0       -2.076703    2.211278    0.518375
     41          6           0       -1.338228    4.571085   -2.335194
     42          6           0       -3.439444    4.393122    0.263109
     43          6           0       -1.842023    5.796170   -2.377992
     44          1           0       -3.513851   -0.271622    1.084522
     45          1           0       -2.942004   -3.458996    1.211440
     46          1           0       -3.065591   -2.585759    2.647624
     47          1           0       -0.617626   -2.594754   -0.009659
     48          1           0       -2.122628   -0.328111   -0.450781
     49          1           0        1.589191   -0.146981    4.257862
     50          1           0        2.855873   -0.868759    3.065384
     51          1           0        2.912776   -2.711795    0.316466
     52          1           0       -2.202406   -0.890202    4.455794
     53          1           0       -0.516950   -0.097564    4.633200
     54          1           0       -1.775071    0.319859    3.409175
     55          1           0       -5.723740   -1.971705    2.365987
     56          1           0       -5.217690   -3.560744    1.609052
     57          1           0       -6.573869   -2.449810    0.836530
     58          1           0        2.348287    1.201444    1.715246
     59          1           0        1.004877    1.665441    2.810092
     60          1           0        0.271424    0.477911    0.054991
     61          1           0        4.468965   -1.331455   -3.233108
     62          1           0        3.961998   -2.439238   -1.966547
     63          1           0       -5.325853   -2.287565   -2.882841
     64          1           0        5.085389   -1.136860   -0.378980
     65          1           0        6.010328   -0.081463   -1.597323
     66          1           0        3.686610    0.350875   -4.045608
     67          1           0        3.642689    2.115345   -3.277795
     68          1           0        2.148563    1.690872   -4.352592
     69          1           0        0.679260    2.886453   -2.768270
     70          1           0       -6.875505   -4.190775   -0.748145
     71          1           0       -7.263589   -3.977781   -2.491372
     72          1           0        3.894845    3.450999    3.491303
     73          1           0       -0.652502    4.440923   -3.046700
     74          1           0       -4.106837    4.559902   -0.487519
     75          1           0       -3.944217    4.012391    1.131850
     76          1           0       -3.006848    5.299085    0.680798
     77          1           0        8.112835   -2.523952   -0.606567
     78          1           0       -1.656984    6.692607   -3.041368
     79          1           0       -2.536412    6.234589   -1.626131
 ---------------------------------------------------------------------

 SCF Done:  E(RB3LYP) =  -1947.78869231     A.U. after   19 cycles

 Excitation energies and oscillator strengths:

 Excited State   1:      Singlet-A      0.8827 eV 1404.66 nm  f=0.0023  <S**2>=0.000
     155 ->156         0.70372
 This state for optimization and/or second-order correction.
 Total Energy, E(TD-HF/TD-DFT) =  -1947.75625503
 Copying the excited state density for this state as the 1-particle RhoCI density.

 The electronic state is 1-A.
 Alpha  occ. eigenvalues --  -19.20495 -19.18334 -19.14340 -19.11049 -19.10924
 Alpha  occ. eigenvalues --  -19.10476 -14.36806 -14.36769 -14.32006 -14.30369
 Alpha  occ. eigenvalues --  -10.32618 -10.31326 -10.28197 -10.26910 -10.25696
 Alpha  occ. eigenvalues --  -10.25690 -10.25253 -10.24148 -10.23759 -10.23251
 Alpha  occ. eigenvalues --  -10.22245 -10.22167 -10.21929 -10.21913 -10.21821
 Alpha  occ. eigenvalues --  -10.21325 -10.21280 -10.21184 -10.21153 -10.20746
 Alpha  occ. eigenvalues --  -10.20745 -10.20603 -10.20261 -10.20061 -10.19654
 Alpha  occ. eigenvalues --  -10.19386 -10.18638 -10.18176 -10.18157 -10.17701
 Alpha  occ. eigenvalues --  -10.17594 -10.17267 -10.17082  -1.13057  -1.13020
 Alpha  occ. eigenvalues --   -1.04992  -1.03017  -1.01556  -0.99083  -0.99039
 Alpha  occ. eigenvalues --   -0.95836  -0.91757  -0.90814  -0.84190  -0.82858
 Alpha  occ. eigenvalues --   -0.81623  -0.81490  -0.80116  -0.79808  -0.77993
 Alpha  occ. eigenvalues --   -0.76610  -0.76071  -0.75801  -0.74227  -0.72759
 Alpha  occ. eigenvalues --   -0.71085  -0.70240  -0.69749  -0.69479  -0.67940
 Alpha  occ. eigenvalues --   -0.66868  -0.65928  -0.62862  -0.62124  -0.61260
 Alpha  occ. eigenvalues --   -0.60623  -0.60365  -0.58522  -0.57483  -0.56378
 Alpha  occ. eigenvalues --   -0.55469  -0.54959  -0.54486  -0.53100  -0.52620
 Alpha  occ. eigenvalues --   -0.52331  -0.51459  -0.51254  -0.50586  -0.50166
 Alpha  occ. eigenvalues --   -0.49713  -0.49554  -0.49111  -0.48763  -0.48406
 Alpha  occ. eigenvalues --   -0.47888  -0.47329  -0.47152  -0.46361  -0.46270
 Alpha  occ. eigenvalues --   -0.45888  -0.45535  -0.44824  -0.44299  -0.44224
 Alpha  occ. eigenvalues --   -0.43766  -0.43374  -0.43070  -0.42828  -0.42433
 Alpha  occ. eigenvalues --   -0.41840  -0.41665  -0.41510  -0.40994  -0.40819
 Alpha  occ. eigenvalues --   -0.40617  -0.40300  -0.39723  -0.39551  -0.39233
 Alpha  occ. eigenvalues --   -0.39064  -0.38754  -0.38621  -0.38155  -0.38036
 Alpha  occ. eigenvalues --   -0.37680  -0.37569  -0.37120  -0.36585  -0.36105
 Alpha  occ. eigenvalues --   -0.35820  -0.35674  -0.35115  -0.34868  -0.34799
 Alpha  occ. eigenvalues --   -0.33831  -0.33323  -0.32731  -0.32258  -0.31746
 Alpha  occ. eigenvalues --   -0.31458  -0.31282  -0.29961  -0.29045  -0.28585
 Alpha  occ. eigenvalues --   -0.26694  -0.26234  -0.25684  -0.25239  -0.24446
 Alpha  occ. eigenvalues --   -0.23461  -0.22802  -0.22505  -0.22327  -0.18983
 Alpha virt. eigenvalues --   -0.13079  -0.07832  -0.03929  -0.01785   0.00334
 Alpha virt. eigenvalues --    0.00518   0.00721   0.02065   0.02171   0.03317
 Alpha virt. eigenvalues --    0.03809   0.04187   0.04788   0.05076   0.05680

 Mulliken charges:
               1
     1  O   -0.212875
     2  O   -0.093161
     3  O   -0.290820
     4  O   -0.161183
     5  O   -0.141062
     6  O   -0.209464
     7  N   -0.076129
     8  N   -0.256535
     9  N   -0.188483
    10  N   -0.373907
    11  C    0.175329
    12  C    0.028471
    13  C   -0.070631
    14  C   -0.106982
    15  C   -0.122335
    16  C   -0.022576
    17  C   -0.233653
    18  C    0.201366
    19  C   -0.084250
    20  C   -0.128466
    21  C    0.148119
    22  C    0.196950
    23  C   -0.078735
    24  C    0.090388
    25  C    0.104580
    26  C   -0.136289
    27  C   -0.077545
    28  C    0.170399
    29  C    0.196841
    30  C    0.101899
    31  C   -0.068542
    32  C    0.020813
    33  C   -0.120381
    34  C    0.115363
    35  C    0.075015
    36  C   -0.107104
    37  C    0.087817
    38  C    0.115620
    39  C   -0.221276
    40  C    0.172792
    41  C    0.048781
    42  C    0.141868
    43  C   -0.079349
    44  H    0.044353
    45  H    0.019881
    46  H    0.016321
    47  H    0.143253
    48  H    0.111446
    49  H   -0.004761
    50  H    0.007246
    51  H    0.055281
    52  H    0.005427
    53  H   -0.003527
    54  H    0.026110
    55  H    0.039706
    56  H    0.043294
    57  H   -0.029562
    58  H    0.032718
    59  H    0.038113
    60  H    0.257835
    61  H    0.025521
    62  H   -0.026484
    63  H   -0.014972
    64  H    0.022307
    65  H    0.069373
    66  H    0.042014
    67  H    0.056917
    68  H    0.059754
    69  H    0.013566
    70  H    0.045438
    71  H    0.020252
    72  H    0.172428
    73  H   -0.062219
    74  H    0.005735
    75  H    0.009252
    76  H    0.031732
    77  H    0.143741
    78  H    0.036383
    79  H    0.015452
 Sum of Mulliken charges =  -0.00000

 Dipole moment (field-independent basis, Debye):
    X=              3.9653    Y=              3.3442    Z=             -1.4785  Tot=              5.3939
 Quadrupole moment (field-independent basis, Debye-Ang):
   XX=           -229.6959   YY=           -230.0997   ZZ=           -273.2296
   XY=              4.7629   XZ=            -20.1706   YZ=            -11.1722

 Normal termination of Gaussian 16 at Wed Jul 24 01:51:54 2019.
