 Gaussian 16, Revision A.03,
 Gaussian 16:  ES64L-G16RevA.03 25-Dec-2016

 --------------------------
 # td=(NStates=1) B3LYP/SVP
 --------------------------

 --
 TD
 --
 Symbolic Z-matrix:
 Charge =  0 Multiplicity = 1

                         Standard orientation:
 ---------------------------------------------------------------------
 Center     Atomic      Atomic             Coordinates (Angstroms)
 Number     Number       Type             X           Y           Z
 ---------------------------------------------------------------------
      1          8           0       -3.323210   -1.037882   -2.977616
      2          8           0        3.438208    2.826270    3.180204
      3          8           0        3.746003    1.028600    4.497688
      4          8           0        7.680074   -1.563614   -0.830987
      5          8           0        6.686880   -2.532460   -2.685413
      6          8           0       -2.647121    1.402980    1.679884
      7          7           0       -0.197467   -2.578085    0.653939
      8          7           0       -2.749828   -1.019673   -0.662777
      9          7           0        1.222640    0.171391   -0.725369
     10          7           0       -1.137475    1.377760   -0.052350
     11          6           0       -3.433432   -1.359364    0.543869
     12          6           0       -2.551537   -2.566315    1.433984
     13          6           0       -1.108321   -2.278168    1.576559
     14          6           0       -0.498651   -1.598412    2.713962
     15          6           0        0.759116   -1.470780    2.404053
     16          6           0        0.990547   -1.926702    1.011469
     17          6           0       -4.709759   -1.817032    0.108538
     18          6           0        1.904272   -0.792910    3.053614
     19          6           0       -4.842178   -1.892480   -1.292375
     20          6           0        2.174842   -1.794524    0.244688
     21          6           0        2.198924   -0.819654   -0.749016
     22          6           0       -3.530005   -1.315907   -1.828208
     23          6           0        2.995651   -0.416876   -1.841086
     24          6           0       -1.174879   -1.163389    3.958901
     25          6           0       -5.719367   -2.192695    1.101697
     26          6           0        2.490314    0.765058   -2.398076
     27          6           0        2.094378    0.800551    2.704785
     28          6           0        1.319827    1.179551   -1.721910
     29          6           0        4.272622   -1.154664   -2.208736
     30          6           0       -5.853172   -2.356975   -2.267058
     31          6           0        5.462470   -0.983058   -1.246834
     32          6           0        3.062581    1.539553   -3.537896
     33          6           0        0.301607    2.245709   -1.835937
     34          6           0        3.150366    1.537988    3.582481
     35          6           0       -0.732031    2.349141   -0.972095
     36          6           0       -7.065869   -2.860710   -1.920542
     37          6           0        6.649705   -1.805522   -1.613361
     38          6           0       -1.573719    3.583956   -0.859284
     39          6           0       -2.363269    3.345166    0.305937
     40          6           0       -2.138960    1.911705    0.692612
     41          6           0       -1.443992    4.755377   -1.638006
     42          6           0       -3.442397    4.114346    0.822869
     43          6           0       -2.144090    5.909135   -1.759615
     44          1           0       -3.652413   -0.402055    1.133424
     45          1           0       -2.530315   -3.662419    0.746623
     46          1           0       -3.046112   -2.766798    2.351014
     47          1           0       -0.374014   -2.977544   -0.273661
     48          1           0       -2.093749   -0.193353   -0.719632
     49          1           0        1.872651   -0.885073    4.174651
     50          1           0        2.704139   -1.246942    2.643723
     51          1           0        2.869530   -2.740836    0.079409
     52          1           0       -1.923748   -2.000379    4.061497
     53          1           0       -0.500790   -1.187405    4.870179
     54          1           0       -1.865982   -0.367607    3.757797
     55          1           0       -5.563767   -1.660077    2.006261
     56          1           0       -5.789362   -3.234697    1.157930
     57          1           0       -6.750143   -1.789068    0.752996
     58          1           0        2.403744    1.036876    1.651449
     59          1           0        1.226457    1.517830    2.945626
     60          1           0        0.419647    0.478867   -0.128772
     61          1           0        4.605619   -0.991106   -3.153051
     62          1           0        4.040504   -2.187023   -2.033416
     63          1           0       -5.644311   -2.092769   -3.411252
     64          1           0        5.297152   -1.223620   -0.115202
     65          1           0        5.722167    0.066215   -1.325593
     66          1           0        4.007823    1.190709   -3.981402
     67          1           0        3.286688    2.488580   -3.344631
     68          1           0        2.273011    1.589864   -4.383036
     69          1           0        0.702357    3.028756   -2.613215
     70          1           0       -7.230262   -3.246166   -0.828879
     71          1           0       -7.882061   -3.202091   -2.739181
     72          1           0        4.161844    3.137308    3.809210
     73          1           0       -0.734136    4.600312   -2.521971
     74          1           0       -4.307164    4.224664    0.158092
     75          1           0       -3.983186    3.536678    1.699437
     76          1           0       -3.037381    4.970958    1.365190
     77          1           0        8.383469   -2.176821   -1.055428
     78          1           0       -1.794495    6.710104   -2.473119
     79          1           0       -2.894745    6.178658   -1.087164
 ---------------------------------------------------------------------

 SCF Done:  E(RB3LYP) =  -1947.86399514     A.U. after   24 cycles

 Excitation energies and oscillator strengths:

 Excited State   1:      Singlet-A      0.2630 eV 4714.88 nm  f=0.0000  <S**2>=0.000
     155 ->156         0.70336
 This state for optimization and/or second-order correction.
 Total Energy, E(TD-HF/TD-DFT) =  -1947.85433139
 Copying the excited state density for this state as the 1-particle RhoCI density.

 The electronic state is 1-A.
 Alpha  occ. eigenvalues --  -19.21402 -19.17820 -19.13540 -19.12215 -19.11426
 Alpha  occ. eigenvalues --  -19.08278 -14.38461 -14.37059 -14.31390 -14.30940
 Alpha  occ. eigenvalues --  -10.34128 -10.31601 -10.27621 -10.27432 -10.26445
 Alpha  occ. eigenvalues --  -10.25950 -10.25650 -10.24591 -10.23369 -10.23268
 Alpha  occ. eigenvalues --  -10.22926 -10.22905 -10.21999 -10.21538 -10.21464
 Alpha  occ. eigenvalues --  -10.21459 -10.21138 -10.21122 -10.21024 -10.20831
 Alpha  occ. eigenvalues --  -10.20652 -10.20497 -10.20254 -10.19596 -10.19382
 Alpha  occ. eigenvalues --  -10.19346 -10.19327 -10.19154 -10.18147 -10.18093
 Alpha  occ. eigenvalues --  -10.17913 -10.16852 -10.16345  -1.12358  -1.08334
 Alpha  occ. eigenvalues --   -1.02793  -1.00647  -0.99564  -0.99430  -0.98791
 Alpha  occ. eigenvalues --   -0.97598  -0.92942  -0.90930  -0.83966  -0.83196
 Alpha  occ. eigenvalues --   -0.81467  -0.81064  -0.79878  -0.79162  -0.78692
 Alpha  occ. eigenvalues --   -0.76831  -0.75765  -0.75149  -0.74771  -0.73201
 Alpha  occ. eigenvalues --   -0.71032  -0.70605  -0.70113  -0.68604  -0.68429
 Alpha  occ. eigenvalues --   -0.67480  -0.65882  -0.63675  -0.62674  -0.61557
 Alpha  occ. eigenvalues --   -0.59698  -0.58518  -0.57827  -0.57232  -0.57023
 Alpha  occ. eigenvalues --   -0.56901  -0.54597  -0.53701  -0.53100  -0.52452
 Alpha  occ. eigenvalues --   -0.52183  -0.51708  -0.50932  -0.50449  -0.49980
 Alpha  occ. eigenvalues --   -0.49586  -0.48682  -0.48067  -0.47615  -0.47399
 Alpha  occ. eigenvalues --   -0.47080  -0.46741  -0.46540  -0.46242  -0.45733
 Alpha  occ. eigenvalues --   -0.45477  -0.45070  -0.44827  -0.44075  -0.43911
 Alpha  occ. eigenvalues --   -0.43702  -0.43223  -0.42946  -0.42513  -0.42404
 Alpha  occ. eigenvalues --   -0.42047  -0.41858  -0.41465  -0.41067  -0.40893
 Alpha  occ. eigenvalues --   -0.40813  -0.40252  -0.40093  -0.39689  -0.39630
 Alpha  occ. eigenvalues --   -0.39478  -0.39097  -0.38601  -0.38324  -0.37906
 Alpha  occ. eigenvalues --   -0.37575  -0.37395  -0.37349  -0.37149  -0.36430
 Alpha  occ. eigenvalues --   -0.36376  -0.36321  -0.36127  -0.35162  -0.34329
 Alpha  occ. eigenvalues --   -0.33918  -0.32951  -0.32726  -0.32119  -0.31987
 Alpha  occ. eigenvalues --   -0.31791  -0.29422  -0.29270  -0.29039  -0.28705
 Alpha  occ. eigenvalues --   -0.27352  -0.26789  -0.25532  -0.24572  -0.24009
 Alpha  occ. eigenvalues --   -0.23353  -0.22872  -0.22599  -0.21386  -0.17945
 Alpha virt. eigenvalues --   -0.14103  -0.08619  -0.04119  -0.02934  -0.02212
 Alpha virt. eigenvalues --    0.00165   0.01248   0.02385   0.03008   0.03374
 Alpha virt. eigenvalues --    0.03717   0.04256   0.04475   0.05042   0.05235

 Mulliken charges:
               1
     1  O   -0.218830
     2  O   -0.232061
     3  O   -0.225281
     4  O   -0.127324
     5  O   -0.305665
     6  O   -0.219641
     7  N   -0.003318
     8  N   -0.271583
     9  N   -0.153411
    10  N   -0.328598
    11  C    0.127133
    12  C    0.107091
    13  C   -0.094775
    14  C   -0.125859
    15  C   -0.107304
    16  C   -0.029791
    17  C   -0.235339
    18  C    0.208771
    19  C   -0.054975
    20  C   -0.127468
    21  C    0.141352
    22  C    0.136993
    23  C   -0.079077
    24  C    0.147467
    25  C    0.125411
    26  C   -0.113174
    27  C   -0.048222
    28  C    0.021842
    29  C    0.203498
    30  C   -0.017988
    31  C   -0.040765
    32  C    0.120972
    33  C   -0.093378
    34  C    0.118196
    35  C    0.184309
    36  C   -0.109792
    37  C    0.150015
    38  C    0.076201
    39  C   -0.201202
    40  C    0.171810
    41  C   -0.055769
    42  C    0.062913
    43  C   -0.021522
    44  H    0.067397
    45  H    0.005435
    46  H   -0.013685
    47  H    0.126934
    48  H    0.155400
    49  H    0.018066
    50  H   -0.037546
    51  H    0.035820
    52  H   -0.015196
    53  H    0.027551
    54  H    0.020342
    55  H   -0.002437
    56  H    0.027300
    57  H    0.035572
    58  H    0.039604
    59  H    0.055657
    60  H    0.183240
    61  H   -0.012273
    62  H   -0.001125
    63  H    0.043697
    64  H    0.060975
    65  H    0.038028
    66  H    0.012314
    67  H   -0.009485
    68  H    0.043862
    69  H    0.029812
    70  H    0.031126
    71  H    0.043596
    72  H    0.194474
    73  H    0.002530
    74  H    0.047890
    75  H    0.024930
    76  H    0.030716
    77  H    0.186554
    78  H    0.038570
    79  H    0.002488
 Sum of Mulliken charges =  -0.00000

 Dipole moment (field-independent basis, Debye):
    X=              5.0074    Y=              2.6557    Z=             -0.0029  Tot=              5.6680
 Quadrupole moment (field-independent basis, Debye-Ang):
   XX=           -233.3393   YY=           -233.7985   ZZ=           -274.0478
   XY=              2.0684   XZ=            -17.6613   YZ=            -13.5450

 Normal termination of Gaussian 16 at Wed Jul 24 15:10:52 2019.
