 Gaussian 16, Revision A.03,
 Gaussian 16:  ES64L-G16RevA.03 25-Dec-2016

 --------------------------
 # td=(NStates=1) B3LYP/SVP
 --------------------------

 --
 TD
 --
 Symbolic Z-matrix:
 Charge =  0 Multiplicity = 1

                         Standard orientation:
 ---------------------------------------------------------------------
 Center     Atomic      Atomic             Coordinates (Angstroms)
 Number     Number       Type             X           Y           Z
 ---------------------------------------------------------------------
      1          8           0        5.269748    0.065813   -3.282076
      2          8           0       -2.931342   -3.000881    3.131556
      3          8           0       -3.332716   -0.854189    3.092079
      4          8           0       -1.846417    7.273651    1.347071
      5          8           0       -0.744628    6.966688   -0.637936
      6          8           0       -1.552568   -3.988591    0.027646
      7          7           0        2.341032    1.030633    0.651235
      8          7           0        4.288447   -0.600801   -1.257857
      9          7           0       -1.839791    0.588249   -0.430643
     10          7           0       -2.557218   -1.890587   -0.476294
     11          6           0        4.788143   -1.171536    0.013854
     12          6           0        4.385356   -0.150186    1.179701
     13          6           0        2.906721    0.029061    1.363833
     14          6           0        1.973696   -0.579727    2.189614
     15          6           0        0.679151    0.027081    1.829914
     16          6           0        1.037141    1.081201    0.802506
     17          6           0        6.286095   -1.254399   -0.152169
     18          6           0       -0.550004   -0.139514    2.499970
     19          6           0        6.602198   -0.771042   -1.348670
     20          6           0        0.120842    2.088012    0.187812
     21          6           0       -1.216115    1.891277   -0.357502
     22          6           0        5.401590   -0.347961   -2.151388
     23          6           0       -2.117411    2.878136   -0.854372
     24          6           0        2.297199   -1.658303    3.159397
     25          6           0        7.196102   -1.805170    0.996590
     26          6           0       -3.250912    2.270060   -1.244790
     27          6           0       -1.072126   -1.621664    2.582934
     28          6           0       -3.129047    0.831547   -0.988400
     29          6           0       -1.655486    4.316714   -0.935519
     30          6           0        7.993534   -0.675310   -2.064028
     31          6           0       -1.907023    5.013251    0.330516
     32          6           0       -4.374049    2.965112   -1.752512
     33          6           0       -4.035690   -0.224830   -1.268368
     34          6           0       -2.527421   -1.728879    2.894786
     35          6           0       -3.683880   -1.552630   -1.032753
     36          6           0        9.171921   -0.742538   -1.566266
     37          6           0       -1.435476    6.491521    0.357113
     38          6           0       -4.466225   -2.783103   -1.413980
     39          6           0       -3.731986   -3.877312   -1.093559
     40          6           0       -2.472124   -3.328002   -0.423619
     41          6           0       -5.773984   -2.629510   -2.016776
     42          6           0       -4.010962   -5.289915   -1.238759
     43          6           0       -6.589059   -3.636783   -2.554344
     44          1           0        4.395765   -2.242584    0.536117
     45          1           0        4.914885    0.889843    1.233350
     46          1           0        4.868937   -0.681843    2.023797
     47          1           0        2.847847    1.763309   -0.060851
     48          1           0        3.316992   -0.531851   -1.551199
     49          1           0       -0.634850    0.156398    3.549805
     50          1           0       -1.370947    0.563720    2.092323
     51          1           0        0.557030    3.056527   -0.051512
     52          1           0        3.254729   -1.947438    3.316277
     53          1           0        1.891308   -1.387021    4.155935
     54          1           0        1.999706   -2.719529    2.951023
     55          1           0        6.544095   -2.544927    1.697320
     56          1           0        7.723041   -1.024673    1.788048
     57          1           0        8.017988   -2.428606    0.688654
     58          1           0       -0.794801   -2.152424    1.490564
     59          1           0       -0.438239   -2.400173    3.080713
     60          1           0       -1.772167   -0.368306   -0.273033
     61          1           0       -2.188709    4.798417   -1.775010
     62          1           0       -0.471075    4.478289   -1.042842
     63          1           0        7.625980   -0.594598   -3.171917
     64          1           0       -1.335828    4.612955    1.054614
     65          1           0       -2.947728    5.027154    0.684215
     66          1           0       -4.120267    4.075574   -1.938573
     67          1           0       -5.242713    2.884723   -1.013950
     68          1           0       -4.825294    2.417836   -2.575322
     69          1           0       -4.909843    0.347232   -1.670387
     70          1           0        9.181044   -0.612126   -0.489064
     71          1           0       10.227724   -1.079478   -2.169733
     72          1           0       -3.844401   -3.119798    3.423455
     73          1           0       -6.160175   -1.502029   -1.988335
     74          1           0       -5.051016   -5.796917   -0.794438
     75          1           0       -4.067301   -5.566187   -2.321373
     76          1           0       -3.158196   -5.792903   -0.733028
     77          1           0       -1.668726    8.167707    1.279544
     78          1           0       -7.585239   -3.125207   -3.290120
     79          1           0       -6.347715   -4.701422   -2.551457
 ---------------------------------------------------------------------

 SCF Done:  E(RB3LYP) =  -1947.82576706     A.U. after   17 cycles

 Excitation energies and oscillator strengths:

 Excited State   1:      Singlet-A      1.9916 eV  622.55 nm  f=0.4244  <S**2>=0.000
     155 ->156         0.70114
     155 <-156        -0.11186
 This state for optimization and/or second-order correction.
 Total Energy, E(TD-HF/TD-DFT) =  -1947.75257849
 Copying the excited state density for this state as the 1-particle RhoCI density.

 The electronic state is 1-A.
 Alpha  occ. eigenvalues --  -19.20167 -19.14959 -19.12473 -19.11579 -19.11396
 Alpha  occ. eigenvalues --  -19.10223 -14.39903 -14.35522 -14.35164 -14.29239
 Alpha  occ. eigenvalues --  -10.33753 -10.30132 -10.29749 -10.27430 -10.26878
 Alpha  occ. eigenvalues --  -10.25233 -10.24485 -10.23899 -10.23688 -10.23304
 Alpha  occ. eigenvalues --  -10.23019 -10.22990 -10.22822 -10.22247 -10.21956
 Alpha  occ. eigenvalues --  -10.21852 -10.21399 -10.21316 -10.21169 -10.20831
 Alpha  occ. eigenvalues --  -10.20808 -10.20732 -10.20530 -10.20437 -10.19924
 Alpha  occ. eigenvalues --  -10.19856 -10.19689 -10.19670 -10.19668 -10.19541
 Alpha  occ. eigenvalues --  -10.19320 -10.19046 -10.18746  -1.11271  -1.07230
 Alpha  occ. eigenvalues --   -1.03323  -1.01850  -1.00005  -0.97650  -0.97624
 Alpha  occ. eigenvalues --   -0.96123  -0.92954  -0.92502  -0.84303  -0.81697
 Alpha  occ. eigenvalues --   -0.81099  -0.81005  -0.80326  -0.79779  -0.78360
 Alpha  occ. eigenvalues --   -0.76971  -0.75608  -0.75262  -0.73823  -0.72879
 Alpha  occ. eigenvalues --   -0.71431  -0.71200  -0.70157  -0.69159  -0.68567
 Alpha  occ. eigenvalues --   -0.67043  -0.65973  -0.63905  -0.63182  -0.60204
 Alpha  occ. eigenvalues --   -0.59353  -0.59020  -0.58457  -0.58042  -0.57214
 Alpha  occ. eigenvalues --   -0.56596  -0.55536  -0.54758  -0.53253  -0.52851
 Alpha  occ. eigenvalues --   -0.51532  -0.51372  -0.50724  -0.50194  -0.50142
 Alpha  occ. eigenvalues --   -0.48960  -0.48771  -0.48219  -0.47343  -0.47034
 Alpha  occ. eigenvalues --   -0.46499  -0.46134  -0.45815  -0.45488  -0.45091
 Alpha  occ. eigenvalues --   -0.44867  -0.44568  -0.44553  -0.43964  -0.43511
 Alpha  occ. eigenvalues --   -0.43308  -0.43113  -0.42808  -0.42596  -0.42448
 Alpha  occ. eigenvalues --   -0.42413  -0.41522  -0.41386  -0.41027  -0.40978
 Alpha  occ. eigenvalues --   -0.40387  -0.40287  -0.40184  -0.39697  -0.39552
 Alpha  occ. eigenvalues --   -0.39115  -0.39083  -0.38744  -0.38707  -0.38365
 Alpha  occ. eigenvalues --   -0.38155  -0.37887  -0.37498  -0.36756  -0.36521
 Alpha  occ. eigenvalues --   -0.36191  -0.35919  -0.35814  -0.34857  -0.34193
 Alpha  occ. eigenvalues --   -0.33761  -0.33206  -0.31763  -0.31439  -0.30591
 Alpha  occ. eigenvalues --   -0.30296  -0.29796  -0.28215  -0.27844  -0.27580
 Alpha  occ. eigenvalues --   -0.27159  -0.26177  -0.25965  -0.25871  -0.25451
 Alpha  occ. eigenvalues --   -0.24488  -0.24268  -0.23258  -0.22125  -0.18757
 Alpha virt. eigenvalues --   -0.10874  -0.06793  -0.05998  -0.01929  -0.01036
 Alpha virt. eigenvalues --    0.00474   0.01001   0.01720   0.01919   0.02307
 Alpha virt. eigenvalues --    0.03073   0.03308   0.03821   0.04754   0.04978

 Mulliken charges:
               1
     1  O   -0.198340
     2  O   -0.204219
     3  O   -0.228149
     4  O   -0.117360
     5  O   -0.313785
     6  O   -0.197546
     7  N   -0.050420
     8  N   -0.254554
     9  N   -0.081472
    10  N   -0.299420
    11  C    0.044765
    12  C    0.097963
    13  C   -0.050389
    14  C   -0.084053
    15  C   -0.066713
    16  C    0.023791
    17  C   -0.092391
    18  C    0.068251
    19  C   -0.130177
    20  C   -0.059862
    21  C    0.096244
    22  C    0.192283
    23  C   -0.038412
    24  C    0.117687
    25  C   -0.009555
    26  C   -0.100822
    27  C   -0.120395
    28  C   -0.025033
    29  C    0.052125
    30  C    0.037850
    31  C    0.080716
    32  C    0.070541
    33  C   -0.077395
    34  C    0.158430
    35  C    0.154287
    36  C   -0.070216
    37  C    0.134861
    38  C    0.077937
    39  C   -0.187748
    40  C    0.189261
    41  C   -0.058085
    42  C    0.003095
    43  C   -0.082981
    44  H    0.050751
    45  H    0.018545
    46  H   -0.013782
    47  H    0.177375
    48  H    0.134923
    49  H    0.008609
    50  H    0.028769
    51  H   -0.024705
    52  H   -0.049374
    53  H    0.023225
    54  H    0.026397
    55  H    0.032768
    56  H    0.066884
    57  H    0.037435
    58  H    0.091367
    59  H    0.031385
    60  H    0.095536
    61  H    0.020116
    62  H    0.052913
    63  H    0.035372
    64  H   -0.002939
    65  H    0.032382
    66  H    0.035325
    67  H    0.033349
    68  H    0.019207
    69  H   -0.033018
    70  H    0.017087
    71  H    0.071601
    72  H    0.176951
    73  H    0.032057
    74  H    0.047150
    75  H    0.037909
    76  H    0.034704
    77  H    0.166580
    78  H    0.055547
    79  H    0.031003
 Sum of Mulliken charges =  -0.00000

 Dipole moment (field-independent basis, Debye):
    X=              0.8544    Y=              2.4264    Z=              3.4702  Tot=              4.3197
 Quadrupole moment (field-independent basis, Debye-Ang):
   XX=           -221.3082   YY=           -238.7011   ZZ=           -265.5519
   XY=            -17.1991   XZ=             32.2920   YZ=              8.0767

 Normal termination of Gaussian 16 at Mon Sep 23 17:06:07 2019.
