 Gaussian 16, Revision A.03,
 Gaussian 16:  ES64L-G16RevA.03 25-Dec-2016

 --------------------------
 # td=(NStates=1) B3LYP/SVP
 --------------------------

 --
 TD
 --
 Symbolic Z-matrix:
 Charge =  0 Multiplicity = 1

                         Standard orientation:
 ---------------------------------------------------------------------
 Center     Atomic      Atomic             Coordinates (Angstroms)
 Number     Number       Type             X           Y           Z
 ---------------------------------------------------------------------
      1          8           0       -3.209265   -1.176596   -2.919480
      2          8           0        3.056050    2.850527    3.295001
      3          8           0        3.867685    1.124714    4.420829
      4          8           0        7.784927   -1.397031   -1.037876
      5          8           0        6.521998   -2.914360   -2.247667
      6          8           0       -2.749962    1.454006    1.565709
      7          7           0       -0.186687   -2.353410    0.669846
      8          7           0       -2.703475   -1.103867   -0.622327
      9          7           0        1.176808    0.206157   -0.636387
     10          7           0       -1.065195    1.398186   -0.082226
     11          6           0       -3.455711   -1.548984    0.559691
     12          6           0       -2.534653   -2.518724    1.293685
     13          6           0       -1.135648   -2.268242    1.637183
     14          6           0       -0.549817   -1.511924    2.676438
     15          6           0        0.864613   -1.365809    2.425497
     16          6           0        1.089440   -1.932339    1.059605
     17          6           0       -4.646614   -2.026928    0.202588
     18          6           0        2.027866   -0.755982    3.133862
     19          6           0       -4.743343   -2.025963   -1.149323
     20          6           0        2.188095   -1.795961    0.122995
     21          6           0        2.122880   -0.727386   -0.679011
     22          6           0       -3.526482   -1.386122   -1.740985
     23          6           0        3.030888   -0.395646   -1.871103
     24          6           0       -1.291992   -0.899005    3.840486
     25          6           0       -5.751613   -2.440142    1.131042
     26          6           0        2.536127    0.738650   -2.401002
     27          6           0        2.029440    0.803366    2.829056
     28          6           0        1.348303    1.103969   -1.624254
     29          6           0        4.206667   -1.285415   -2.148302
     30          6           0       -5.771107   -2.199694   -2.185872
     31          6           0        5.460517   -0.973161   -1.367546
     32          6           0        3.017786    1.516846   -3.616770
     33          6           0        0.486840    2.298409   -1.751672
     34          6           0        3.045200    1.546103    3.569205
     35          6           0       -0.640709    2.434771   -0.968648
     36          6           0       -7.016636   -2.929364   -2.103835
     37          6           0        6.598515   -1.865834   -1.557575
     38          6           0       -1.466049    3.677300   -0.861646
     39          6           0       -2.374265    3.396365    0.217658
     40          6           0       -2.050812    1.979974    0.673305
     41          6           0       -1.308880    4.818297   -1.722197
     42          6           0       -3.511683    4.190245    0.784980
     43          6           0       -2.246522    5.755986   -2.129477
     44          1           0       -3.694936   -0.487320    1.219384
     45          1           0       -2.581310   -3.458628    0.840964
     46          1           0       -3.075887   -2.751385    2.183914
     47          1           0       -0.294980   -2.899285   -0.210929
     48          1           0       -1.986941   -0.360390   -0.748249
     49          1           0        1.829994   -1.126340    4.171252
     50          1           0        2.816982   -1.129585    2.722797
     51          1           0        2.805937   -2.797446   -0.019234
     52          1           0       -1.940560   -1.584560    4.366904
     53          1           0       -0.497823   -0.619399    4.597663
     54          1           0       -1.867645   -0.118427    3.573390
     55          1           0       -5.770348   -1.817343    2.147229
     56          1           0       -5.819449   -3.518674    1.368146
     57          1           0       -6.711780   -2.165809    0.691976
     58          1           0        1.888618    0.992304    1.664845
     59          1           0        1.041963    1.156057    3.154518
     60          1           0        0.296434    0.397162    0.086368
     61          1           0        4.439814   -1.147926   -3.176751
     62          1           0        3.897719   -2.376094   -1.635211
     63          1           0       -5.664844   -1.860455   -3.254931
     64          1           0        5.276375   -1.081667   -0.278560
     65          1           0        5.713953    0.069830   -1.541367
     66          1           0        3.550542    0.737594   -4.566422
     67          1           0        3.692248    2.584581   -3.471452
     68          1           0        2.156545    1.825971   -4.231250
     69          1           0        0.800490    3.078714   -2.549314
     70          1           0       -7.170332   -3.235113   -1.086082
     71          1           0       -7.785446   -2.819306   -2.737341
     72          1           0        3.732105    3.198841    3.890389
     73          1           0       -0.233758    4.809325   -2.224272
     74          1           0       -4.317239    4.312076    0.103554
     75          1           0       -3.805289    3.446814    1.791500
     76          1           0       -3.054061    5.227471    1.153467
     77          1           0        8.491053   -2.032592   -1.161895
     78          1           0       -1.789425    6.521851   -2.724531
     79          1           0       -3.274189    6.023693   -1.693293
 ---------------------------------------------------------------------

 SCF Done:  E(RB3LYP) =  -1947.81763551     A.U. after   19 cycles

 Excitation energies and oscillator strengths:

 Excited State   1:      Singlet-A      1.0294 eV 1204.39 nm  f=0.0005  <S**2>=0.000
     155 ->156         0.69998
 This state for optimization and/or second-order correction.
 Total Energy, E(TD-HF/TD-DFT) =  -1947.77980431
 Copying the excited state density for this state as the 1-particle RhoCI density.

 The electronic state is 1-A.
 Alpha  occ. eigenvalues --  -19.19724 -19.18086 -19.13815 -19.11813 -19.11706
 Alpha  occ. eigenvalues --  -19.07496 -14.38963 -14.37392 -14.32031 -14.31754
 Alpha  occ. eigenvalues --  -10.33944 -10.31910 -10.28555 -10.28221 -10.26242
 Alpha  occ. eigenvalues --  -10.26124 -10.25619 -10.25408 -10.24096 -10.23917
 Alpha  occ. eigenvalues --  -10.23785 -10.23356 -10.22720 -10.22657 -10.22587
 Alpha  occ. eigenvalues --  -10.22325 -10.22142 -10.21984 -10.21380 -10.21368
 Alpha  occ. eigenvalues --  -10.21335 -10.21265 -10.20404 -10.20286 -10.19900
 Alpha  occ. eigenvalues --  -10.19642 -10.18676 -10.18639 -10.18635 -10.18372
 Alpha  occ. eigenvalues --  -10.17669 -10.17470 -10.16795  -1.10046  -1.09505
 Alpha  occ. eigenvalues --   -1.02166  -1.01470  -1.00215  -0.98774  -0.97928
 Alpha  occ. eigenvalues --   -0.96360  -0.92369  -0.91915  -0.84954  -0.83581
 Alpha  occ. eigenvalues --   -0.80970  -0.80716  -0.80464  -0.80312  -0.78780
 Alpha  occ. eigenvalues --   -0.77194  -0.76178  -0.75297  -0.74204  -0.73100
 Alpha  occ. eigenvalues --   -0.71367  -0.70515  -0.69755  -0.69561  -0.68164
 Alpha  occ. eigenvalues --   -0.67314  -0.66421  -0.63932  -0.62017  -0.61823
 Alpha  occ. eigenvalues --   -0.60022  -0.59452  -0.58459  -0.57772  -0.56997
 Alpha  occ. eigenvalues --   -0.55729  -0.55350  -0.54659  -0.53362  -0.52765
 Alpha  occ. eigenvalues --   -0.52265  -0.52177  -0.51479  -0.51147  -0.49968
 Alpha  occ. eigenvalues --   -0.49047  -0.48567  -0.48410  -0.48287  -0.48061
 Alpha  occ. eigenvalues --   -0.47833  -0.47289  -0.47040  -0.46099  -0.45909
 Alpha  occ. eigenvalues --   -0.45850  -0.45145  -0.44745  -0.44530  -0.44040
 Alpha  occ. eigenvalues --   -0.43737  -0.43317  -0.43024  -0.42696  -0.42131
 Alpha  occ. eigenvalues --   -0.41968  -0.41430  -0.41163  -0.41143  -0.41034
 Alpha  occ. eigenvalues --   -0.40861  -0.40417  -0.40050  -0.39745  -0.39530
 Alpha  occ. eigenvalues --   -0.38914  -0.38858  -0.38017  -0.37920  -0.37792
 Alpha  occ. eigenvalues --   -0.37572  -0.37387  -0.37280  -0.37053  -0.36704
 Alpha  occ. eigenvalues --   -0.36397  -0.35922  -0.35624  -0.35029  -0.34343
 Alpha  occ. eigenvalues --   -0.33662  -0.33375  -0.33133  -0.32389  -0.31405
 Alpha  occ. eigenvalues --   -0.31141  -0.30193  -0.29539  -0.29147  -0.29040
 Alpha  occ. eigenvalues --   -0.28401  -0.27505  -0.25912  -0.23829  -0.23525
 Alpha  occ. eigenvalues --   -0.23373  -0.22795  -0.22422  -0.21863  -0.19612
 Alpha virt. eigenvalues --   -0.13219  -0.08202  -0.05099  -0.02742  -0.02348
 Alpha virt. eigenvalues --   -0.00822   0.00440   0.00872   0.01940   0.02227
 Alpha virt. eigenvalues --    0.02651   0.03676   0.04477   0.04803   0.04889

 Mulliken charges:
               1
     1  O   -0.263408
     2  O   -0.157329
     3  O   -0.280439
     4  O   -0.193558
     5  O   -0.260931
     6  O   -0.254666
     7  N   -0.075152
     8  N   -0.257132
     9  N   -0.090778
    10  N   -0.369812
    11  C    0.066308
    12  C    0.255171
    13  C   -0.049394
    14  C   -0.163685
    15  C   -0.204050
    16  C   -0.064874
    17  C   -0.129108
    18  C    0.266193
    19  C   -0.038710
    20  C   -0.185978
    21  C    0.154500
    22  C    0.138687
    23  C   -0.052109
    24  C    0.156783
    25  C    0.062658
    26  C   -0.075653
    27  C   -0.063868
    28  C    0.071291
    29  C    0.120037
    30  C   -0.092766
    31  C    0.019044
    32  C   -0.070914
    33  C   -0.122511
    34  C    0.159653
    35  C    0.148055
    36  C    0.013136
    37  C    0.156799
    38  C    0.063665
    39  C   -0.190524
    40  C    0.213380
    41  C   -0.081381
    42  C   -0.009280
    43  C   -0.026156
    44  H    0.091109
    45  H   -0.052436
    46  H   -0.038108
    47  H    0.123557
    48  H    0.149890
    49  H    0.032352
    50  H   -0.064369
    51  H    0.066818
    52  H   -0.006881
    53  H   -0.004364
    54  H    0.000991
    55  H    0.029153
    56  H    0.041696
    57  H    0.028308
    58  H    0.053812
    59  H    0.046846
    60  H    0.265408
    61  H    0.002540
    62  H    0.052656
    63  H    0.032618
    64  H    0.043120
    65  H    0.036936
    66  H    0.057696
    67  H    0.077441
    68  H    0.044552
    69  H    0.020991
    70  H   -0.008753
    71  H   -0.004100
    72  H    0.172469
    73  H    0.027235
    74  H    0.048200
    75  H    0.075925
    76  H    0.053679
    77  H    0.186270
    78  H    0.023509
    79  H    0.052034
 Sum of Mulliken charges =  -0.00000

 Dipole moment (field-independent basis, Debye):
    X=              3.7779    Y=              3.3920    Z=             -0.7444  Tot=              5.1316
 Quadrupole moment (field-independent basis, Debye-Ang):
   XX=           -236.8657   YY=           -237.8755   ZZ=           -273.0458
   XY=              3.0162   XZ=            -24.8393   YZ=            -16.3771

 Normal termination of Gaussian 16 at Fri Jul 26 03:03:50 2019.
