 Gaussian 16, Revision A.03,
 Gaussian 16:  ES64L-G16RevA.03 25-Dec-2016

 --------------------------
 # td=(NStates=1) B3LYP/SVP
 --------------------------

 --
 TD
 --
 Symbolic Z-matrix:
 Charge =  0 Multiplicity = 1

                         Standard orientation:
 ---------------------------------------------------------------------
 Center     Atomic      Atomic             Coordinates (Angstroms)
 Number     Number       Type             X           Y           Z
 ---------------------------------------------------------------------
      1          8           0       -3.129724   -1.354785   -2.841098
      2          8           0        3.140135    2.986970    3.180129
      3          8           0        4.113322    1.186519    4.137885
      4          8           0        7.814233   -1.337374   -0.854442
      5          8           0        6.730545   -2.758758   -2.203448
      6          8           0       -2.647237    1.641956    1.627397
      7          7           0       -0.260902   -2.426448    0.848943
      8          7           0       -2.670763   -1.192919   -0.548306
      9          7           0        1.061452    0.121745   -0.760872
     10          7           0       -1.131620    1.387879   -0.170048
     11          6           0       -3.317695   -1.395304    0.707084
     12          6           0       -2.667913   -2.452953    1.696710
     13          6           0       -1.212046   -2.053089    1.763878
     14          6           0       -0.577055   -1.221520    2.770372
     15          6           0        0.790697   -1.185981    2.429304
     16          6           0        1.048899   -1.969970    1.184603
     17          6           0       -4.595049   -1.936654    0.299518
     18          6           0        1.928272   -0.500137    3.106210
     19          6           0       -4.706023   -2.021666   -1.096258
     20          6           0        2.087777   -1.866089    0.253863
     21          6           0        1.984811   -0.860167   -0.666172
     22          6           0       -3.370140   -1.554896   -1.624966
     23          6           0        2.994000   -0.563527   -1.701615
     24          6           0       -1.303529   -0.547652    3.884533
     25          6           0       -5.766821   -2.208735    1.183936
     26          6           0        2.514942    0.601082   -2.332437
     27          6           0        1.992859    0.998139    2.886726
     28          6           0        1.267163    1.055534   -1.836217
     29          6           0        4.293448   -1.287225   -2.066633
     30          6           0       -5.602697   -2.547040   -2.125189
     31          6           0        5.437571   -0.922509   -1.205805
     32          6           0        3.073533    1.238394   -3.556024
     33          6           0        0.401974    2.046329   -1.998742
     34          6           0        3.263099    1.632863    3.419297
     35          6           0       -0.715027    2.290296   -1.176837
     36          6           0       -6.761556   -3.285593   -1.892412
     37          6           0        6.611682   -1.788578   -1.521102
     38          6           0       -1.628814    3.458552   -1.127881
     39          6           0       -2.434769    3.377871   -0.013119
     40          6           0       -2.203933    2.042956    0.550455
     41          6           0       -1.601620    4.668076   -2.141241
     42          6           0       -3.542156    4.141202    0.518179
     43          6           0       -2.500455    5.693502   -2.155543
     44          1           0       -3.392864   -0.376941    1.191322
     45          1           0       -2.544024   -3.455140    1.228683
     46          1           0       -2.963282   -2.468686    2.713240
     47          1           0       -0.438939   -3.016822    0.066072
     48          1           0       -1.854057   -0.300463   -0.613965
     49          1           0        1.963549   -0.590073    4.264262
     50          1           0        2.879683   -1.108569    2.642611
     51          1           0        2.905059   -2.718481   -0.198776
     52          1           0       -2.034154   -1.079571    4.282414
     53          1           0       -0.541022   -0.109999    4.693457
     54          1           0       -1.891978    0.343973    3.173246
     55          1           0       -5.655629   -1.735525    2.391303
     56          1           0       -5.984488   -3.363569    1.539146
     57          1           0       -7.036713   -1.910643    0.745588
     58          1           0        1.970620    1.329188    1.792517
     59          1           0        1.224778    1.722832    3.343183
     60          1           0        0.203885    0.137748   -0.332140
     61          1           0        4.589748   -1.016780   -2.973209
     62          1           0        4.190898   -2.432841   -2.170571
     63          1           0       -5.615456   -2.152287   -3.060538
     64          1           0        5.382471   -1.028320   -0.058542
     65          1           0        5.856980    0.173314   -1.367205
     66          1           0        4.088381    0.611222   -3.987126
     67          1           0        3.424320    2.224352   -3.467965
     68          1           0        2.278901    1.185272   -4.351932
     69          1           0        0.662644    2.808364   -2.825924
     70          1           0       -7.081582   -3.477280   -0.829824
     71          1           0       -7.273333   -3.741562   -2.813028
     72          1           0        4.149812    3.422074    3.334456
     73          1           0       -0.928450    4.429284   -3.020702
     74          1           0       -4.512821    4.174363   -0.197344
     75          1           0       -3.746319    3.492236    1.471167
     76          1           0       -3.134817    5.138826    0.854929
     77          1           0        8.449602   -1.966651   -1.345852
     78          1           0       -2.436148    6.348729   -3.060071
     79          1           0       -3.413197    5.907329   -1.511145
 ---------------------------------------------------------------------

 SCF Done:  E(RB3LYP) =  -1947.76509551     A.U. after   21 cycles

 Excitation energies and oscillator strengths:

 Excited State   1:      Singlet-A      0.6423 eV 1930.18 nm  f=0.0053  <S**2>=0.000
     155 ->156         0.70265
 This state for optimization and/or second-order correction.
 Total Energy, E(TD-HF/TD-DFT) =  -1947.74148971
 Copying the excited state density for this state as the 1-particle RhoCI density.

 The electronic state is 1-A.
 Alpha  occ. eigenvalues --  -19.17372 -19.17238 -19.15173 -19.14488 -19.12499
 Alpha  occ. eigenvalues --  -19.07092 -14.37430 -14.36820 -14.33310 -14.32616
 Alpha  occ. eigenvalues --  -10.33310 -10.31041 -10.29550 -10.27228 -10.26915
 Alpha  occ. eigenvalues --  -10.25636 -10.25503 -10.23996 -10.23854 -10.23751
 Alpha  occ. eigenvalues --  -10.23442 -10.23375 -10.23309 -10.23017 -10.22965
 Alpha  occ. eigenvalues --  -10.22727 -10.22500 -10.22356 -10.22228 -10.21377
 Alpha  occ. eigenvalues --  -10.21255 -10.21174 -10.21126 -10.20644 -10.20582
 Alpha  occ. eigenvalues --  -10.20446 -10.20286 -10.19287 -10.18701 -10.18658
 Alpha  occ. eigenvalues --  -10.18339 -10.18203 -10.17537  -1.09792  -1.07438
 Alpha  occ. eigenvalues --   -1.04494  -0.99899  -0.99606  -0.98817  -0.98665
 Alpha  occ. eigenvalues --   -0.95700  -0.92855  -0.92111  -0.84817  -0.84119
 Alpha  occ. eigenvalues --   -0.81449  -0.80241  -0.79961  -0.79442  -0.79076
 Alpha  occ. eigenvalues --   -0.77461  -0.76480  -0.75830  -0.74096  -0.73075
 Alpha  occ. eigenvalues --   -0.71251  -0.70310  -0.70048  -0.68059  -0.67594
 Alpha  occ. eigenvalues --   -0.66220  -0.65569  -0.64306  -0.61209  -0.59868
 Alpha  occ. eigenvalues --   -0.59221  -0.58639  -0.57428  -0.56402  -0.56159
 Alpha  occ. eigenvalues --   -0.55961  -0.55142  -0.53868  -0.52948  -0.52699
 Alpha  occ. eigenvalues --   -0.52255  -0.51710  -0.51248  -0.50449  -0.49641
 Alpha  occ. eigenvalues --   -0.49513  -0.49162  -0.48153  -0.47931  -0.47709
 Alpha  occ. eigenvalues --   -0.47187  -0.46932  -0.46805  -0.46379  -0.45758
 Alpha  occ. eigenvalues --   -0.45205  -0.44976  -0.44750  -0.44573  -0.44251
 Alpha  occ. eigenvalues --   -0.43655  -0.43427  -0.43028  -0.42933  -0.42603
 Alpha  occ. eigenvalues --   -0.42029  -0.41737  -0.41398  -0.41127  -0.40876
 Alpha  occ. eigenvalues --   -0.40285  -0.39949  -0.39868  -0.39785  -0.39252
 Alpha  occ. eigenvalues --   -0.39027  -0.38822  -0.38373  -0.38045  -0.37868
 Alpha  occ. eigenvalues --   -0.37476  -0.37436  -0.37010  -0.36833  -0.36566
 Alpha  occ. eigenvalues --   -0.36455  -0.35664  -0.35568  -0.34762  -0.34525
 Alpha  occ. eigenvalues --   -0.33922  -0.32988  -0.32634  -0.32504  -0.32102
 Alpha  occ. eigenvalues --   -0.31011  -0.30244  -0.30074  -0.29717  -0.28199
 Alpha  occ. eigenvalues --   -0.27586  -0.27476  -0.27270  -0.24698  -0.24231
 Alpha  occ. eigenvalues --   -0.23170  -0.22572  -0.22397  -0.21759  -0.18838
 Alpha virt. eigenvalues --   -0.14058  -0.08559  -0.05059  -0.02918  -0.01691
 Alpha virt. eigenvalues --   -0.00067   0.00463   0.01469   0.01706   0.02127
 Alpha virt. eigenvalues --    0.02648   0.03218   0.03670   0.03958   0.04535

 Mulliken charges:
               1
     1  O   -0.295571
     2  O   -0.288690
     3  O   -0.204254
     4  O   -0.280740
     5  O   -0.199924
     6  O   -0.215892
     7  N   -0.082017
     8  N   -0.263959
     9  N   -0.068022
    10  N   -0.397974
    11  C    0.085972
    12  C    0.309190
    13  C   -0.190847
    14  C   -0.086628
    15  C   -0.092219
    16  C    0.039518
    17  C   -0.095235
    18  C    0.042988
    19  C   -0.036227
    20  C   -0.123280
    21  C    0.072112
    22  C    0.128515
    23  C   -0.050645
    24  C    0.055654
    25  C   -0.130351
    26  C   -0.097692
    27  C   -0.044153
    28  C    0.147824
    29  C    0.171713
    30  C    0.017496
    31  C   -0.040571
    32  C    0.024413
    33  C   -0.107482
    34  C    0.133863
    35  C    0.138482
    36  C   -0.069644
    37  C    0.132519
    38  C    0.016390
    39  C   -0.195793
    40  C    0.228544
    41  C    0.006146
    42  C    0.009046
    43  C   -0.048310
    44  H    0.058546
    45  H   -0.013504
    46  H   -0.007623
    47  H    0.106095
    48  H    0.225449
    49  H    0.027011
    50  H    0.034000
    51  H    0.035565
    52  H   -0.032467
    53  H    0.030717
    54  H    0.085415
    55  H    0.033862
    56  H    0.055096
    57  H    0.068070
    58  H    0.033235
    59  H    0.063416
    60  H    0.116888
    61  H   -0.053162
    62  H    0.054314
    63  H   -0.013728
    64  H    0.077351
    65  H    0.067160
    66  H    0.035463
    67  H    0.021607
    68  H    0.052473
    69  H    0.010918
    70  H    0.022307
    71  H    0.040584
    72  H    0.227345
    73  H    0.021817
    74  H    0.075479
    75  H    0.054008
    76  H    0.044646
    77  H    0.193421
    78  H    0.038254
    79  H    0.055707
 Sum of Mulliken charges =  -0.00000

 Dipole moment (field-independent basis, Debye):
    X=              1.7775    Y=              3.9569    Z=             -2.1482  Tot=              4.8406
 Quadrupole moment (field-independent basis, Debye-Ang):
   XX=           -250.3737   YY=           -235.9653   ZZ=           -268.5931
   XY=              3.9180   XZ=            -26.2428   YZ=            -16.2858

 Normal termination of Gaussian 16 at Wed Jul 24 11:40:10 2019.
