 Gaussian 16, Revision A.03,
 Gaussian 16:  ES64L-G16RevA.03 25-Dec-2016

 --------------------------
 # td=(NStates=1) B3LYP/SVP
 --------------------------

 --
 TD
 --
 Symbolic Z-matrix:
 Charge =  0 Multiplicity = 1

                         Standard orientation:
 ---------------------------------------------------------------------
 Center     Atomic      Atomic             Coordinates (Angstroms)
 Number     Number       Type             X           Y           Z
 ---------------------------------------------------------------------
      1          8           0        5.283860   -0.148886   -3.290187
      2          8           0       -3.063163   -2.804783    3.491377
      3          8           0       -3.409383   -0.608299    3.261828
      4          8           0       -1.652297    7.093928    1.552659
      5          8           0       -0.767247    7.047614   -0.515109
      6          8           0       -1.741166   -4.117300    0.048585
      7          7           0        2.295431    0.935069    0.559137
      8          7           0        4.444444   -0.651744   -1.253557
      9          7           0       -1.805215    0.709963   -0.386111
     10          7           0       -2.555835   -1.949906   -0.487885
     11          6           0        4.845424   -1.102086    0.070334
     12          6           0        4.436711   -0.345461    1.187894
     13          6           0        2.899802   -0.061213    1.267557
     14          6           0        2.012511   -0.673524    2.060189
     15          6           0        0.734149   -0.004323    1.834814
     16          6           0        1.008602    1.007530    0.785840
     17          6           0        6.330389   -1.356965   -0.094063
     18          6           0       -0.614307   -0.148680    2.583221
     19          6           0        6.675199   -0.889275   -1.339398
     20          6           0        0.155024    2.018333    0.215534
     21          6           0       -1.080569    1.836322   -0.316366
     22          6           0        5.493661   -0.543747   -2.168805
     23          6           0       -1.928023    2.936822   -1.021276
     24          6           0        2.205621   -1.662500    3.265789
     25          6           0        7.137317   -1.828320    0.952993
     26          6           0       -3.170627    2.365773   -1.381427
     27          6           0       -1.203870   -1.607754    2.640096
     28          6           0       -3.005679    0.869568   -1.028325
     29          6           0       -1.613975    4.420249   -0.979450
     30          6           0        7.952503   -0.694075   -2.074488
     31          6           0       -1.835107    5.024802    0.400284
     32          6           0       -4.218334    2.970043   -2.284751
     33          6           0       -3.844070   -0.144667   -1.394964
     34          6           0       -2.664869   -1.542322    3.173295
     35          6           0       -3.685241   -1.564671   -1.020370
     36          6           0        9.186952   -0.608651   -1.491687
     37          6           0       -1.340828    6.424000    0.422236
     38          6           0       -4.602241   -2.650857   -1.521585
     39          6           0       -3.842206   -3.773759   -1.084316
     40          6           0       -2.604199   -3.365078   -0.420905
     41          6           0       -5.818902   -2.532930   -2.225464
     42          6           0       -4.193108   -5.295261   -1.088194
     43          6           0       -6.591737   -3.483414   -2.713273
     44          1           0        4.329781   -2.004393    0.114121
     45          1           0        4.838065    0.745761    1.138678
     46          1           0        4.771821   -0.880580    2.276437
     47          1           0        2.759617    1.470509   -0.151732
     48          1           0        3.414269   -0.878294   -1.651602
     49          1           0       -0.465951    0.225678    3.680886
     50          1           0       -1.365777    0.537104    1.953892
     51          1           0        0.514947    3.074608    0.153053
     52          1           0        3.257765   -1.923733    3.710000
     53          1           0        1.636144   -1.303476    4.162358
     54          1           0        2.118784   -2.779546    2.897489
     55          1           0        6.466049   -2.761160    1.291844
     56          1           0        7.127991   -0.895614    1.753834
     57          1           0        7.995846   -2.326635    0.537638
     58          1           0       -1.406202   -2.087301    1.507956
     59          1           0       -0.544805   -2.112236    3.162099
     60          1           0       -1.648575   -0.370167   -0.177739
     61          1           0       -2.235377    4.809087   -1.821500
     62          1           0       -0.750154    4.629064   -1.446978
     63          1           0        7.778592   -1.204554   -3.282530
     64          1           0       -1.180198    4.380984    1.112086
     65          1           0       -2.985260    4.973071    0.606461
     66          1           0       -4.110450    4.073720   -2.304936
     67          1           0       -5.258555    2.814970   -1.886131
     68          1           0       -4.293693    2.455944   -3.379454
     69          1           0       -4.660633    0.445968   -2.045081
     70          1           0        9.275915   -0.211073   -0.400579
     71          1           0       10.212888   -0.864353   -2.135434
     72          1           0       -3.944303   -2.512666    3.907744
     73          1           0       -6.374759   -1.752397   -2.448858
     74          1           0       -5.095697   -5.259540   -0.267494
     75          1           0       -4.458194   -5.624553   -2.157460
     76          1           0       -3.474548   -5.992198   -0.627805
     77          1           0       -1.368931    8.070020    1.421038
     78          1           0       -7.607305   -3.316956   -3.351992
     79          1           0       -6.421562   -4.610402   -2.530452
 ---------------------------------------------------------------------

 SCF Done:  E(RB3LYP) =  -1947.77748501     A.U. after   16 cycles

 Excitation energies and oscillator strengths:

 Excited State   1:      Singlet-A      1.8537 eV  668.86 nm  f=0.2924  <S**2>=0.000
     153 ->156        -0.13173
     155 ->156         0.69800
 This state for optimization and/or second-order correction.
 Total Energy, E(TD-HF/TD-DFT) =  -1947.70936383
 Copying the excited state density for this state as the 1-particle RhoCI density.

 The electronic state is 1-A.
 Alpha  occ. eigenvalues --  -19.19304 -19.16820 -19.13047 -19.12102 -19.11737
 Alpha  occ. eigenvalues --  -19.09673 -14.38173 -14.36763 -14.34368 -14.30687
 Alpha  occ. eigenvalues --  -10.33175 -10.30705 -10.27632 -10.27590 -10.25342
 Alpha  occ. eigenvalues --  -10.24999 -10.24627 -10.23388 -10.23042 -10.22983
 Alpha  occ. eigenvalues --  -10.22457 -10.22417 -10.22397 -10.22325 -10.22308
 Alpha  occ. eigenvalues --  -10.22080 -10.22003 -10.21996 -10.21972 -10.21793
 Alpha  occ. eigenvalues --  -10.21450 -10.21320 -10.21246 -10.21079 -10.20835
 Alpha  occ. eigenvalues --  -10.20448 -10.20401 -10.20254 -10.20242 -10.19566
 Alpha  occ. eigenvalues --  -10.19170 -10.18906 -10.18802  -1.09167  -1.08729
 Alpha  occ. eigenvalues --   -1.02449  -1.01675  -1.00048  -0.99370  -0.98587
 Alpha  occ. eigenvalues --   -0.98046  -0.93597  -0.93540  -0.82822  -0.82186
 Alpha  occ. eigenvalues --   -0.81779  -0.81502  -0.80354  -0.79256  -0.78067
 Alpha  occ. eigenvalues --   -0.77117  -0.75963  -0.75113  -0.74964  -0.72008
 Alpha  occ. eigenvalues --   -0.70789  -0.70454  -0.69673  -0.68868  -0.68307
 Alpha  occ. eigenvalues --   -0.65750  -0.65294  -0.63697  -0.60649  -0.60168
 Alpha  occ. eigenvalues --   -0.59444  -0.58892  -0.57029  -0.56779  -0.56571
 Alpha  occ. eigenvalues --   -0.56116  -0.55612  -0.55141  -0.53792  -0.52701
 Alpha  occ. eigenvalues --   -0.52198  -0.51171  -0.50790  -0.50473  -0.49522
 Alpha  occ. eigenvalues --   -0.49010  -0.48659  -0.48292  -0.47774  -0.47500
 Alpha  occ. eigenvalues --   -0.47143  -0.46977  -0.46288  -0.45868  -0.45273
 Alpha  occ. eigenvalues --   -0.44881  -0.44523  -0.44019  -0.43772  -0.43551
 Alpha  occ. eigenvalues --   -0.43328  -0.43168  -0.42590  -0.42310  -0.42051
 Alpha  occ. eigenvalues --   -0.41841  -0.41688  -0.41351  -0.41091  -0.41005
 Alpha  occ. eigenvalues --   -0.40638  -0.40554  -0.40217  -0.39775  -0.39606
 Alpha  occ. eigenvalues --   -0.39348  -0.38925  -0.38759  -0.38397  -0.37989
 Alpha  occ. eigenvalues --   -0.37620  -0.37273  -0.36911  -0.36594  -0.35468
 Alpha  occ. eigenvalues --   -0.35366  -0.35000  -0.34774  -0.34583  -0.34169
 Alpha  occ. eigenvalues --   -0.33578  -0.33171  -0.32062  -0.31953  -0.31907
 Alpha  occ. eigenvalues --   -0.31255  -0.30113  -0.29434  -0.29090  -0.28478
 Alpha  occ. eigenvalues --   -0.27421  -0.26079  -0.25461  -0.25429  -0.25107
 Alpha  occ. eigenvalues --   -0.24718  -0.23911  -0.23259  -0.22645  -0.19077
 Alpha virt. eigenvalues --   -0.11560  -0.06676  -0.05920  -0.02085  -0.01217
 Alpha virt. eigenvalues --    0.00187   0.01131   0.01814   0.02204   0.03282
 Alpha virt. eigenvalues --    0.03678   0.04056   0.04497   0.04647   0.04790

 Mulliken charges:
               1
     1  O   -0.204056
     2  O   -0.204347
     3  O   -0.225110
     4  O   -0.205053
     5  O   -0.278912
     6  O   -0.205082
     7  N    0.026507
     8  N   -0.287782
     9  N   -0.093877
    10  N   -0.292742
    11  C    0.195442
    12  C    0.121623
    13  C   -0.131796
    14  C   -0.072641
    15  C   -0.113934
    16  C    0.026294
    17  C   -0.166045
    18  C    0.001986
    19  C   -0.123697
    20  C   -0.131433
    21  C    0.096008
    22  C    0.162945
    23  C   -0.150039
    24  C    0.001080
    25  C    0.049330
    26  C   -0.085918
    27  C   -0.002233
    28  C    0.019273
    29  C    0.151853
    30  C   -0.022925
    31  C    0.005936
    32  C    0.029574
    33  C   -0.092423
    34  C    0.135936
    35  C    0.104832
    36  C   -0.115314
    37  C    0.154823
    38  C    0.142665
    39  C   -0.198991
    40  C    0.185423
    41  C    0.038735
    42  C    0.020139
    43  C   -0.137308
    44  H   -0.028556
    45  H   -0.003493
    46  H    0.039893
    47  H    0.106756
    48  H    0.163997
    49  H    0.026003
    50  H    0.040583
    51  H    0.000913
    52  H    0.005304
    53  H    0.049080
    54  H    0.044901
    55  H    0.033604
    56  H    0.087804
    57  H    0.032800
    58  H    0.121822
    59  H   -0.025748
    60  H    0.202410
    61  H   -0.002479
    62  H   -0.025835
    63  H    0.067622
    64  H    0.072220
    65  H    0.074101
    66  H    0.026751
    67  H    0.028249
    68  H    0.065120
    69  H    0.005271
    70  H    0.052366
    71  H    0.066158
    72  H    0.175204
    73  H   -0.071141
    74  H    0.054570
    75  H    0.056576
    76  H    0.038462
    77  H    0.213460
    78  H    0.050294
    79  H    0.026208
 Sum of Mulliken charges =  -0.00000

 Dipole moment (field-independent basis, Debye):
    X=             -0.7410    Y=              1.4274    Z=              2.6723  Tot=              3.1190
 Quadrupole moment (field-independent basis, Debye-Ang):
   XX=           -218.5918   YY=           -248.0032   ZZ=           -262.9596
   XY=            -14.0094   XZ=             36.4390   YZ=              7.4102

 Normal termination of Gaussian 16 at Tue Sep 24 03:18:47 2019.
