 Gaussian 16, Revision A.03,
 Gaussian 16:  ES64L-G16RevA.03 25-Dec-2016

 --------------------------
 # td=(NStates=1) B3LYP/SVP
 --------------------------

 --
 TD
 --
 Symbolic Z-matrix:
 Charge =  0 Multiplicity = 1

                         Standard orientation:
 ---------------------------------------------------------------------
 Center     Atomic      Atomic             Coordinates (Angstroms)
 Number     Number       Type             X           Y           Z
 ---------------------------------------------------------------------
      1          8           0        5.281419   -0.041443   -3.289901
      2          8           0       -2.960568   -3.024194    3.290283
      3          8           0       -3.333321   -0.808425    3.250821
      4          8           0       -1.898786    7.310291    1.415691
      5          8           0       -0.825139    7.110664   -0.550276
      6          8           0       -1.719652   -3.846874   -0.003437
      7          7           0        2.383832    0.895330    0.590295
      8          7           0        4.403746   -0.599565   -1.254622
      9          7           0       -1.928700    0.669093   -0.359143
     10          7           0       -2.694044   -1.826865   -0.548531
     11          6           0        4.818035   -1.301442   -0.055818
     12          6           0        4.422615   -0.326773    1.195403
     13          6           0        2.977721   -0.101537    1.365413
     14          6           0        1.922025   -0.691651    2.135086
     15          6           0        0.672814   -0.062945    1.800975
     16          6           0        1.009180    0.944456    0.847168
     17          6           0        6.318058   -1.358851   -0.259915
     18          6           0       -0.535613   -0.321135    2.590910
     19          6           0        6.666428   -0.850052   -1.371330
     20          6           0        0.187351    1.857804    0.106771
     21          6           0       -1.112587    1.811832   -0.290182
     22          6           0        5.458451   -0.378654   -2.094613
     23          6           0       -1.851022    2.901477   -0.848094
     24          6           0        2.323997   -1.599742    3.246228
     25          6           0        7.147421   -1.875952    0.837795
     26          6           0       -3.108854    2.386802   -1.168375
     27          6           0       -1.128742   -1.707542    2.566927
     28          6           0       -3.088513    0.913116   -0.964716
     29          6           0       -1.538830    4.284226   -0.880445
     30          6           0        8.018892   -0.668861   -2.006661
     31          6           0       -1.781500    5.050425    0.435026
     32          6           0       -4.256809    3.017345   -1.789910
     33          6           0       -4.028263   -0.047280   -1.321737
     34          6           0       -2.585519   -1.804526    3.042973
     35          6           0       -3.718633   -1.460835   -1.165271
     36          6           0        9.188475   -0.558123   -1.371145
     37          6           0       -1.468759    6.613403    0.293531
     38          6           0       -4.538088   -2.699838   -1.661807
     39          6           0       -3.848900   -3.707041   -1.106857
     40          6           0       -2.632076   -3.207890   -0.498912
     41          6           0       -5.820242   -2.623232   -2.215670
     42          6           0       -4.158203   -5.223549   -1.133280
     43          6           0       -6.676076   -3.616832   -2.693126
     44          1           0        4.378387   -2.238494   -0.101100
     45          1           0        5.020578    0.404784    0.991574
     46          1           0        4.766362   -0.861764    2.022853
     47          1           0        2.906382    1.532589   -0.077082
     48          1           0        3.332470   -0.823707   -1.756526
     49          1           0       -0.441115    0.025898    3.543068
     50          1           0       -1.362182    0.266447    2.009183
     51          1           0        0.774430    2.866507   -0.270165
     52          1           0        3.483370   -1.604480    3.561783
     53          1           0        1.601614   -1.620879    4.091830
     54          1           0        2.329877   -2.750825    2.885316
     55          1           0        6.560152   -2.529110    1.378292
     56          1           0        7.159628   -1.185340    1.800547
     57          1           0        8.164937   -2.165645    0.426164
     58          1           0       -1.056562   -2.113691    1.613574
     59          1           0       -0.547650   -2.249409    3.194142
     60          1           0       -1.750844   -0.325458   -0.157946
     61          1           0       -1.956330    4.815089   -1.583840
     62          1           0       -0.458742    4.286193   -0.969324
     63          1           0        7.964504   -0.119551   -3.195241
     64          1           0       -1.206651    4.544649    1.217878
     65          1           0       -2.790162    4.954607    0.867707
     66          1           0       -4.011347    4.166340   -2.181972
     67          1           0       -5.173553    3.119014   -1.082262
     68          1           0       -4.551130    2.593939   -2.764169
     69          1           0       -4.774783    0.408474   -1.895207
     70          1           0        9.330520   -0.705117   -0.255635
     71          1           0       10.197281   -0.405612   -1.935928
     72          1           0       -3.980811   -3.028300    3.550052
     73          1           0       -6.114441   -1.496011   -2.238495
     74          1           0       -5.276727   -5.375143   -0.799787
     75          1           0       -4.400930   -5.666423   -2.079239
     76          1           0       -3.430897   -5.964790   -0.860991
     77          1           0       -1.523641    8.133387    1.278032
     78          1           0       -7.700906   -3.227022   -2.833713
     79          1           0       -6.491943   -4.746879   -2.692859
 ---------------------------------------------------------------------

 SCF Done:  E(RB3LYP) =  -1947.83918859     A.U. after   16 cycles

 Excitation energies and oscillator strengths:

 Excited State   1:      Singlet-A      2.0954 eV  591.71 nm  f=0.4697  <S**2>=0.000
     155 ->156         0.70185
 This state for optimization and/or second-order correction.
 Total Energy, E(TD-HF/TD-DFT) =  -1947.76218535
 Copying the excited state density for this state as the 1-particle RhoCI density.

 The electronic state is 1-A.
 Alpha  occ. eigenvalues --  -19.18680 -19.17946 -19.14597 -19.10657 -19.10374
 Alpha  occ. eigenvalues --  -19.09578 -14.38864 -14.36182 -14.35618 -14.28847
 Alpha  occ. eigenvalues --  -10.33146 -10.30833 -10.28347 -10.26480 -10.24625
 Alpha  occ. eigenvalues --  -10.23999 -10.23645 -10.23613 -10.23605 -10.23456
 Alpha  occ. eigenvalues --  -10.22702 -10.22292 -10.21595 -10.21492 -10.21476
 Alpha  occ. eigenvalues --  -10.21418 -10.21273 -10.21254 -10.21131 -10.20962
 Alpha  occ. eigenvalues --  -10.20924 -10.20421 -10.20400 -10.20192 -10.19834
 Alpha  occ. eigenvalues --  -10.19823 -10.19732 -10.19674 -10.19277 -10.19126
 Alpha  occ. eigenvalues --  -10.18234 -10.18160 -10.17431  -1.11345  -1.08939
 Alpha  occ. eigenvalues --   -1.03046  -1.02156  -1.01135  -0.98356  -0.97348
 Alpha  occ. eigenvalues --   -0.96585  -0.94526  -0.93925  -0.84131  -0.83104
 Alpha  occ. eigenvalues --   -0.81933  -0.81293  -0.80947  -0.79731  -0.77658
 Alpha  occ. eigenvalues --   -0.77216  -0.76536  -0.75735  -0.74276  -0.72745
 Alpha  occ. eigenvalues --   -0.72084  -0.70867  -0.69493  -0.68685  -0.68191
 Alpha  occ. eigenvalues --   -0.67197  -0.66783  -0.65005  -0.61242  -0.60475
 Alpha  occ. eigenvalues --   -0.60012  -0.59915  -0.59138  -0.58197  -0.57188
 Alpha  occ. eigenvalues --   -0.56770  -0.55601  -0.55307  -0.54008  -0.53383
 Alpha  occ. eigenvalues --   -0.52664  -0.52428  -0.51119  -0.50796  -0.49961
 Alpha  occ. eigenvalues --   -0.49375  -0.49005  -0.48306  -0.48078  -0.47509
 Alpha  occ. eigenvalues --   -0.47341  -0.46767  -0.46599  -0.46288  -0.45720
 Alpha  occ. eigenvalues --   -0.45533  -0.45052  -0.44981  -0.44409  -0.44141
 Alpha  occ. eigenvalues --   -0.43963  -0.43493  -0.43050  -0.43024  -0.42210
 Alpha  occ. eigenvalues --   -0.42074  -0.42013  -0.41615  -0.41298  -0.41164
 Alpha  occ. eigenvalues --   -0.40895  -0.40681  -0.40490  -0.39980  -0.39900
 Alpha  occ. eigenvalues --   -0.39744  -0.39484  -0.39228  -0.38655  -0.38255
 Alpha  occ. eigenvalues --   -0.38012  -0.37766  -0.37427  -0.37291  -0.37073
 Alpha  occ. eigenvalues --   -0.36296  -0.36015  -0.35825  -0.35322  -0.34285
 Alpha  occ. eigenvalues --   -0.34204  -0.33804  -0.33718  -0.32033  -0.31566
 Alpha  occ. eigenvalues --   -0.31301  -0.30055  -0.29766  -0.29315  -0.27600
 Alpha  occ. eigenvalues --   -0.26275  -0.25964  -0.25680  -0.25223  -0.25011
 Alpha  occ. eigenvalues --   -0.24645  -0.24493  -0.23593  -0.22655  -0.18666
 Alpha virt. eigenvalues --   -0.10323  -0.06953  -0.05473  -0.00992  -0.00652
 Alpha virt. eigenvalues --   -0.00531   0.00758   0.01545   0.02073   0.02681
 Alpha virt. eigenvalues --    0.03066   0.03408   0.04012   0.04661   0.05496

 Mulliken charges:
               1
     1  O   -0.261739
     2  O   -0.170859
     3  O   -0.293477
     4  O   -0.171789
     5  O   -0.174145
     6  O   -0.195270
     7  N   -0.114916
     8  N   -0.264892
     9  N   -0.053345
    10  N   -0.213281
    11  C    0.087175
    12  C    0.346118
    13  C   -0.063276
    14  C   -0.090184
    15  C   -0.086036
    16  C    0.073687
    17  C   -0.220513
    18  C    0.065826
    19  C   -0.010651
    20  C   -0.130681
    21  C    0.122404
    22  C    0.141078
    23  C   -0.086853
    24  C   -0.003982
    25  C    0.120466
    26  C   -0.086980
    27  C    0.102837
    28  C    0.012657
    29  C    0.227260
    30  C   -0.034386
    31  C   -0.029556
    32  C   -0.007651
    33  C   -0.048162
    34  C    0.127697
    35  C    0.056974
    36  C   -0.095863
    37  C    0.139163
    38  C    0.062929
    39  C   -0.167958
    40  C    0.130193
    41  C   -0.078345
    42  C    0.090579
    43  C   -0.038319
    44  H    0.001372
    45  H   -0.075279
    46  H   -0.046359
    47  H    0.144248
    48  H    0.196440
    49  H   -0.008541
    50  H    0.021299
    51  H    0.022891
    52  H    0.034673
    53  H    0.032991
    54  H    0.026853
    55  H   -0.024459
    56  H    0.034052
    57  H    0.061482
    58  H    0.027586
    59  H   -0.025071
    60  H    0.139854
    61  H   -0.046934
    62  H   -0.011969
    63  H    0.075994
    64  H    0.033996
    65  H    0.027261
    66  H    0.019919
    67  H    0.050840
    68  H    0.042028
    69  H   -0.060757
    70  H    0.036926
    71  H    0.052419
    72  H    0.222545
    73  H    0.023885
    74  H    0.016159
    75  H   -0.004211
    76  H    0.024909
    77  H    0.141093
    78  H    0.033934
    79  H    0.043993
 Sum of Mulliken charges =  -0.00000

 Dipole moment (field-independent basis, Debye):
    X=              1.2264    Y=              0.5036    Z=              3.0546  Tot=              3.3299
 Quadrupole moment (field-independent basis, Debye-Ang):
   XX=           -218.4715   YY=           -243.2856   ZZ=           -266.5812
   XY=             -2.9514   XZ=             33.1174   YZ=              0.1189

 Normal termination of Gaussian 16 at Thu Oct  3 14:37:55 2019.
