 Gaussian 16, Revision A.03,
 Gaussian 16:  ES64L-G16RevA.03 25-Dec-2016

 --------------------------
 # td=(NStates=1) B3LYP/SVP
 --------------------------

 --
 TD
 --
 Symbolic Z-matrix:
 Charge =  0 Multiplicity = 1

                         Standard orientation:
 ---------------------------------------------------------------------
 Center     Atomic      Atomic             Coordinates (Angstroms)
 Number     Number       Type             X           Y           Z
 ---------------------------------------------------------------------
      1          8           0       -3.212268   -1.703621   -2.753051
      2          8           0        3.196323    3.445502    2.703899
      3          8           0        3.547524    2.012821    4.319867
      4          8           0        7.637911   -1.861156   -0.287931
      5          8           0        6.662317   -3.331444   -1.793769
      6          8           0       -2.679230    1.829340    1.143286
      7          7           0       -0.413874   -2.247971    1.162945
      8          7           0       -2.670099   -1.245320   -0.456133
      9          7           0        1.153933    0.048455   -0.719857
     10          7           0       -0.935849    1.476957   -0.383601
     11          6           0       -3.421209   -1.217036    0.748333
     12          6           0       -2.784433   -2.033827    1.821274
     13          6           0       -1.268392   -1.689582    1.983460
     14          6           0       -0.619135   -0.738473    2.933206
     15          6           0        0.755709   -0.866242    2.645518
     16          6           0        0.910376   -1.730485    1.562011
     17          6           0       -4.773004   -1.764851    0.372759
     18          6           0        1.764169    0.047876    3.233791
     19          6           0       -4.745881   -2.175018   -0.847225
     20          6           0        2.037711   -1.695519    0.561441
     21          6           0        2.056560   -0.913583   -0.487883
     22          6           0       -3.351789   -1.674559   -1.531708
     23          6           0        2.997751   -0.865558   -1.576699
     24          6           0       -1.383993    0.082877    3.914761
     25          6           0       -5.802322   -1.883389    1.461937
     26          6           0        2.535478    0.131280   -2.494936
     27          6           0        1.790374    1.454027    2.612010
     28          6           0        1.429733    0.747277   -1.845647
     29          6           0        4.158800   -1.845483   -1.871167
     30          6           0       -5.780030   -2.790781   -1.684973
     31          6           0        5.313953   -1.408682   -0.986622
     32          6           0        3.135308    0.555009   -3.851869
     33          6           0        0.596261    1.714886   -2.227058
     34          6           0        2.961794    2.276381    3.282027
     35          6           0       -0.528873    2.126827   -1.454676
     36          6           0       -6.719553   -3.808370   -1.314432
     37          6           0        6.532032   -2.259727   -1.122942
     38          6           0       -1.316220    3.367234   -1.739146
     39          6           0       -2.235315    3.436099   -0.664047
     40          6           0       -1.953773    2.233573    0.186543
     41          6           0       -1.052348    4.334494   -2.761626
     42          6           0       -3.289687    4.440775   -0.148742
     43          6           0       -1.741613    5.487147   -3.041326
     44          1           0       -3.482754   -0.034295    0.979072
     45          1           0       -2.767853   -2.996139    1.589871
     46          1           0       -3.325223   -1.930843    2.833937
     47          1           0       -0.522469   -2.733283    0.362901
     48          1           0       -2.123774   -0.377054   -0.553648
     49          1           0        1.920274   -0.160245    4.400899
     50          1           0        2.696932   -0.248707    2.902847
     51          1           0        2.801117   -2.438182    0.719040
     52          1           0       -2.234915   -0.591094    4.278608
     53          1           0       -0.581795    0.462087    4.837154
     54          1           0       -2.069441    0.789237    3.436319
     55          1           0       -5.885508   -1.007926    2.182843
     56          1           0       -5.474310   -2.747653    2.244671
     57          1           0       -6.970722   -1.991737    1.188062
     58          1           0        1.767541    1.525534    1.616096
     59          1           0        0.874951    1.992385    2.808630
     60          1           0        0.383082    0.271207   -0.009702
     61          1           0        4.449770   -1.907340   -2.893780
     62          1           0        3.828415   -2.824795   -1.496226
     63          1           0       -5.599129   -2.865175   -2.663022
     64          1           0        4.895732   -1.340913    0.075357
     65          1           0        5.625555   -0.475127   -1.286113
     66          1           0        3.685559   -0.350004   -4.378457
     67          1           0        3.864760    1.309527   -3.719935
     68          1           0        2.422630    0.685493   -4.610468
     69          1           0        0.485919    1.934953   -3.311022
     70          1           0       -6.796621   -4.248046   -0.163643
     71          1           0       -7.308261   -4.338320   -1.988830
     72          1           0        4.017309    3.865739    3.030218
     73          1           0       -0.089861    4.044615   -3.367476
     74          1           0       -4.019648    4.554581   -0.871371
     75          1           0       -3.915235    4.004069    0.609068
     76          1           0       -2.973468    5.346889    0.271165
     77          1           0        8.316797   -2.538355   -0.461817
     78          1           0       -1.551465    5.876621   -3.847568
     79          1           0       -2.753918    5.678317   -2.623663
 ---------------------------------------------------------------------

 SCF Done:  E(RB3LYP) =  -1947.80769804     A.U. after   16 cycles

 Excitation energies and oscillator strengths:

 Excited State   1:      Singlet-A      0.8621 eV 1438.13 nm  f=0.0063  <S**2>=0.000
     155 ->156         0.70428
 This state for optimization and/or second-order correction.
 Total Energy, E(TD-HF/TD-DFT) =  -1947.77601568
 Copying the excited state density for this state as the 1-particle RhoCI density.

 The electronic state is 1-A.
 Alpha  occ. eigenvalues --  -19.18493 -19.18045 -19.14681 -19.12966 -19.11918
 Alpha  occ. eigenvalues --  -19.09737 -14.37332 -14.37033 -14.34163 -14.31752
 Alpha  occ. eigenvalues --  -10.34332 -10.32022 -10.28976 -10.28061 -10.25867
 Alpha  occ. eigenvalues --  -10.25804 -10.24536 -10.23631 -10.23314 -10.22887
 Alpha  occ. eigenvalues --  -10.22450 -10.22427 -10.22383 -10.22248 -10.22157
 Alpha  occ. eigenvalues --  -10.22076 -10.21962 -10.21668 -10.21220 -10.21072
 Alpha  occ. eigenvalues --  -10.20252 -10.20114 -10.19830 -10.19535 -10.19379
 Alpha  occ. eigenvalues --  -10.19299 -10.19207 -10.18988 -10.18924 -10.18619
 Alpha  occ. eigenvalues --  -10.18164 -10.17804 -10.17483  -1.09981  -1.07232
 Alpha  occ. eigenvalues --   -1.02100  -1.01268  -1.00972  -0.99352  -0.98945
 Alpha  occ. eigenvalues --   -0.97215  -0.94671  -0.94500  -0.84527  -0.83737
 Alpha  occ. eigenvalues --   -0.81757  -0.81548  -0.80699  -0.79895  -0.78344
 Alpha  occ. eigenvalues --   -0.77257  -0.76682  -0.76154  -0.73832  -0.73025
 Alpha  occ. eigenvalues --   -0.72029  -0.70926  -0.69986  -0.68296  -0.67950
 Alpha  occ. eigenvalues --   -0.67640  -0.66358  -0.63956  -0.62741  -0.61507
 Alpha  occ. eigenvalues --   -0.60293  -0.59971  -0.59512  -0.58779  -0.57741
 Alpha  occ. eigenvalues --   -0.57513  -0.56276  -0.55257  -0.53937  -0.53466
 Alpha  occ. eigenvalues --   -0.52369  -0.51821  -0.51345  -0.50894  -0.50080
 Alpha  occ. eigenvalues --   -0.49432  -0.48811  -0.48593  -0.48240  -0.47841
 Alpha  occ. eigenvalues --   -0.47452  -0.47361  -0.47178  -0.46731  -0.46350
 Alpha  occ. eigenvalues --   -0.45907  -0.45625  -0.45069  -0.44882  -0.44309
 Alpha  occ. eigenvalues --   -0.44064  -0.43327  -0.43149  -0.42825  -0.42374
 Alpha  occ. eigenvalues --   -0.42079  -0.41786  -0.41475  -0.41294  -0.41120
 Alpha  occ. eigenvalues --   -0.41008  -0.40729  -0.40520  -0.40008  -0.39777
 Alpha  occ. eigenvalues --   -0.39606  -0.39045  -0.38955  -0.38277  -0.37997
 Alpha  occ. eigenvalues --   -0.37541  -0.37324  -0.37265  -0.37111  -0.36732
 Alpha  occ. eigenvalues --   -0.36641  -0.36255  -0.35962  -0.35532  -0.34730
 Alpha  occ. eigenvalues --   -0.33831  -0.33099  -0.32572  -0.32538  -0.31857
 Alpha  occ. eigenvalues --   -0.31391  -0.30295  -0.29933  -0.29831  -0.29415
 Alpha  occ. eigenvalues --   -0.27734  -0.27406  -0.26781  -0.25904  -0.24555
 Alpha  occ. eigenvalues --   -0.24064  -0.23905  -0.22745  -0.22090  -0.18709
 Alpha virt. eigenvalues --   -0.13251  -0.08501  -0.03731  -0.03623  -0.02901
 Alpha virt. eigenvalues --    0.00362   0.00981   0.01806   0.02707   0.03732
 Alpha virt. eigenvalues --    0.04122   0.04496   0.04866   0.05502   0.05622

 Mulliken charges:
               1
     1  O   -0.234422
     2  O   -0.169108
     3  O   -0.239432
     4  O   -0.242985
     5  O   -0.266391
     6  O   -0.247838
     7  N   -0.012168
     8  N   -0.168583
     9  N   -0.084925
    10  N   -0.289876
    11  C   -0.034593
    12  C    0.301854
    13  C   -0.141387
    14  C   -0.119212
    15  C   -0.118721
    16  C   -0.040913
    17  C   -0.089713
    18  C    0.122421
    19  C   -0.102968
    20  C   -0.171925
    21  C    0.185260
    22  C    0.146557
    23  C   -0.127365
    24  C    0.067275
    25  C   -0.015982
    26  C   -0.133121
    27  C    0.083040
    28  C    0.165956
    29  C    0.166684
    30  C    0.043833
    31  C    0.014025
    32  C    0.117139
    33  C   -0.166089
    34  C    0.108783
    35  C    0.070404
    36  C   -0.085876
    37  C    0.186906
    38  C    0.040793
    39  C   -0.205207
    40  C    0.189519
    41  C   -0.087513
    42  C    0.172246
    43  C    0.102800
    44  H    0.085964
    45  H   -0.075605
    46  H    0.009957
    47  H    0.084546
    48  H    0.153501
    49  H    0.053509
    50  H   -0.045492
    51  H   -0.001459
    52  H   -0.004575
    53  H    0.048969
    54  H    0.025513
    55  H    0.020846
    56  H    0.045148
    57  H    0.049161
    58  H   -0.036772
    59  H    0.030379
    60  H    0.218922
    61  H    0.008895
    62  H    0.022242
    63  H   -0.029547
    64  H    0.072200
    65  H    0.013923
    66  H    0.022749
    67  H    0.038881
    68  H    0.018912
    69  H    0.023942
    70  H    0.040931
    71  H    0.016664
    72  H    0.187991
    73  H    0.016801
    74  H    0.000649
    75  H   -0.000181
    76  H    0.028284
    77  H    0.187523
    78  H   -0.051995
    79  H    0.029440
 Sum of Mulliken charges =  -0.00000

 Dipole moment (field-independent basis, Debye):
    X=              2.9747    Y=              3.1230    Z=             -2.1182  Tot=              4.8051
 Quadrupole moment (field-independent basis, Debye-Ang):
   XX=           -244.9401   YY=           -242.7885   ZZ=           -266.8066
   XY=              2.3757   XZ=            -20.5631   YZ=            -17.5675

 Normal termination of Gaussian 16 at Wed Jul 31 05:26:19 2019.
