 Gaussian 16, Revision A.03,
 Gaussian 16:  ES64L-G16RevA.03 25-Dec-2016

 --------------------------
 # td=(NStates=1) B3LYP/SVP
 --------------------------

 --
 TD
 --
 Symbolic Z-matrix:
 Charge =  0 Multiplicity = 1

                         Standard orientation:
 ---------------------------------------------------------------------
 Center     Atomic      Atomic             Coordinates (Angstroms)
 Number     Number       Type             X           Y           Z
 ---------------------------------------------------------------------
      1          8           0       -3.319261   -1.447264   -2.774313
      2          8           0        2.781418    3.539263    3.337121
      3          8           0        3.694981    1.750568    4.373316
      4          8           0        7.811035   -1.527647   -0.816140
      5          8           0        6.700905   -3.162745   -1.976817
      6          8           0       -2.703244    1.667165    1.238993
      7          7           0       -0.009275   -2.359819    1.130500
      8          7           0       -2.672415   -1.263422   -0.551061
      9          7           0        1.094448    0.040422   -0.793525
     10          7           0       -1.068950    1.360200   -0.374994
     11          6           0       -3.304817   -1.433777    0.807146
     12          6           0       -2.438798   -2.324606    1.722226
     13          6           0       -1.053470   -1.848411    1.901815
     14          6           0       -0.474277   -0.998073    2.939046
     15          6           0        0.831813   -0.834849    2.562303
     16          6           0        1.120724   -1.708765    1.411000
     17          6           0       -4.722789   -2.003976    0.410459
     18          6           0        1.778682   -0.029438    3.411939
     19          6           0       -4.710875   -2.125931   -0.934648
     20          6           0        2.204345   -1.839944    0.542364
     21          6           0        2.108295   -0.880330   -0.546774
     22          6           0       -3.455870   -1.522963   -1.547287
     23          6           0        3.018450   -0.735750   -1.702193
     24          6           0       -1.400113   -0.240618    3.850503
     25          6           0       -5.669178   -2.318515    1.456955
     26          6           0        2.449509    0.297778   -2.537554
     27          6           0        1.639260    1.485176    2.911302
     28          6           0        1.308926    0.833685   -1.863173
     29          6           0        4.258212   -1.576173   -2.031396
     30          6           0       -5.767956   -2.625895   -1.821718
     31          6           0        5.458835   -1.295742   -1.099589
     32          6           0        3.116480    0.963453   -3.714186
     33          6           0        0.450852    1.810629   -2.179321
     34          6           0        2.801138    2.151938    3.591611
     35          6           0       -0.666840    2.111695   -1.399210
     36          6           0       -6.791052   -3.423620   -1.586217
     37          6           0        6.710402   -2.119635   -1.365177
     38          6           0       -1.471363    3.340110   -1.610546
     39          6           0       -2.388155    3.245375   -0.485236
     40          6           0       -2.132812    2.054639    0.238702
     41          6           0       -1.239945    4.369114   -2.599852
     42          6           0       -3.409196    4.253611    0.031468
     43          6           0       -2.004935    5.460414   -2.947973
     44          1           0       -3.344923   -0.633618    1.584136
     45          1           0       -2.515521   -3.491245    1.450554
     46          1           0       -3.081374   -2.212735    2.731018
     47          1           0       -0.041660   -2.700834    0.102691
     48          1           0       -1.995182   -0.299318   -0.505256
     49          1           0        1.563183   -0.073335    4.526762
     50          1           0        2.724035   -0.486700    3.338333
     51          1           0        3.074248   -2.458163    0.531280
     52          1           0       -2.407150   -1.000233    4.052961
     53          1           0       -0.921455    0.032993    4.822886
     54          1           0       -1.787458    0.538846    3.293640
     55          1           0       -5.511906   -1.840386    2.535320
     56          1           0       -5.575349   -3.421403    1.824329
     57          1           0       -6.738154   -1.875891    1.041194
     58          1           0        1.982091    1.478427    1.814824
     59          1           0        0.652510    2.030754    2.862213
     60          1           0        0.115572    0.210054   -0.458978
     61          1           0        4.611700   -1.487693   -3.070054
     62          1           0        4.060398   -2.667223   -1.897032
     63          1           0       -5.373859   -2.435305   -2.945153
     64          1           0        5.094227   -1.560640   -0.111267
     65          1           0        5.714999   -0.285471   -1.219971
     66          1           0        3.962578    0.498244   -4.146158
     67          1           0        3.645336    1.937575   -3.564951
     68          1           0        2.192212    1.152784   -4.404153
     69          1           0        0.483913    2.554033   -3.020020
     70          1           0       -7.251764   -3.532988   -0.578000
     71          1           0       -7.435023   -3.828333   -2.450407
     72          1           0        3.490552    3.945842    3.666123
     73          1           0       -0.402855    4.404454   -3.286788
     74          1           0       -4.252153    4.356087   -0.653440
     75          1           0       -3.798384    4.141426    1.075234
     76          1           0       -2.951686    5.468061    0.003811
     77          1           0        8.511769   -2.241993   -0.704185
     78          1           0       -1.574206    6.197476   -3.620303
     79          1           0       -2.973474    5.646438   -2.455649
 ---------------------------------------------------------------------

 SCF Done:  E(RB3LYP) =  -1947.83749387     A.U. after   22 cycles

 Excitation energies and oscillator strengths:

 Excited State   1:      Singlet-A      0.5620 eV 2206.07 nm  f=0.0010  <S**2>=0.000
     155 ->156         0.70152
 This state for optimization and/or second-order correction.
 Total Energy, E(TD-HF/TD-DFT) =  -1947.81684022
 Copying the excited state density for this state as the 1-particle RhoCI density.

 The electronic state is 1-A.
 Alpha  occ. eigenvalues --  -19.19991 -19.15587 -19.14431 -19.13238 -19.12760
 Alpha  occ. eigenvalues --  -19.07473 -14.37835 -14.37272 -14.33555 -14.32075
 Alpha  occ. eigenvalues --  -10.33659 -10.32454 -10.28865 -10.27072 -10.26200
 Alpha  occ. eigenvalues --  -10.25858 -10.25836 -10.23945 -10.23863 -10.23580
 Alpha  occ. eigenvalues --  -10.23132 -10.22831 -10.22723 -10.22427 -10.22207
 Alpha  occ. eigenvalues --  -10.22152 -10.22063 -10.21949 -10.21808 -10.21768
 Alpha  occ. eigenvalues --  -10.21450 -10.21149 -10.20964 -10.20707 -10.20589
 Alpha  occ. eigenvalues --  -10.19613 -10.19420 -10.19116 -10.17972 -10.17721
 Alpha  occ. eigenvalues --  -10.17713 -10.17566 -10.17554  -1.10280  -1.07508
 Alpha  occ. eigenvalues --   -1.04756  -1.02144  -1.00559  -0.99488  -0.98476
 Alpha  occ. eigenvalues --   -0.97510  -0.95163  -0.91407  -0.83909  -0.82695
 Alpha  occ. eigenvalues --   -0.81941  -0.80752  -0.79854  -0.79631  -0.79356
 Alpha  occ. eigenvalues --   -0.77332  -0.76493  -0.76139  -0.74031  -0.73052
 Alpha  occ. eigenvalues --   -0.71344  -0.70313  -0.69701  -0.68458  -0.68192
 Alpha  occ. eigenvalues --   -0.66920  -0.66034  -0.63863  -0.61687  -0.61187
 Alpha  occ. eigenvalues --   -0.60087  -0.59248  -0.57957  -0.57734  -0.57110
 Alpha  occ. eigenvalues --   -0.56334  -0.55781  -0.55042  -0.54164  -0.53324
 Alpha  occ. eigenvalues --   -0.52312  -0.51889  -0.50989  -0.50496  -0.49964
 Alpha  occ. eigenvalues --   -0.49388  -0.49074  -0.48936  -0.48610  -0.47588
 Alpha  occ. eigenvalues --   -0.47263  -0.47031  -0.46431  -0.46264  -0.45828
 Alpha  occ. eigenvalues --   -0.45708  -0.45201  -0.44629  -0.44424  -0.44376
 Alpha  occ. eigenvalues --   -0.43935  -0.43651  -0.43463  -0.42719  -0.42359
 Alpha  occ. eigenvalues --   -0.41623  -0.41499  -0.41121  -0.40910  -0.40625
 Alpha  occ. eigenvalues --   -0.40191  -0.40137  -0.39963  -0.39716  -0.39396
 Alpha  occ. eigenvalues --   -0.39148  -0.39042  -0.38859  -0.38808  -0.38356
 Alpha  occ. eigenvalues --   -0.38125  -0.37974  -0.37227  -0.37076  -0.36729
 Alpha  occ. eigenvalues --   -0.36447  -0.35771  -0.34895  -0.34553  -0.34173
 Alpha  occ. eigenvalues --   -0.34115  -0.33333  -0.32516  -0.32185  -0.31171
 Alpha  occ. eigenvalues --   -0.31090  -0.30261  -0.29946  -0.29578  -0.28640
 Alpha  occ. eigenvalues --   -0.27764  -0.27184  -0.26661  -0.24846  -0.24303
 Alpha  occ. eigenvalues --   -0.23975  -0.23093  -0.22895  -0.22036  -0.18741
 Alpha virt. eigenvalues --   -0.14089  -0.09419  -0.03438  -0.02984  -0.01509
 Alpha virt. eigenvalues --   -0.01271   0.00346   0.01735   0.02802   0.03435
 Alpha virt. eigenvalues --    0.03549   0.03774   0.04127   0.04372   0.04842

 Mulliken charges:
               1
     1  O   -0.265957
     2  O   -0.186188
     3  O   -0.257815
     4  O   -0.211810
     5  O   -0.211108
     6  O   -0.179024
     7  N   -0.050985
     8  N   -0.235911
     9  N   -0.091602
    10  N   -0.351480
    11  C    0.051494
    12  C    0.064194
    13  C   -0.073342
    14  C   -0.088535
    15  C   -0.109675
    16  C    0.022994
    17  C   -0.082251
    18  C    0.110381
    19  C   -0.112820
    20  C   -0.078706
    21  C    0.069329
    22  C    0.149408
    23  C   -0.067274
    24  C    0.063561
    25  C   -0.027265
    26  C   -0.104478
    27  C   -0.024924
    28  C    0.165294
    29  C    0.073515
    30  C   -0.019500
    31  C    0.021942
    32  C    0.055250
    33  C   -0.096632
    34  C    0.160998
    35  C    0.030040
    36  C   -0.070767
    37  C    0.134116
    38  C    0.131571
    39  C   -0.145436
    40  C    0.165240
    41  C   -0.078526
    42  C    0.003658
    43  C   -0.024476
    44  H    0.036207
    45  H    0.008388
    46  H    0.002238
    47  H    0.153410
    48  H    0.230568
    49  H    0.026370
    50  H   -0.006348
    51  H   -0.004210
    52  H    0.016135
    53  H    0.020841
    54  H    0.037014
    55  H    0.028574
    56  H    0.053386
    57  H    0.068703
    58  H    0.051629
    59  H    0.077237
    60  H    0.176429
    61  H    0.016629
    62  H    0.029267
    63  H    0.038881
    64  H    0.039658
    65  H    0.018304
    66  H    0.001777
    67  H    0.035192
    68  H    0.050855
    69  H   -0.007501
    70  H    0.014020
    71  H    0.031864
    72  H    0.125415
    73  H   -0.000579
    74  H    0.043848
    75  H    0.051291
    76  H    0.038938
    77  H    0.205533
    78  H    0.036184
    79  H    0.027354
 Sum of Mulliken charges =  -0.00000

 Dipole moment (field-independent basis, Debye):
    X=              4.3102    Y=              4.2670    Z=             -0.8971  Tot=              6.1310
 Quadrupole moment (field-independent basis, Debye-Ang):
   XX=           -240.8362   YY=           -238.6616   ZZ=           -269.0910
   XY=             -8.3170   XZ=            -23.7701   YZ=            -23.4282

 Normal termination of Gaussian 16 at Sun Jul 28 10:54:19 2019.
