 Gaussian 16, Revision A.03,
 Gaussian 16:  ES64L-G16RevA.03 25-Dec-2016

 --------------------------
 # td=(NStates=1) B3LYP/SVP
 --------------------------

 --
 TD
 --
 Symbolic Z-matrix:
 Charge =  0 Multiplicity = 1

                         Standard orientation:
 ---------------------------------------------------------------------
 Center     Atomic      Atomic             Coordinates (Angstroms)
 Number     Number       Type             X           Y           Z
 ---------------------------------------------------------------------
      1          8           0       -3.145657   -1.028183   -2.882893
      2          8           0        2.796392    2.749313    3.602041
      3          8           0        4.097726    0.808406    4.068098
      4          8           0        7.739486   -1.501455   -0.823291
      5          8           0        6.533402   -2.701402   -2.317625
      6          8           0       -2.654275    1.457159    1.576758
      7          7           0       -0.260811   -2.436151    0.694812
      8          7           0       -2.596945   -1.179404   -0.708113
      9          7           0        1.083684    0.208284   -0.756295
     10          7           0       -1.044694    1.482395   -0.100510
     11          6           0       -3.335112   -1.570435    0.495853
     12          6           0       -2.607384   -2.726363    1.305193
     13          6           0       -1.323449   -2.207197    1.644803
     14          6           0       -0.573482   -1.544119    2.731823
     15          6           0        0.734898   -1.390488    2.360581
     16          6           0        0.968379   -1.940683    1.082138
     17          6           0       -4.618598   -2.088111    0.051095
     18          6           0        1.937682   -0.764076    3.045607
     19          6           0       -4.642489   -1.941200   -1.352682
     20          6           0        2.082941   -1.811790    0.093645
     21          6           0        2.018265   -0.769943   -0.730948
     22          6           0       -3.375008   -1.324362   -1.828391
     23          6           0        3.003425   -0.366220   -1.840975
     24          6           0       -1.350054   -1.012954    3.819560
     25          6           0       -5.674203   -2.362872    0.988900
     26          6           0        2.465180    0.752241   -2.399841
     27          6           0        1.741316    0.784915    3.022326
     28          6           0        1.307806    1.231741   -1.726524
     29          6           0        4.274935   -1.099323   -2.189714
     30          6           0       -5.820973   -2.266726   -2.228087
     31          6           0        5.537082   -0.962143   -1.178112
     32          6           0        3.212561    1.444811   -3.647586
     33          6           0        0.331288    2.185891   -1.903421
     34          6           0        3.001948    1.378960    3.644252
     35          6           0       -0.661993    2.390170   -1.100596
     36          6           0       -6.955324   -2.873627   -2.011392
     37          6           0        6.616746   -1.718998   -1.596828
     38          6           0       -1.477780    3.676319   -0.906862
     39          6           0       -2.355598    3.415150    0.142379
     40          6           0       -2.052912    1.999797    0.608801
     41          6           0       -1.330525    4.826786   -1.713097
     42          6           0       -3.264640    4.315821    0.918969
     43          6           0       -1.985873    5.978750   -1.689126
     44          1           0       -3.319348   -0.681355    1.123863
     45          1           0       -2.649856   -3.481735    0.516771
     46          1           0       -3.232228   -2.953241    2.218841
     47          1           0       -0.444001   -2.914999   -0.219917
     48          1           0       -2.145101   -0.385371   -0.630582
     49          1           0        1.820909   -0.973295    4.139417
     50          1           0        2.817545   -1.328726    2.771426
     51          1           0        2.856165   -2.583274    0.092625
     52          1           0       -1.959545   -1.673665    4.111626
     53          1           0       -0.626986   -0.816166    4.542181
     54          1           0       -1.944685   -0.047225    3.595274
     55          1           0       -5.507512   -2.009751    2.113821
     56          1           0       -5.969382   -3.487226    1.329141
     57          1           0       -6.794639   -2.120678    0.553494
     58          1           0        1.802200    1.184658    2.000644
     59          1           0        0.908898    1.346039    3.667226
     60          1           0        0.254583    0.427226   -0.171015
     61          1           0        4.774305   -0.832378   -3.096515
     62          1           0        4.117920   -2.149343   -2.319484
     63          1           0       -5.332580   -1.845431   -3.113722
     64          1           0        5.207988   -1.378653   -0.157592
     65          1           0        5.635047    0.167143   -1.036874
     66          1           0        3.875589    0.594994   -4.019487
     67          1           0        3.678682    2.344693   -3.142686
     68          1           0        2.286919    1.518497   -4.268289
     69          1           0        0.636350    3.055466   -2.488311
     70          1           0       -7.449542   -3.080376   -0.895893
     71          1           0       -7.720832   -2.723164   -2.894444
     72          1           0        3.556154    2.929954    4.222896
     73          1           0       -0.757946    4.604605   -2.640092
     74          1           0       -4.086289    4.663876    0.248105
     75          1           0       -3.701445    3.768459    1.590085
     76          1           0       -2.839303    5.339179    1.616169
     77          1           0        8.513370   -2.060405   -1.104510
     78          1           0       -1.702955    6.707923   -2.462910
     79          1           0       -2.738008    6.238851   -0.955712
 ---------------------------------------------------------------------

 SCF Done:  E(RB3LYP) =  -1947.76285342     A.U. after   27 cycles

 Excitation energies and oscillator strengths:

 Excited State   1:      Singlet-A      0.6683 eV 1855.33 nm  f=0.0031  <S**2>=0.000
     155 ->156         0.70541
 This state for optimization and/or second-order correction.
 Total Energy, E(TD-HF/TD-DFT) =  -1947.73829531
 Copying the excited state density for this state as the 1-particle RhoCI density.

 The electronic state is 1-A.
 Alpha  occ. eigenvalues --  -19.19005 -19.18697 -19.13970 -19.13540 -19.10970
 Alpha  occ. eigenvalues --  -19.09290 -14.37165 -14.36089 -14.30980 -14.30712
 Alpha  occ. eigenvalues --  -10.33266 -10.32736 -10.27683 -10.27527 -10.26118
 Alpha  occ. eigenvalues --  -10.25820 -10.25120 -10.23556 -10.23246 -10.23014
 Alpha  occ. eigenvalues --  -10.22781 -10.22690 -10.22193 -10.21976 -10.21624
 Alpha  occ. eigenvalues --  -10.21322 -10.21093 -10.21001 -10.20689 -10.20522
 Alpha  occ. eigenvalues --  -10.20420 -10.20170 -10.20160 -10.20039 -10.19972
 Alpha  occ. eigenvalues --  -10.19900 -10.19521 -10.19227 -10.18480 -10.18077
 Alpha  occ. eigenvalues --  -10.16614 -10.16554 -10.14906  -1.09519  -1.08142
 Alpha  occ. eigenvalues --   -1.06957  -1.00923  -1.00628  -0.99421  -0.97256
 Alpha  occ. eigenvalues --   -0.94548  -0.93284  -0.92759  -0.83864  -0.83524
 Alpha  occ. eigenvalues --   -0.81730  -0.80897  -0.80412  -0.80197  -0.79356
 Alpha  occ. eigenvalues --   -0.77627  -0.76619  -0.76070  -0.74732  -0.72958
 Alpha  occ. eigenvalues --   -0.71377  -0.70917  -0.70291  -0.69863  -0.68096
 Alpha  occ. eigenvalues --   -0.66368  -0.65901  -0.63227  -0.61699  -0.61129
 Alpha  occ. eigenvalues --   -0.60168  -0.59831  -0.57686  -0.56725  -0.56081
 Alpha  occ. eigenvalues --   -0.55476  -0.55047  -0.54999  -0.53220  -0.52958
 Alpha  occ. eigenvalues --   -0.52688  -0.51940  -0.51202  -0.50591  -0.50331
 Alpha  occ. eigenvalues --   -0.49693  -0.49304  -0.48638  -0.48480  -0.48008
 Alpha  occ. eigenvalues --   -0.47532  -0.47038  -0.46845  -0.46323  -0.46085
 Alpha  occ. eigenvalues --   -0.45394  -0.44940  -0.44642  -0.44513  -0.43914
 Alpha  occ. eigenvalues --   -0.43594  -0.43159  -0.42860  -0.42610  -0.42535
 Alpha  occ. eigenvalues --   -0.42047  -0.41921  -0.41530  -0.41153  -0.40719
 Alpha  occ. eigenvalues --   -0.40651  -0.40429  -0.40103  -0.39416  -0.39329
 Alpha  occ. eigenvalues --   -0.39220  -0.38963  -0.38797  -0.38487  -0.38372
 Alpha  occ. eigenvalues --   -0.38112  -0.37777  -0.37423  -0.37025  -0.36931
 Alpha  occ. eigenvalues --   -0.36337  -0.35750  -0.35494  -0.34986  -0.34670
 Alpha  occ. eigenvalues --   -0.33497  -0.33223  -0.32864  -0.32283  -0.31548
 Alpha  occ. eigenvalues --   -0.30191  -0.29594  -0.29544  -0.29450  -0.28611
 Alpha  occ. eigenvalues --   -0.28073  -0.27311  -0.25861  -0.25297  -0.24682
 Alpha  occ. eigenvalues --   -0.23837  -0.23129  -0.22627  -0.22218  -0.18211
 Alpha virt. eigenvalues --   -0.13327  -0.07497  -0.04723  -0.03231  -0.02135
 Alpha virt. eigenvalues --   -0.01388   0.01606   0.02489   0.02564   0.03279
 Alpha virt. eigenvalues --    0.04156   0.04202   0.04567   0.04899   0.05003

 Mulliken charges:
               1
     1  O   -0.114235
     2  O   -0.203032
     3  O   -0.309150
     4  O   -0.226072
     5  O   -0.234994
     6  O   -0.258313
     7  N   -0.128306
     8  N   -0.147356
     9  N   -0.110106
    10  N   -0.317541
    11  C   -0.011673
    12  C    0.190692
    13  C   -0.052751
    14  C   -0.141201
    15  C   -0.123339
    16  C   -0.017800
    17  C   -0.033036
    18  C    0.138265
    19  C   -0.202459
    20  C   -0.137312
    21  C    0.189795
    22  C    0.114621
    23  C   -0.020257
    24  C    0.219478
    25  C   -0.071221
    26  C   -0.194323
    27  C   -0.017567
    28  C    0.095277
    29  C    0.094620
    30  C    0.081117
    31  C   -0.049900
    32  C    0.079311
    33  C   -0.068067
    34  C    0.167306
    35  C    0.133115
    36  C   -0.102858
    37  C    0.166325
    38  C    0.089367
    39  C   -0.203083
    40  C    0.172355
    41  C   -0.053296
    42  C    0.115175
    43  C   -0.011715
    44  H    0.044962
    45  H   -0.017935
    46  H    0.007186
    47  H    0.117631
    48  H    0.078162
    49  H   -0.002750
    50  H    0.014024
    51  H    0.021785
    52  H   -0.070637
    53  H   -0.042768
    54  H    0.052796
    55  H    0.043729
    56  H    0.041572
    57  H    0.058108
    58  H    0.040155
    59  H    0.089846
    60  H    0.182289
    61  H    0.000289
    62  H    0.022058
    63  H   -0.004462
    64  H    0.080344
    65  H    0.054675
    66  H    0.041546
    67  H    0.066271
    68  H    0.050192
    69  H   -0.010526
    70  H    0.043823
    71  H    0.040642
    72  H    0.176923
    73  H   -0.000316
    74  H    0.029031
    75  H   -0.037990
    76  H    0.057371
    77  H    0.200590
    78  H    0.027530
    79  H    0.017998
 Sum of Mulliken charges =  -0.00000

 Dipole moment (field-independent basis, Debye):
    X=              3.5594    Y=              3.0128    Z=             -0.5094  Tot=              4.6910
 Quadrupole moment (field-independent basis, Debye-Ang):
   XX=           -238.3105   YY=           -239.6119   ZZ=           -263.6334
   XY=              2.1163   XZ=            -23.1749   YZ=            -10.7220

 Normal termination of Gaussian 16 at Tue Jul 30 05:04:27 2019.
