 Gaussian 16, Revision A.03,
 Gaussian 16:  ES64L-G16RevA.03 25-Dec-2016

 --------------------------
 # td=(NStates=1) B3LYP/SVP
 --------------------------

 --
 TD
 --
 Symbolic Z-matrix:
 Charge =  0 Multiplicity = 1

                         Standard orientation:
 ---------------------------------------------------------------------
 Center     Atomic      Atomic             Coordinates (Angstroms)
 Number     Number       Type             X           Y           Z
 ---------------------------------------------------------------------
      1          8           0        5.363093   -0.110122   -3.207938
      2          8           0       -3.122148   -3.037488    3.077105
      3          8           0       -3.466635   -0.851002    2.770202
      4          8           0       -1.552929    7.281001    1.541576
      5          8           0       -0.264064    7.082140   -0.369579
      6          8           0       -1.773821   -3.900596   -0.090255
      7          7           0        2.292221    0.701030    0.641354
      8          7           0        4.291695   -0.661894   -1.270959
      9          7           0       -1.826786    0.728578   -0.222466
     10          7           0       -2.554195   -1.762651   -0.553240
     11          6           0        4.706647   -1.364253   -0.027639
     12          6           0        4.375159   -0.475820    1.134092
     13          6           0        2.857066   -0.218809    1.416021
     14          6           0        1.869327   -0.751376    2.219920
     15          6           0        0.654331   -0.088795    1.900857
     16          6           0        1.002134    0.944637    0.987736
     17          6           0        6.267989   -1.423098   -0.234947
     18          6           0       -0.689906   -0.287265    2.518189
     19          6           0        6.650392   -0.863293   -1.336640
     20          6           0        0.228501    1.965928    0.304324
     21          6           0       -1.020672    1.898217   -0.245114
     22          6           0        5.438723   -0.435358   -2.123961
     23          6           0       -1.871690    3.043354   -0.892269
     24          6           0        2.007034   -1.960983    3.153330
     25          6           0        7.130848   -2.019210    0.871177
     26          6           0       -3.001709    2.402894   -1.313363
     27          6           0       -1.275035   -1.687555    2.481379
     28          6           0       -2.939577    0.965965   -1.042197
     29          6           0       -1.417045    4.480702   -0.905900
     30          6           0        7.944282   -0.796630   -2.020276
     31          6           0       -1.454627    5.082184    0.465771
     32          6           0       -4.116257    3.129492   -1.956951
     33          6           0       -3.908954    0.001854   -1.451152
     34          6           0       -2.716176   -1.834540    2.853352
     35          6           0       -3.608661   -1.326434   -1.126566
     36          6           0        9.162211   -0.945294   -1.466259
     37          6           0       -0.906503    6.548054    0.446939
     38          6           0       -4.745749   -2.382234   -1.418780
     39          6           0       -3.995881   -3.672215   -1.099845
     40          6           0       -2.697829   -3.217463   -0.440711
     41          6           0       -5.946034   -2.224852   -2.058381
     42          6           0       -4.532817   -5.045543   -1.144431
     43          6           0       -6.840834   -3.184974   -2.541761
     44          1           0        4.306908   -2.425765    0.367688
     45          1           0        4.924330    0.566721    1.054006
     46          1           0        4.828387   -0.839300    2.104120
     47          1           0        2.852088    1.403053    0.098115
     48          1           0        3.352438   -0.946096   -1.692042
     49          1           0       -0.672631   -0.360755    3.645006
     50          1           0       -1.364036    0.458601    2.158388
     51          1           0        0.830280    3.041853    0.246219
     52          1           0        3.243983   -1.965972    3.396723
     53          1           0        1.361596   -1.705816    4.123009
     54          1           0        1.568523   -2.876709    2.807793
     55          1           0        6.665243   -2.862952    1.321391
     56          1           0        7.480513   -1.267567    1.648638
     57          1           0        8.089369   -2.580952    0.547545
     58          1           0       -1.035755   -2.157984    1.432805
     59          1           0       -0.847758   -2.660878    3.071803
     60          1           0       -1.424361   -0.240960   -0.008228
     61          1           0       -2.111880    4.839172   -1.556543
     62          1           0       -0.413586    4.701937   -1.240611
     63          1           0        7.877604   -0.896370   -3.050037
     64          1           0       -0.946448    4.601270    1.242555
     65          1           0       -2.387068    5.109660    0.837064
     66          1           0       -4.003496    4.364638   -1.885632
     67          1           0       -5.101474    2.974299   -1.499301
     68          1           0       -4.244215    2.567342   -3.165794
     69          1           0       -4.893784    0.480559   -1.875448
     70          1           0        9.538213   -0.992153   -0.390061
     71          1           0       10.106993   -0.955760   -2.146271
     72          1           0       -4.208129   -3.023538    3.151456
     73          1           0       -6.092619   -1.103077   -2.228981
     74          1           0       -5.470868   -5.203606   -0.495456
     75          1           0       -4.987043   -5.287999   -2.293991
     76          1           0       -3.774578   -6.044187   -1.110663
     77          1           0       -1.062728    8.161328    1.698280
     78          1           0       -7.682909   -2.958855   -3.227420
     79          1           0       -6.841737   -4.203785   -2.453489
 ---------------------------------------------------------------------

 SCF Done:  E(RB3LYP) =  -1947.79418450     A.U. after   16 cycles

 Excitation energies and oscillator strengths:

 Excited State   1:      Singlet-A      1.9556 eV  634.00 nm  f=0.2716  <S**2>=0.000
     155 ->156         0.69665
 This state for optimization and/or second-order correction.
 Total Energy, E(TD-HF/TD-DFT) =  -1947.72231754
 Copying the excited state density for this state as the 1-particle RhoCI density.

 The electronic state is 1-A.
 Alpha  occ. eigenvalues --  -19.18782 -19.16930 -19.15398 -19.11706 -19.11198
 Alpha  occ. eigenvalues --  -19.09626 -14.37443 -14.36952 -14.34599 -14.29457
 Alpha  occ. eigenvalues --  -10.33165 -10.29951 -10.28645 -10.27572 -10.25511
 Alpha  occ. eigenvalues --  -10.25398 -10.24422 -10.23546 -10.23471 -10.22332
 Alpha  occ. eigenvalues --  -10.22307 -10.22240 -10.21849 -10.21834 -10.21720
 Alpha  occ. eigenvalues --  -10.21596 -10.21595 -10.21462 -10.21417 -10.21313
 Alpha  occ. eigenvalues --  -10.20999 -10.20825 -10.20740 -10.20557 -10.20479
 Alpha  occ. eigenvalues --  -10.20385 -10.20124 -10.19763 -10.19689 -10.19456
 Alpha  occ. eigenvalues --  -10.18477 -10.18288 -10.18030  -1.09525  -1.09136
 Alpha  occ. eigenvalues --   -1.07800  -1.02757  -0.99532  -0.99161  -0.97265
 Alpha  occ. eigenvalues --   -0.96345  -0.92431  -0.91796  -0.83648  -0.82165
 Alpha  occ. eigenvalues --   -0.81030  -0.80336  -0.80187  -0.78939  -0.77718
 Alpha  occ. eigenvalues --   -0.76401  -0.75615  -0.74887  -0.73879  -0.71715
 Alpha  occ. eigenvalues --   -0.71059  -0.69989  -0.68710  -0.68257  -0.67679
 Alpha  occ. eigenvalues --   -0.66627  -0.64271  -0.62779  -0.61294  -0.60266
 Alpha  occ. eigenvalues --   -0.58769  -0.58325  -0.58040  -0.56918  -0.56658
 Alpha  occ. eigenvalues --   -0.55474  -0.54561  -0.54348  -0.53367  -0.52808
 Alpha  occ. eigenvalues --   -0.52557  -0.51669  -0.50509  -0.50268  -0.49609
 Alpha  occ. eigenvalues --   -0.48482  -0.48278  -0.48076  -0.47584  -0.46841
 Alpha  occ. eigenvalues --   -0.46706  -0.46651  -0.46464  -0.46002  -0.45513
 Alpha  occ. eigenvalues --   -0.44900  -0.44470  -0.44245  -0.43970  -0.43537
 Alpha  occ. eigenvalues --   -0.43497  -0.43157  -0.43022  -0.42802  -0.42707
 Alpha  occ. eigenvalues --   -0.42370  -0.41874  -0.41474  -0.41381  -0.41201
 Alpha  occ. eigenvalues --   -0.40554  -0.40253  -0.39841  -0.39534  -0.39396
 Alpha  occ. eigenvalues --   -0.38990  -0.38686  -0.38437  -0.38295  -0.38008
 Alpha  occ. eigenvalues --   -0.37769  -0.37441  -0.37246  -0.37054  -0.36101
 Alpha  occ. eigenvalues --   -0.35858  -0.35487  -0.35036  -0.34643  -0.33995
 Alpha  occ. eigenvalues --   -0.33310  -0.32988  -0.32587  -0.32136  -0.31220
 Alpha  occ. eigenvalues --   -0.30754  -0.29869  -0.29332  -0.28569  -0.28011
 Alpha  occ. eigenvalues --   -0.27674  -0.26186  -0.25961  -0.25299  -0.25258
 Alpha  occ. eigenvalues --   -0.24152  -0.23493  -0.22914  -0.21389  -0.19179
 Alpha virt. eigenvalues --   -0.10845  -0.07134  -0.05019  -0.01036  -0.00832
 Alpha virt. eigenvalues --    0.00713   0.01038   0.01638   0.02048   0.02249
 Alpha virt. eigenvalues --    0.02964   0.03491   0.04504   0.04802   0.05022

 Mulliken charges:
               1
     1  O   -0.105286
     2  O   -0.181785
     3  O   -0.281606
     4  O   -0.305276
     5  O   -0.149074
     6  O   -0.175211
     7  N   -0.017341
     8  N   -0.278150
     9  N   -0.141046
    10  N   -0.258320
    11  C    0.075610
    12  C    0.102540
    13  C   -0.085146
    14  C   -0.141050
    15  C   -0.092362
    16  C    0.003437
    17  C   -0.145852
    18  C    0.140496
    19  C   -0.036364
    20  C   -0.136278
    21  C    0.089016
    22  C    0.130010
    23  C   -0.087885
    24  C    0.028350
    25  C    0.053720
    26  C   -0.101379
    27  C   -0.147328
    28  C    0.141002
    29  C    0.203589
    30  C    0.046307
    31  C    0.073711
    32  C   -0.042255
    33  C   -0.184589
    34  C    0.137183
    35  C    0.137167
    36  C   -0.091819
    37  C    0.140324
    38  C    0.004078
    39  C   -0.133763
    40  C    0.171901
    41  C   -0.024991
    42  C   -0.069161
    43  C   -0.013320
    44  H    0.041039
    45  H    0.000255
    46  H    0.002013
    47  H    0.127214
    48  H    0.153077
    49  H    0.008464
    50  H    0.018083
    51  H    0.026016
    52  H    0.029322
    53  H    0.025557
    54  H    0.042839
    55  H    0.000707
    56  H    0.054159
    57  H    0.030536
    58  H    0.086020
    59  H    0.032286
    60  H    0.198500
    61  H   -0.029462
    62  H    0.019762
    63  H   -0.001201
    64  H    0.023961
    65  H   -0.010730
    66  H    0.053874
    67  H    0.040321
    68  H    0.056639
    69  H    0.025979
    70  H    0.036437
    71  H    0.034899
    72  H    0.236506
    73  H    0.005154
    74  H    0.057307
    75  H    0.041441
    76  H    0.062853
    77  H    0.199033
    78  H    0.028765
    79  H   -0.009428
 Sum of Mulliken charges =  -0.00000

 Dipole moment (field-independent basis, Debye):
    X=              0.2335    Y=              0.6853    Z=              1.8056  Tot=              1.9453
 Quadrupole moment (field-independent basis, Debye-Ang):
   XX=           -214.6004   YY=           -242.1998   ZZ=           -262.9102
   XY=             -2.3585   XZ=             26.9436   YZ=              4.0385

 Normal termination of Gaussian 16 at Sat Sep 28 06:04:33 2019.
