 Gaussian 16, Revision A.03,
 Gaussian 16:  ES64L-G16RevA.03 25-Dec-2016

 --------------------------
 # td=(NStates=1) B3LYP/SVP
 --------------------------

 --
 TD
 --
 Symbolic Z-matrix:
 Charge =  0 Multiplicity = 1

                         Standard orientation:
 ---------------------------------------------------------------------
 Center     Atomic      Atomic             Coordinates (Angstroms)
 Number     Number       Type             X           Y           Z
 ---------------------------------------------------------------------
      1          8           0       -3.370002   -1.222318   -2.942295
      2          8           0        3.152544    2.880433    3.439658
      3          8           0        3.545568    0.949527    4.537158
      4          8           0        7.625940   -1.342712   -0.753947
      5          8           0        6.761179   -2.705994   -2.334878
      6          8           0       -2.679964    1.419049    1.582728
      7          7           0       -0.194126   -2.359925    0.740717
      8          7           0       -2.596450   -1.251235   -0.794028
      9          7           0        1.173632    0.107573   -0.702064
     10          7           0       -0.998886    1.451183   -0.166767
     11          6           0       -3.330951   -1.297067    0.492305
     12          6           0       -2.577139   -2.378522    1.505548
     13          6           0       -1.194622   -2.061538    1.678523
     14          6           0       -0.467838   -1.308348    2.787931
     15          6           0        0.853424   -1.370696    2.336891
     16          6           0        0.990632   -1.962733    1.142927
     17          6           0       -4.642437   -1.975832    0.218765
     18          6           0        1.926734   -0.624116    3.209527
     19          6           0       -4.773759   -2.029528   -1.125079
     20          6           0        2.025295   -1.954845    0.095457
     21          6           0        2.069364   -0.899464   -0.804510
     22          6           0       -3.447119   -1.457653   -1.743181
     23          6           0        2.973506   -0.550567   -1.915056
     24          6           0       -1.147109   -0.679379    3.866959
     25          6           0       -5.705934   -2.169115    1.255229
     26          6           0        2.531670    0.664365   -2.503983
     27          6           0        1.920205    0.869603    2.871196
     28          6           0        1.375629    0.961983   -1.737000
     29          6           0        4.198721   -1.394863   -2.166099
     30          6           0       -5.870950   -2.433900   -2.099739
     31          6           0        5.397471   -1.075933   -1.224046
     32          6           0        3.083349    1.298880   -3.759051
     33          6           0        0.469474    2.074545   -1.986875
     34          6           0        2.916306    1.509168    3.750884
     35          6           0       -0.604415    2.439528   -1.070695
     36          6           0       -7.086003   -3.004844   -1.779940
     37          6           0        6.616040   -1.865992   -1.542717
     38          6           0       -1.535278    3.609042   -1.048066
     39          6           0       -2.335022    3.416365    0.047422
     40          6           0       -2.079697    2.098099    0.643014
     41          6           0       -1.169421    4.762267   -1.908395
     42          6           0       -3.325442    4.279946    0.574573
     43          6           0       -2.026225    5.781691   -2.143319
     44          1           0       -3.174818   -0.270577    1.056055
     45          1           0       -2.632000   -3.362472    0.997275
     46          1           0       -2.955318   -2.285096    2.591260
     47          1           0       -0.494422   -2.411269   -0.240010
     48          1           0       -1.953756   -0.313733   -0.814955
     49          1           0        1.644812   -0.549069    4.374203
     50          1           0        2.825589   -1.122950    2.944129
     51          1           0        2.545348   -2.860384    0.091355
     52          1           0       -1.915497   -1.266954    4.388983
     53          1           0       -0.359512   -0.536923    4.659258
     54          1           0       -1.561296    0.316222    3.601834
     55          1           0       -5.470507   -1.806333    2.403993
     56          1           0       -6.079510   -3.376718    1.428661
     57          1           0       -6.691398   -1.789767    0.815965
     58          1           0        2.100406    1.248272    1.742498
     59          1           0        1.018140    1.419783    3.083278
     60          1           0        0.298419    0.392439   -0.210433
     61          1           0        4.583900   -1.024203   -3.101730
     62          1           0        4.216187   -2.483592   -2.314913
     63          1           0       -5.766636   -2.074030   -3.082940
     64          1           0        4.889268   -1.205525   -0.260833
     65          1           0        5.871078    0.000673   -1.257167
     66          1           0        3.823166    0.585444   -4.046314
     67          1           0        3.429919    2.388290   -3.474221
     68          1           0        2.245013    1.283545   -4.432883
     69          1           0        0.588132    2.816905   -2.721709
     70          1           0       -7.323628   -3.254946   -0.745817
     71          1           0       -7.862532   -3.259065   -2.611855
     72          1           0        3.780190    3.233592    4.079823
     73          1           0       -0.292038    4.497536   -2.596133
     74          1           0       -4.204866    4.223086   -0.200488
     75          1           0       -3.732847    3.918339    1.517765
     76          1           0       -2.967784    5.451558    0.529928
     77          1           0        8.377518   -1.848064   -0.944971
     78          1           0       -1.720915    6.555297   -2.881693
     79          1           0       -3.219862    5.690348   -1.655977
 ---------------------------------------------------------------------

 SCF Done:  E(RB3LYP) =  -1947.82542948     A.U. after   22 cycles

 Excitation energies and oscillator strengths:

 Excited State   1:      Singlet-A      0.5109 eV 2426.74 nm  f=0.0041  <S**2>=0.000
     155 ->156         0.70380
 This state for optimization and/or second-order correction.
 Total Energy, E(TD-HF/TD-DFT) =  -1947.80665396
 Copying the excited state density for this state as the 1-particle RhoCI density.

 The electronic state is 1-A.
 Alpha  occ. eigenvalues --  -19.18283 -19.15561 -19.15247 -19.13720 -19.12585
 Alpha  occ. eigenvalues --  -19.07243 -14.37579 -14.35726 -14.34023 -14.32046
 Alpha  occ. eigenvalues --  -10.33352 -10.30502 -10.30160 -10.27187 -10.26259
 Alpha  occ. eigenvalues --  -10.25806 -10.25774 -10.24130 -10.23520 -10.23478
 Alpha  occ. eigenvalues --  -10.23122 -10.22886 -10.22744 -10.22592 -10.22529
 Alpha  occ. eigenvalues --  -10.22248 -10.22143 -10.22008 -10.21912 -10.21891
 Alpha  occ. eigenvalues --  -10.21638 -10.20045 -10.19961 -10.19496 -10.19446
 Alpha  occ. eigenvalues --  -10.19395 -10.19034 -10.18793 -10.18718 -10.18348
 Alpha  occ. eigenvalues --  -10.17312 -10.16499 -10.16374  -1.12083  -1.09286
 Alpha  occ. eigenvalues --   -1.03988  -1.01395  -1.00397  -1.00020  -0.99993
 Alpha  occ. eigenvalues --   -0.97197  -0.92408  -0.91987  -0.84439  -0.83004
 Alpha  occ. eigenvalues --   -0.81972  -0.80114  -0.79829  -0.79596  -0.78874
 Alpha  occ. eigenvalues --   -0.77396  -0.76065  -0.74989  -0.73920  -0.73170
 Alpha  occ. eigenvalues --   -0.71315  -0.70746  -0.70469  -0.68022  -0.67754
 Alpha  occ. eigenvalues --   -0.65794  -0.65519  -0.63542  -0.61329  -0.60919
 Alpha  occ. eigenvalues --   -0.58943  -0.58298  -0.57749  -0.57156  -0.57130
 Alpha  occ. eigenvalues --   -0.56540  -0.54716  -0.54028  -0.53223  -0.52676
 Alpha  occ. eigenvalues --   -0.52533  -0.51625  -0.51319  -0.50800  -0.49881
 Alpha  occ. eigenvalues --   -0.49520  -0.49206  -0.48936  -0.48277  -0.47500
 Alpha  occ. eigenvalues --   -0.47443  -0.47170  -0.46762  -0.46595  -0.45535
 Alpha  occ. eigenvalues --   -0.45090  -0.44862  -0.44423  -0.44212  -0.43977
 Alpha  occ. eigenvalues --   -0.43859  -0.43599  -0.43303  -0.42584  -0.42363
 Alpha  occ. eigenvalues --   -0.41666  -0.41584  -0.41362  -0.41037  -0.40600
 Alpha  occ. eigenvalues --   -0.40371  -0.40178  -0.40050  -0.39925  -0.39728
 Alpha  occ. eigenvalues --   -0.39398  -0.39002  -0.38608  -0.38498  -0.38385
 Alpha  occ. eigenvalues --   -0.37671  -0.37582  -0.36983  -0.36863  -0.36586
 Alpha  occ. eigenvalues --   -0.35981  -0.35797  -0.35498  -0.34824  -0.34361
 Alpha  occ. eigenvalues --   -0.33907  -0.33645  -0.32892  -0.32230  -0.31658
 Alpha  occ. eigenvalues --   -0.30741  -0.30450  -0.29718  -0.29472  -0.29025
 Alpha  occ. eigenvalues --   -0.28068  -0.27660  -0.26879  -0.25141  -0.24643
 Alpha  occ. eigenvalues --   -0.22924  -0.22600  -0.22220  -0.21933  -0.17839
 Alpha virt. eigenvalues --   -0.13628  -0.09114  -0.03502  -0.02942  -0.00851
 Alpha virt. eigenvalues --    0.01276   0.01618   0.01875   0.02729   0.02818
 Alpha virt. eigenvalues --    0.03096   0.03672   0.04583   0.04918   0.05050

 Mulliken charges:
               1
     1  O   -0.252244
     2  O   -0.256090
     3  O   -0.158199
     4  O   -0.186094
     5  O   -0.159947
     6  O   -0.281327
     7  N   -0.040821
     8  N   -0.175981
     9  N   -0.035013
    10  N   -0.418345
    11  C   -0.076371
    12  C    0.196699
    13  C   -0.172456
    14  C   -0.087450
    15  C   -0.102086
    16  C   -0.061432
    17  C   -0.056951
    18  C    0.124763
    19  C   -0.070153
    20  C   -0.099086
    21  C    0.174075
    22  C    0.088208
    23  C   -0.078498
    24  C    0.086941
    25  C   -0.045407
    26  C   -0.157669
    27  C   -0.039276
    28  C    0.066723
    29  C    0.106931
    30  C    0.023455
    31  C   -0.080444
    32  C    0.149144
    33  C   -0.021293
    34  C    0.119970
    35  C    0.043652
    36  C   -0.063138
    37  C    0.143162
    38  C    0.054481
    39  C   -0.156318
    40  C    0.260573
    41  C   -0.016541
    42  C    0.014034
    43  C   -0.074786
    44  H    0.109072
    45  H   -0.010994
    46  H    0.014211
    47  H    0.124379
    48  H    0.191483
    49  H    0.040259
    50  H   -0.010715
    51  H   -0.000962
    52  H    0.007930
    53  H   -0.020882
    54  H    0.046438
    55  H    0.055824
    56  H    0.044275
    57  H    0.050899
    58  H    0.050214
    59  H    0.026651
    60  H    0.179410
    61  H   -0.019804
    62  H    0.043370
    63  H   -0.004176
    64  H    0.052195
    65  H    0.064082
    66  H    0.014648
    67  H    0.059078
    68  H    0.042132
    69  H   -0.054475
    70  H    0.006207
    71  H    0.040826
    72  H    0.167455
    73  H    0.031994
    74  H    0.058310
    75  H    0.036568
    76  H    0.059648
    77  H    0.149288
    78  H    0.044842
    79  H    0.080929
 Sum of Mulliken charges =  -0.00000

 Dipole moment (field-independent basis, Debye):
    X=              3.8566    Y=              4.7215    Z=             -1.4621  Tot=              6.2692
 Quadrupole moment (field-independent basis, Debye-Ang):
   XX=           -239.3287   YY=           -237.4233   ZZ=           -266.6444
   XY=             -4.3533   XZ=            -21.8608   YZ=            -14.0109

 Normal termination of Gaussian 16 at Wed Jul 24 06:09:45 2019.
