 Gaussian 16, Revision A.03,
 Gaussian 16:  ES64L-G16RevA.03 25-Dec-2016

 --------------------------
 # td=(NStates=1) B3LYP/SVP
 --------------------------

 --
 TD
 --
 Symbolic Z-matrix:
 Charge =  0 Multiplicity = 1

                         Standard orientation:
 ---------------------------------------------------------------------
 Center     Atomic      Atomic             Coordinates (Angstroms)
 Number     Number       Type             X           Y           Z
 ---------------------------------------------------------------------
      1          8           0       -3.396914   -1.031762   -2.984540
      2          8           0        3.159867    2.785210    3.287769
      3          8           0        3.540724    0.890541    4.645446
      4          8           0        7.742597   -1.336009   -0.869590
      5          8           0        6.673481   -2.841504   -2.171073
      6          8           0       -2.622088    1.380638    1.521358
      7          7           0       -0.322954   -2.562594    0.705506
      8          7           0       -2.570133   -1.080259   -0.755227
      9          7           0        1.050372    0.059285   -0.846212
     10          7           0       -0.936620    1.509298   -0.034547
     11          6           0       -3.406645   -1.343545    0.576760
     12          6           0       -2.691490   -2.497333    1.346030
     13          6           0       -1.298631   -2.243759    1.606939
     14          6           0       -0.602279   -1.530033    2.736805
     15          6           0        0.763735   -1.480486    2.326439
     16          6           0        0.884154   -2.029514    0.986099
     17          6           0       -4.718680   -1.742652    0.149979
     18          6           0        1.913470   -0.739100    2.978693
     19          6           0       -4.789882   -1.832817   -1.286991
     20          6           0        1.988910   -2.078511   -0.056476
     21          6           0        2.022486   -0.975208   -0.788471
     22          6           0       -3.514947   -1.261333   -1.744277
     23          6           0        2.990275   -0.539548   -1.903507
     24          6           0       -1.219148   -0.895525    3.875367
     25          6           0       -5.819610   -2.069576    1.128672
     26          6           0        2.560024    0.668689   -2.445932
     27          6           0        1.914321    0.838574    2.760103
     28          6           0        1.379614    1.099689   -1.745589
     29          6           0        4.227594   -1.384779   -2.070761
     30          6           0       -5.878037   -2.349651   -2.222374
     31          6           0        5.394378   -0.995361   -1.262668
     32          6           0        3.165973    1.558966   -3.459971
     33          6           0        0.584361    2.246657   -1.874512
     34          6           0        3.037687    1.434592    3.678819
     35          6           0       -0.546118    2.400489   -0.959842
     36          6           0       -7.091503   -2.991640   -1.882961
     37          6           0        6.681187   -1.818775   -1.527615
     38          6           0       -1.376484    3.627814   -0.892287
     39          6           0       -2.283430    3.477302    0.119448
     40          6           0       -2.005006    2.053384    0.624770
     41          6           0       -1.114024    4.855810   -1.728158
     42          6           0       -3.281973    4.322882    0.739622
     43          6           0       -2.000785    5.876404   -1.863620
     44          1           0       -3.377882   -0.379817    1.145600
     45          1           0       -2.854718   -3.565202    0.871208
     46          1           0       -3.180995   -2.452858    2.388918
     47          1           0       -0.575175   -2.924293   -0.260394
     48          1           0       -2.166361   -0.168783   -0.673011
     49          1           0        1.973117   -0.941880    4.041793
     50          1           0        2.892619   -1.247381    2.614228
     51          1           0        2.799231   -2.900842   -0.023715
     52          1           0       -1.816122   -1.718869    4.240928
     53          1           0       -0.308938   -0.878876    4.747886
     54          1           0       -1.732873    0.166645    3.558445
     55          1           0       -5.374369   -1.926161    2.306067
     56          1           0       -6.087143   -3.291009    1.168956
     57          1           0       -6.839037   -1.454771    1.025387
     58          1           0        2.192197    1.293265    1.657667
     59          1           0        0.980636    1.360715    2.852827
     60          1           0        0.311913    0.267731   -0.168467
     61          1           0        4.475331   -1.439567   -3.156679
     62          1           0        3.860635   -2.406298   -2.120187
     63          1           0       -5.624746   -2.040343   -3.388375
     64          1           0        5.268531   -1.075403   -0.202554
     65          1           0        5.723068    0.179156   -1.401313
     66          1           0        4.287281    1.150325   -3.765381
     67          1           0        3.519675    2.491406   -2.640439
     68          1           0        2.597292    1.751839   -4.423029
     69          1           0        0.884601    2.884101   -2.587314
     70          1           0       -7.237282   -3.216193   -0.901038
     71          1           0       -7.748873   -3.169488   -2.850165
     72          1           0        3.756473    3.138466    3.819221
     73          1           0       -0.202205    4.703410   -2.310700
     74          1           0       -4.391454    3.877078    0.174072
     75          1           0       -3.464687    3.882485    1.917356
     76          1           0       -2.835556    5.355015    0.840783
     77          1           0        8.308772   -2.166380   -1.015295
     78          1           0       -1.626587    6.538614   -2.625551
     79          1           0       -2.929305    6.094503   -1.290524
 ---------------------------------------------------------------------

 SCF Done:  E(RB3LYP) =  -1947.78409509     A.U. after   21 cycles

 Excitation energies and oscillator strengths:

 Excited State   1:      Singlet-A      0.7824 eV 1584.60 nm  f=0.0018  <S**2>=0.000
     155 ->156         0.70464
 This state for optimization and/or second-order correction.
 Total Energy, E(TD-HF/TD-DFT) =  -1947.75534121
 Copying the excited state density for this state as the 1-particle RhoCI density.

 The electronic state is 1-A.
 Alpha  occ. eigenvalues --  -19.20732 -19.17355 -19.14510 -19.14058 -19.12759
 Alpha  occ. eigenvalues --  -19.07282 -14.36750 -14.36562 -14.32790 -14.31546
 Alpha  occ. eigenvalues --  -10.33684 -10.32675 -10.29152 -10.26744 -10.26442
 Alpha  occ. eigenvalues --  -10.26153 -10.25431 -10.24630 -10.23577 -10.23470
 Alpha  occ. eigenvalues --  -10.23342 -10.23132 -10.22945 -10.22757 -10.22040
 Alpha  occ. eigenvalues --  -10.21977 -10.21639 -10.21619 -10.21483 -10.21302
 Alpha  occ. eigenvalues --  -10.21188 -10.20987 -10.20978 -10.20799 -10.20663
 Alpha  occ. eigenvalues --  -10.20492 -10.19778 -10.19546 -10.19315 -10.19140
 Alpha  occ. eigenvalues --  -10.19026 -10.17116 -10.17003  -1.12185  -1.09034
 Alpha  occ. eigenvalues --   -1.02562  -1.01770  -1.01535  -0.97885  -0.97534
 Alpha  occ. eigenvalues --   -0.96015  -0.93948  -0.90024  -0.83568  -0.82792
 Alpha  occ. eigenvalues --   -0.81790  -0.79813  -0.79078  -0.78671  -0.78175
 Alpha  occ. eigenvalues --   -0.76783  -0.75803  -0.74888  -0.73338  -0.72337
 Alpha  occ. eigenvalues --   -0.70760  -0.69805  -0.68829  -0.68630  -0.66718
 Alpha  occ. eigenvalues --   -0.65822  -0.65662  -0.62734  -0.60755  -0.60192
 Alpha  occ. eigenvalues --   -0.59850  -0.58917  -0.58190  -0.57186  -0.55803
 Alpha  occ. eigenvalues --   -0.55204  -0.54139  -0.53635  -0.53160  -0.51803
 Alpha  occ. eigenvalues --   -0.51562  -0.51402  -0.50856  -0.50487  -0.49894
 Alpha  occ. eigenvalues --   -0.49062  -0.48958  -0.48302  -0.47880  -0.47232
 Alpha  occ. eigenvalues --   -0.47165  -0.46706  -0.46198  -0.45957  -0.45556
 Alpha  occ. eigenvalues --   -0.45388  -0.45043  -0.44600  -0.44170  -0.43777
 Alpha  occ. eigenvalues --   -0.43589  -0.43357  -0.43034  -0.42712  -0.42536
 Alpha  occ. eigenvalues --   -0.41636  -0.41513  -0.41245  -0.40899  -0.40430
 Alpha  occ. eigenvalues --   -0.40214  -0.39971  -0.39357  -0.39211  -0.39119
 Alpha  occ. eigenvalues --   -0.38759  -0.38427  -0.37998  -0.37524  -0.37345
 Alpha  occ. eigenvalues --   -0.36959  -0.36773  -0.36639  -0.36519  -0.35947
 Alpha  occ. eigenvalues --   -0.35398  -0.35028  -0.34783  -0.34430  -0.34101
 Alpha  occ. eigenvalues --   -0.33782  -0.33186  -0.32819  -0.32357  -0.31900
 Alpha  occ. eigenvalues --   -0.30804  -0.29953  -0.29507  -0.29046  -0.28809
 Alpha  occ. eigenvalues --   -0.28674  -0.26857  -0.26604  -0.25278  -0.24040
 Alpha  occ. eigenvalues --   -0.23187  -0.22318  -0.21997  -0.21699  -0.18064
 Alpha virt. eigenvalues --   -0.12826  -0.07553  -0.05278  -0.02369  -0.01159
 Alpha virt. eigenvalues --   -0.00967   0.01011   0.01066   0.02192   0.02483
 Alpha virt. eigenvalues --    0.03196   0.03731   0.03827   0.04508   0.04745

 Mulliken charges:
               1
     1  O   -0.294305
     2  O   -0.164343
     3  O   -0.213034
     4  O   -0.177894
     5  O   -0.227303
     6  O   -0.263659
     7  N   -0.030822
     8  N   -0.192628
     9  N   -0.138572
    10  N   -0.278378
    11  C    0.013357
    12  C    0.146485
    13  C   -0.110133
    14  C   -0.113721
    15  C   -0.106853
    16  C   -0.053491
    17  C   -0.111852
    18  C    0.096732
    19  C   -0.029651
    20  C   -0.164754
    21  C    0.210208
    22  C    0.128264
    23  C   -0.106267
    24  C    0.006942
    25  C   -0.076894
    26  C   -0.078812
    27  C   -0.050635
    28  C    0.093493
    29  C    0.132871
    30  C   -0.073795
    31  C    0.006464
    32  C   -0.046234
    33  C   -0.027410
    34  C    0.169863
    35  C    0.138766
    36  C   -0.001396
    37  C    0.131185
    38  C   -0.002854
    39  C   -0.172401
    40  C    0.179168
    41  C   -0.007013
    42  C   -0.050946
    43  C    0.000655
    44  H    0.070973
    45  H    0.014841
    46  H   -0.002452
    47  H    0.136134
    48  H    0.145246
    49  H    0.012365
    50  H    0.001061
    51  H    0.049684
    52  H    0.013824
    53  H    0.018376
    54  H    0.091731
    55  H    0.041329
    56  H    0.066808
    57  H    0.077383
    58  H    0.039935
    59  H    0.044568
    60  H    0.181670
    61  H    0.000618
    62  H    0.013738
    63  H    0.055840
    64  H    0.033723
    65  H    0.055059
    66  H    0.043363
    67  H    0.066299
    68  H    0.078625
    69  H   -0.075888
    70  H   -0.020062
    71  H    0.056366
    72  H    0.116969
    73  H   -0.004404
    74  H    0.091629
    75  H    0.065171
    76  H    0.064259
    77  H    0.193411
    78  H    0.023901
    79  H    0.049505
 Sum of Mulliken charges =  -0.00000

 Dipole moment (field-independent basis, Debye):
    X=              3.8880    Y=              3.8059    Z=             -0.6758  Tot=              5.4825
 Quadrupole moment (field-independent basis, Debye-Ang):
   XX=           -234.6086   YY=           -234.8252   ZZ=           -274.5250
   XY=              1.7061   XZ=            -21.5243   YZ=             -9.8580

 Normal termination of Gaussian 16 at Sat Jul 27 23:22:26 2019.
