 Gaussian 16, Revision A.03,
 Gaussian 16:  ES64L-G16RevA.03 25-Dec-2016

 --------------------------
 # td=(NStates=1) B3LYP/SVP
 --------------------------

 --
 TD
 --
 Symbolic Z-matrix:
 Charge =  0 Multiplicity = 1

                         Standard orientation:
 ---------------------------------------------------------------------
 Center     Atomic      Atomic             Coordinates (Angstroms)
 Number     Number       Type             X           Y           Z
 ---------------------------------------------------------------------
      1          8           0        5.398312   -0.085851   -3.328471
      2          8           0       -2.902863   -3.012790    3.164956
      3          8           0       -3.404102   -0.775435    2.877036
      4          8           0       -1.892594    7.298406    1.455227
      5          8           0       -0.983898    7.081882   -0.465039
      6          8           0       -1.521513   -4.025932   -0.000874
      7          7           0        2.243779    0.928162    0.531838
      8          7           0        4.371568   -0.557725   -1.228028
      9          7           0       -1.777202    0.591529   -0.509145
     10          7           0       -2.314622   -1.909228   -0.634189
     11          6           0        4.693537   -1.077789    0.046833
     12          6           0        4.418392   -0.138377    1.264113
     13          6           0        2.885590    0.092586    1.356808
     14          6           0        1.978162   -0.482695    2.184149
     15          6           0        0.736292    0.042314    1.800244
     16          6           0        0.999325    1.020847    0.809878
     17          6           0        6.171537   -1.281864   -0.127830
     18          6           0       -0.548228   -0.101958    2.660264
     19          6           0        6.685709   -0.784917   -1.342991
     20          6           0        0.157185    2.084716    0.140238
     21          6           0       -1.127655    1.821986   -0.384648
     22          6           0        5.425110   -0.487066   -2.088531
     23          6           0       -2.070783    2.873611   -0.889109
     24          6           0        2.182921   -1.644113    3.221802
     25          6           0        7.051939   -1.857758    0.964009
     26          6           0       -3.133196    2.217141   -1.431712
     27          6           0       -1.149069   -1.567679    2.666292
     28          6           0       -2.991890    0.804235   -1.147705
     29          6           0       -1.738921    4.370915   -0.948336
     30          6           0        8.006121   -0.718810   -1.931696
     31          6           0       -2.026225    5.146742    0.348064
     32          6           0       -4.345643    2.898727   -2.043794
     33          6           0       -3.908043   -0.235698   -1.561795
     34          6           0       -2.585309   -1.704937    2.883294
     35          6           0       -3.551057   -1.600938   -1.181403
     36          6           0        9.193156   -0.530782   -1.425393
     37          6           0       -1.613692    6.541170    0.442333
     38          6           0       -4.306646   -2.845687   -1.472439
     39          6           0       -3.703416   -3.887771   -1.045923
     40          6           0       -2.384256   -3.321036   -0.582571
     41          6           0       -5.734255   -2.776404   -2.064305
     42          6           0       -4.065070   -5.289336   -0.857432
     43          6           0       -6.657477   -3.739572   -2.202310
     44          1           0        3.982196   -2.002826   -0.033138
     45          1           0        4.838605    0.803133    1.041557
     46          1           0        4.863646   -0.546661    2.264413
     47          1           0        2.752856    1.446834   -0.091080
     48          1           0        3.500439   -0.558692   -1.620902
     49          1           0       -0.473178    0.379590    3.641325
     50          1           0       -1.342250    0.531511    2.209347
     51          1           0        0.466158    3.150316    0.289304
     52          1           0        3.266640   -1.922604    3.513283
     53          1           0        1.627560   -1.181598    4.169905
     54          1           0        1.591818   -2.505121    2.825148
     55          1           0        6.527516   -2.450493    1.532848
     56          1           0        7.746779   -1.010975    1.492818
     57          1           0        7.990441   -2.443714    0.643910
     58          1           0       -0.957037   -1.842196    1.533856
     59          1           0       -0.611262   -2.216660    3.312491
     60          1           0       -1.305887   -0.286562   -0.450495
     61          1           0       -2.228809    4.766542   -1.817159
     62          1           0       -0.781674    4.430057   -1.073357
     63          1           0        7.776968   -0.550067   -2.978439
     64          1           0       -1.662365    4.518646    1.122831
     65          1           0       -3.194252    5.007194    0.532783
     66          1           0       -4.081109    4.010551   -2.254841
     67          1           0       -5.131904    2.887586   -1.327146
     68          1           0       -4.710943    2.224629   -3.021581
     69          1           0       -4.806781    0.091864   -2.005907
     70          1           0        9.355973   -0.888411   -0.329187
     71          1           0       10.210362   -0.218413   -1.826653
     72          1           0       -3.805646   -2.951901    3.279775
     73          1           0       -6.137786   -1.665642   -2.103281
     74          1           0       -4.961235   -5.381339   -0.076585
     75          1           0       -4.395933   -5.679898   -1.870784
     76          1           0       -3.286265   -5.922300   -0.490749
     77          1           0       -1.317984    8.152815    1.285716
     78          1           0       -7.718458   -3.582771   -2.610982
     79          1           0       -6.463478   -4.842671   -1.805457
 ---------------------------------------------------------------------

 SCF Done:  E(RB3LYP) =  -1947.86669837     A.U. after   18 cycles

 Excitation energies and oscillator strengths:

 Excited State   1:      Singlet-A      2.1217 eV  584.35 nm  f=0.3024  <S**2>=0.000
     154 ->156        -0.12487
     155 ->156         0.68852
 This state for optimization and/or second-order correction.
 Total Energy, E(TD-HF/TD-DFT) =  -1947.78872575
 Copying the excited state density for this state as the 1-particle RhoCI density.

 The electronic state is 1-A.
 Alpha  occ. eigenvalues --  -19.19706 -19.16897 -19.11990 -19.11572 -19.10475
 Alpha  occ. eigenvalues --  -19.08918 -14.38144 -14.37427 -14.35806 -14.30448
 Alpha  occ. eigenvalues --  -10.32621 -10.30848 -10.28439 -10.26761 -10.26274
 Alpha  occ. eigenvalues --  -10.25949 -10.25575 -10.24958 -10.23096 -10.22721
 Alpha  occ. eigenvalues --  -10.22675 -10.22645 -10.22580 -10.22561 -10.22175
 Alpha  occ. eigenvalues --  -10.21732 -10.21547 -10.21495 -10.21187 -10.21099
 Alpha  occ. eigenvalues --  -10.20981 -10.20937 -10.20702 -10.20641 -10.20499
 Alpha  occ. eigenvalues --  -10.20240 -10.19992 -10.19812 -10.19279 -10.18989
 Alpha  occ. eigenvalues --  -10.18724 -10.18374 -10.18161  -1.12230  -1.08539
 Alpha  occ. eigenvalues --   -1.02536  -1.00299  -0.99849  -0.99452  -0.98820
 Alpha  occ. eigenvalues --   -0.98399  -0.93452  -0.91691  -0.83843  -0.82373
 Alpha  occ. eigenvalues --   -0.81442  -0.81178  -0.80966  -0.79943  -0.78529
 Alpha  occ. eigenvalues --   -0.77161  -0.76266  -0.75708  -0.74544  -0.72644
 Alpha  occ. eigenvalues --   -0.72004  -0.70877  -0.70368  -0.69940  -0.69133
 Alpha  occ. eigenvalues --   -0.67859  -0.66346  -0.64446  -0.62594  -0.61012
 Alpha  occ. eigenvalues --   -0.60252  -0.59182  -0.58363  -0.57957  -0.57532
 Alpha  occ. eigenvalues --   -0.56568  -0.56114  -0.55215  -0.54280  -0.53798
 Alpha  occ. eigenvalues --   -0.52721  -0.52232  -0.51364  -0.51183  -0.50551
 Alpha  occ. eigenvalues --   -0.49388  -0.48810  -0.48717  -0.48067  -0.47721
 Alpha  occ. eigenvalues --   -0.47263  -0.47141  -0.46746  -0.46329  -0.45428
 Alpha  occ. eigenvalues --   -0.45124  -0.44794  -0.44686  -0.44408  -0.44111
 Alpha  occ. eigenvalues --   -0.44000  -0.43764  -0.43176  -0.42998  -0.42535
 Alpha  occ. eigenvalues --   -0.42060  -0.41988  -0.41365  -0.41281  -0.41165
 Alpha  occ. eigenvalues --   -0.40746  -0.40616  -0.40481  -0.39903  -0.39742
 Alpha  occ. eigenvalues --   -0.39467  -0.39430  -0.39081  -0.38332  -0.38260
 Alpha  occ. eigenvalues --   -0.38090  -0.37631  -0.37503  -0.37334  -0.37073
 Alpha  occ. eigenvalues --   -0.36967  -0.36294  -0.35521  -0.34328  -0.34031
 Alpha  occ. eigenvalues --   -0.33825  -0.33013  -0.32808  -0.32142  -0.30972
 Alpha  occ. eigenvalues --   -0.30775  -0.30665  -0.28602  -0.28230  -0.28055
 Alpha  occ. eigenvalues --   -0.27306  -0.26901  -0.25887  -0.25004  -0.24480
 Alpha  occ. eigenvalues --   -0.24228  -0.24136  -0.23936  -0.22854  -0.20089
 Alpha virt. eigenvalues --   -0.11369  -0.06554  -0.06283  -0.01192  -0.00913
 Alpha virt. eigenvalues --    0.00507   0.00602   0.02027   0.02347   0.03049
 Alpha virt. eigenvalues --    0.03202   0.04382   0.04610   0.04794   0.05291

 Mulliken charges:
               1
     1  O   -0.321281
     2  O   -0.150360
     3  O   -0.259335
     4  O   -0.163820
     5  O   -0.276827
     6  O   -0.235810
     7  N    0.105080
     8  N   -0.136295
     9  N   -0.056647
    10  N   -0.307526
    11  C    0.066262
    12  C    0.246062
    13  C   -0.198057
    14  C   -0.108689
    15  C   -0.142536
    16  C   -0.028503
    17  C   -0.194952
    18  C    0.086535
    19  C   -0.027196
    20  C   -0.102949
    21  C    0.085373
    22  C    0.146257
    23  C   -0.140658
    24  C    0.030400
    25  C    0.084404
    26  C   -0.133037
    27  C   -0.023686
    28  C    0.110559
    29  C    0.246096
    30  C    0.051528
    31  C   -0.030943
    32  C    0.043667
    33  C   -0.062057
    34  C    0.140549
    35  C    0.106607
    36  C   -0.075519
    37  C    0.143378
    38  C    0.049614
    39  C   -0.186508
    40  C    0.150270
    41  C   -0.013312
    42  C    0.073043
    43  C   -0.099975
    44  H    0.046859
    45  H   -0.028591
    46  H    0.038710
    47  H    0.074090
    48  H    0.099471
    49  H    0.009188
    50  H   -0.001122
    51  H    0.028644
    52  H    0.024806
    53  H    0.040012
    54  H    0.064806
    55  H   -0.018670
    56  H    0.051486
    57  H    0.036304
    58  H    0.102547
    59  H    0.018609
    60  H    0.146177
    61  H    0.008216
    62  H   -0.052920
    63  H    0.008689
    64  H    0.027716
    65  H    0.049582
    66  H    0.039291
    67  H    0.036658
    68  H    0.057370
    69  H   -0.039704
    70  H    0.011430
    71  H    0.051355
    72  H    0.135613
    73  H    0.023332
    74  H    0.048965
    75  H    0.041587
    76  H    0.019758
    77  H    0.223627
    78  H    0.045609
    79  H    0.041292
 Sum of Mulliken charges =  -0.00000

 Dipole moment (field-independent basis, Debye):
    X=             -1.0409    Y=              2.1916    Z=              3.7408  Tot=              4.4587
 Quadrupole moment (field-independent basis, Debye-Ang):
   XX=           -220.1001   YY=           -246.0774   ZZ=           -270.2088
   XY=             -3.8407   XZ=             36.6818   YZ=              5.8348

 Normal termination of Gaussian 16 at Thu Sep 26 22:31:10 2019.
