 Gaussian 16, Revision A.03,
 Gaussian 16:  ES64L-G16RevA.03 25-Dec-2016

 --------------------------
 # td=(NStates=1) B3LYP/SVP
 --------------------------

 --
 TD
 --
 Symbolic Z-matrix:
 Charge =  0 Multiplicity = 1

                         Standard orientation:
 ---------------------------------------------------------------------
 Center     Atomic      Atomic             Coordinates (Angstroms)
 Number     Number       Type             X           Y           Z
 ---------------------------------------------------------------------
      1          8           0       -3.318819   -1.187320   -2.908684
      2          8           0        2.863721    3.192150    3.269677
      3          8           0        3.650754    1.402168    4.353037
      4          8           0        7.628570   -1.508968   -0.787388
      5          8           0        6.624734   -2.987485   -2.049957
      6          8           0       -2.544932    1.511317    1.508238
      7          7           0       -0.234786   -2.496175    0.849889
      8          7           0       -2.507514   -1.460331   -0.654473
      9          7           0        1.200623    0.143998   -0.718030
     10          7           0       -1.019170    1.501768   -0.165322
     11          6           0       -3.240717   -1.487227    0.609161
     12          6           0       -2.631886   -2.502835    1.635025
     13          6           0       -1.074528   -2.119269    1.785660
     14          6           0       -0.404992   -1.350480    2.757441
     15          6           0        0.884969   -1.271205    2.411364
     16          6           0        0.977878   -1.960378    1.152706
     17          6           0       -4.678187   -1.944431    0.296988
     18          6           0        1.970753   -0.465412    3.061185
     19          6           0       -4.784681   -1.971707   -1.141634
     20          6           0        2.111408   -1.910135    0.235204
     21          6           0        2.128695   -0.774149   -0.667450
     22          6           0       -3.517203   -1.447575   -1.744622
     23          6           0        3.010665   -0.535730   -1.847549
     24          6           0       -1.098310   -0.610796    3.854240
     25          6           0       -5.619339   -2.130250    1.320719
     26          6           0        2.496907    0.630510   -2.460108
     27          6           0        1.877260    1.045346    2.728707
     28          6           0        1.313022    1.017814   -1.780096
     29          6           0        4.221003   -1.335934   -2.222080
     30          6           0       -5.857094   -2.441024   -1.997923
     31          6           0        5.381737   -1.023534   -1.178951
     32          6           0        3.051826    1.263060   -3.650919
     33          6           0        0.474803    2.088069   -2.017799
     34          6           0        2.904889    1.867794    3.550419
     35          6           0       -0.627265    2.320722   -1.128202
     36          6           0       -6.858693   -3.331753   -1.661017
     37          6           0        6.574840   -2.016808   -1.350600
     38          6           0       -1.530559    3.588211   -1.240556
     39          6           0       -2.435675    3.248521   -0.127974
     40          6           0       -2.052701    2.058302    0.505433
     41          6           0       -1.428264    4.641221   -2.172552
     42          6           0       -3.506639    4.211746    0.463829
     43          6           0       -2.090940    5.795565   -2.142583
     44          1           0       -3.060180   -0.426821    1.066127
     45          1           0       -2.747105   -3.475075    1.242354
     46          1           0       -3.061424   -2.492164    2.755366
     47          1           0       -0.389597   -2.813138   -0.119582
     48          1           0       -1.982749   -0.396029   -0.679755
     49          1           0        1.857081   -0.451497    3.933927
     50          1           0        3.011855   -0.739330    2.970587
     51          1           0        2.881123   -2.644921    0.420784
     52          1           0       -1.969149   -1.304178    4.168697
     53          1           0       -0.430869   -0.597596    4.699714
     54          1           0       -1.604439    0.336122    3.614033
     55          1           0       -5.467471   -1.352792    2.068366
     56          1           0       -5.778238   -3.203048    1.761840
     57          1           0       -6.700889   -1.954398    0.904698
     58          1           0        2.227027    1.342737    1.667087
     59          1           0        0.828561    1.564639    2.918992
     60          1           0        0.130335    0.081377   -0.230963
     61          1           0        4.681731   -1.238397   -3.272188
     62          1           0        3.975719   -2.445199   -2.078291
     63          1           0       -5.841687   -2.132057   -3.181317
     64          1           0        5.040159   -1.094031   -0.256906
     65          1           0        5.806279   -0.145287   -1.434220
     66          1           0        3.881383    0.557198   -4.087314
     67          1           0        3.863411    2.175709   -3.281205
     68          1           0        2.338877    1.460812   -4.534473
     69          1           0        0.763118    2.680575   -2.899122
     70          1           0       -6.953957   -3.720151   -0.711250
     71          1           0       -7.389876   -3.666903   -2.520471
     72          1           0        3.432863    3.601565    3.934940
     73          1           0       -0.767676    4.317138   -3.114761
     74          1           0       -4.343370    4.297166   -0.212742
     75          1           0       -3.756048    3.913177    1.618281
     76          1           0       -3.051552    5.244244    0.745584
     77          1           0        8.352659   -1.987041   -0.975533
     78          1           0       -1.899769    6.532612   -2.705149
     79          1           0       -2.840313    6.097766   -1.472751
 ---------------------------------------------------------------------

 SCF Done:  E(RB3LYP) =  -1947.78875421     A.U. after   20 cycles

 Excitation energies and oscillator strengths:

 Excited State   1:      Singlet-A      0.6834 eV 1814.17 nm  f=0.0035  <S**2>=0.000
     155 ->156         0.70229
 This state for optimization and/or second-order correction.
 Total Energy, E(TD-HF/TD-DFT) =  -1947.76363900
 Copying the excited state density for this state as the 1-particle RhoCI density.

 The electronic state is 1-A.
 Alpha  occ. eigenvalues --  -19.19239 -19.17499 -19.13305 -19.12099 -19.11639
 Alpha  occ. eigenvalues --  -19.10072 -14.37096 -14.36764 -14.33485 -14.31129
 Alpha  occ. eigenvalues --  -10.32766 -10.30965 -10.27571 -10.27432 -10.25922
 Alpha  occ. eigenvalues --  -10.25544 -10.25529 -10.23179 -10.22873 -10.22739
 Alpha  occ. eigenvalues --  -10.22562 -10.22561 -10.22530 -10.21874 -10.21670
 Alpha  occ. eigenvalues --  -10.21472 -10.21420 -10.21241 -10.20814 -10.20484
 Alpha  occ. eigenvalues --  -10.20424 -10.20413 -10.20268 -10.20028 -10.19674
 Alpha  occ. eigenvalues --  -10.19517 -10.19493 -10.19374 -10.17962 -10.16953
 Alpha  occ. eigenvalues --  -10.16467 -10.16318 -10.15494  -1.13991  -1.09588
 Alpha  occ. eigenvalues --   -1.02674  -1.02556  -1.01545  -1.00683  -1.00175
 Alpha  occ. eigenvalues --   -0.98126  -0.94186  -0.90220  -0.82987  -0.82319
 Alpha  occ. eigenvalues --   -0.81716  -0.80878  -0.80041  -0.78825  -0.77491
 Alpha  occ. eigenvalues --   -0.76233  -0.76086  -0.75689  -0.73607  -0.72299
 Alpha  occ. eigenvalues --   -0.70536  -0.69573  -0.69131  -0.68999  -0.67461
 Alpha  occ. eigenvalues --   -0.67384  -0.65432  -0.63775  -0.63184  -0.61743
 Alpha  occ. eigenvalues --   -0.60028  -0.58300  -0.58248  -0.57073  -0.56257
 Alpha  occ. eigenvalues --   -0.55334  -0.54746  -0.54415  -0.53730  -0.53373
 Alpha  occ. eigenvalues --   -0.51829  -0.51415  -0.50695  -0.50405  -0.49468
 Alpha  occ. eigenvalues --   -0.49245  -0.48632  -0.48138  -0.47740  -0.47600
 Alpha  occ. eigenvalues --   -0.47362  -0.47004  -0.46863  -0.46182  -0.46069
 Alpha  occ. eigenvalues --   -0.45609  -0.44995  -0.44542  -0.44514  -0.43973
 Alpha  occ. eigenvalues --   -0.43773  -0.43451  -0.42514  -0.42451  -0.42218
 Alpha  occ. eigenvalues --   -0.42073  -0.41746  -0.41509  -0.41256  -0.40947
 Alpha  occ. eigenvalues --   -0.40685  -0.40456  -0.39638  -0.39293  -0.38931
 Alpha  occ. eigenvalues --   -0.38860  -0.38665  -0.38367  -0.37800  -0.37380
 Alpha  occ. eigenvalues --   -0.37308  -0.37086  -0.36970  -0.36618  -0.36332
 Alpha  occ. eigenvalues --   -0.36032  -0.35937  -0.35340  -0.34971  -0.34227
 Alpha  occ. eigenvalues --   -0.34039  -0.33923  -0.33029  -0.32225  -0.32017
 Alpha  occ. eigenvalues --   -0.31687  -0.29968  -0.29180  -0.29016  -0.28648
 Alpha  occ. eigenvalues --   -0.27388  -0.26373  -0.25915  -0.25670  -0.24521
 Alpha  occ. eigenvalues --   -0.23481  -0.23422  -0.21894  -0.21743  -0.18183
 Alpha virt. eigenvalues --   -0.13209  -0.08525  -0.05642  -0.02218   0.00170
 Alpha virt. eigenvalues --    0.00986   0.01845   0.02282   0.03090   0.03904
 Alpha virt. eigenvalues --    0.04132   0.04728   0.05379   0.05502   0.05798

 Mulliken charges:
               1
     1  O   -0.202863
     2  O   -0.183680
     3  O   -0.215784
     4  O   -0.081412
     5  O   -0.213358
     6  O   -0.226456
     7  N    0.033174
     8  N   -0.326630
     9  N   -0.107779
    10  N   -0.271861
    11  C   -0.037005
    12  C    0.197126
    13  C   -0.151009
    14  C   -0.143410
    15  C   -0.073971
    16  C   -0.143083
    17  C   -0.091497
    18  C    0.386488
    19  C   -0.034691
    20  C   -0.075906
    21  C    0.069805
    22  C    0.158712
    23  C   -0.050836
    24  C    0.104758
    25  C    0.031515
    26  C   -0.102387
    27  C   -0.117813
    28  C    0.095422
    29  C    0.027592
    30  C   -0.099740
    31  C    0.091115
    32  C   -0.013450
    33  C   -0.101763
    34  C    0.109126
    35  C    0.114096
    36  C    0.019023
    37  C    0.079210
    38  C    0.047573
    39  C   -0.178394
    40  C    0.159087
    41  C   -0.056485
    42  C    0.010054
    43  C    0.086561
    44  H    0.088861
    45  H   -0.039065
    46  H    0.025047
    47  H    0.133120
    48  H    0.187821
    49  H   -0.149290
    50  H   -0.018477
    51  H    0.020011
    52  H   -0.014491
    53  H   -0.005675
    54  H    0.051143
    55  H    0.039279
    56  H    0.057500
    57  H    0.032917
    58  H    0.045759
    59  H    0.071530
    60  H    0.262513
    61  H    0.039166
    62  H    0.039738
    63  H    0.045172
    64  H   -0.000360
    65  H    0.004420
    66  H    0.019355
    67  H    0.053323
    68  H    0.064359
    69  H   -0.013999
    70  H   -0.014022
    71  H    0.019178
    72  H    0.169788
    73  H    0.036354
    74  H    0.042392
    75  H    0.048600
    76  H    0.040940
    77  H    0.131463
    78  H   -0.039093
    79  H    0.005549
 Sum of Mulliken charges =  -0.00000

 Dipole moment (field-independent basis, Debye):
    X=              2.8082    Y=              3.5397    Z=             -1.3871  Tot=              4.7264
 Quadrupole moment (field-independent basis, Debye-Ang):
   XX=           -229.4498   YY=           -234.1265   ZZ=           -264.2382
   XY=              5.2721   XZ=            -19.0526   YZ=            -12.9036

 Normal termination of Gaussian 16 at Fri Jul 26 10:21:09 2019.
