 Gaussian 16, Revision A.03,
 Gaussian 16:  ES64L-G16RevA.03 25-Dec-2016

 --------------------------
 # td=(NStates=1) B3LYP/SVP
 --------------------------

 --
 TD
 --
 Symbolic Z-matrix:
 Charge =  0 Multiplicity = 1

                         Standard orientation:
 ---------------------------------------------------------------------
 Center     Atomic      Atomic             Coordinates (Angstroms)
 Number     Number       Type             X           Y           Z
 ---------------------------------------------------------------------
      1          8           0       -3.090111   -1.810344   -2.632476
      2          8           0        2.526439    3.879418    2.729794
      3          8           0        3.561948    2.339966    4.010038
      4          8           0        7.710302   -1.648929   -0.225470
      5          8           0        6.831134   -3.173249   -1.672303
      6          8           0       -2.771259    1.876323    1.081108
      7          7           0       -0.264598   -2.279840    1.215657
      8          7           0       -2.559423   -1.221871   -0.407127
      9          7           0        1.203025   -0.081263   -0.723797
     10          7           0       -1.062967    1.383926   -0.385251
     11          6           0       -3.379359   -1.229290    0.833688
     12          6           0       -2.649137   -1.990706    1.936694
     13          6           0       -1.188516   -1.770498    2.141513
     14          6           0       -0.586964   -0.733850    3.054995
     15          6           0        0.705769   -0.738050    2.672998
     16          6           0        0.949145   -1.655772    1.513722
     17          6           0       -4.625235   -1.905416    0.478979
     18          6           0        1.703038    0.218272    3.213889
     19          6           0       -4.799882   -2.256947   -0.840338
     20          6           0        2.114601   -1.905698    0.696687
     21          6           0        2.119880   -1.084796   -0.453371
     22          6           0       -3.445377   -1.712926   -1.513501
     23          6           0        3.054298   -1.015637   -1.576086
     24          6           0       -1.469391    0.166693    3.926998
     25          6           0       -5.775094   -2.206671    1.467939
     26          6           0        2.695355   -0.007569   -2.409693
     27          6           0        1.682014    1.625068    2.613808
     28          6           0        1.435704    0.540788   -1.795903
     29          6           0        4.349958   -1.748176   -1.700622
     30          6           0       -5.824051   -2.820875   -1.701424
     31          6           0        5.557290   -1.251895   -0.998337
     32          6           0        3.373332    0.413908   -3.586512
     33          6           0        0.578813    1.589460   -2.278316
     34          6           0        2.688311    2.564497    3.140241
     35          6           0       -0.640126    1.990203   -1.548577
     36          6           0       -6.644098   -3.616407   -1.281497
     37          6           0        6.782986   -2.223778   -0.982466
     38          6           0       -1.378739    3.249815   -1.835151
     39          6           0       -2.309471    3.348140   -0.889630
     40          6           0       -2.163444    2.155027    0.026429
     41          6           0       -1.257099    4.014734   -2.984661
     42          6           0       -3.385836    4.380508   -0.579032
     43          6           0       -1.841976    5.258536   -3.103447
     44          1           0       -3.562576   -0.043474    1.049737
     45          1           0       -2.807575   -3.206634    1.652583
     46          1           0       -3.178666   -1.937747    2.906460
     47          1           0       -0.426198   -2.732355    0.385009
     48          1           0       -2.213415   -0.288088   -0.535926
     49          1           0        1.523686    0.532142    4.321203
     50          1           0        2.726992   -0.205090    3.244577
     51          1           0        3.004719   -2.551960    0.830535
     52          1           0       -2.259584   -0.422175    4.558545
     53          1           0       -0.612198    0.696411    4.690198
     54          1           0       -1.945658    0.936569    3.435974
     55          1           0       -5.838256   -1.290217    2.051053
     56          1           0       -5.405581   -3.033254    2.089229
     57          1           0       -6.880886   -2.464481    0.924886
     58          1           0        1.975949    1.566808    1.506673
     59          1           0        0.571807    2.161712    2.708483
     60          1           0        0.388832    0.231756   -0.194365
     61          1           0        4.375141   -1.853320   -2.599825
     62          1           0        4.082827   -2.877130   -1.525663
     63          1           0       -5.678445   -2.688083   -2.942768
     64          1           0        5.176658   -1.062549    0.141657
     65          1           0        6.063213   -0.344732   -1.390560
     66          1           0        3.797770   -0.590746   -4.174003
     67          1           0        4.141510    1.342421   -3.622300
     68          1           0        2.551830    0.642343   -4.301870
     69          1           0        0.951745    2.425660   -2.996906
     70          1           0       -6.721860   -3.992224   -0.155762
     71          1           0       -7.375307   -4.247896   -1.874249
     72          1           0        3.052776    4.303330    3.331254
     73          1           0       -0.698313    3.405861   -3.835788
     74          1           0       -4.037947    4.927385   -1.603214
     75          1           0       -3.858784    3.905895    0.279393
     76          1           0       -2.886724    5.426743   -0.051554
     77          1           0        8.244296   -2.346881   -0.269164
     78          1           0       -1.685219    5.825062   -3.968585
     79          1           0       -2.476618    5.692641   -2.246960
 ---------------------------------------------------------------------

 SCF Done:  E(RB3LYP) =  -1947.71931267     A.U. after   16 cycles

 Excitation energies and oscillator strengths:

 Excited State   1:      Singlet-A      0.9714 eV 1276.36 nm  f=0.0079  <S**2>=0.000
     155 ->156         0.70247
 This state for optimization and/or second-order correction.
 Total Energy, E(TD-HF/TD-DFT) =  -1947.68361485
 Copying the excited state density for this state as the 1-particle RhoCI density.

 The electronic state is 1-A.
 Alpha  occ. eigenvalues --  -19.20426 -19.16971 -19.15280 -19.12423 -19.12417
 Alpha  occ. eigenvalues --  -19.10208 -14.38417 -14.37618 -14.31253 -14.31149
 Alpha  occ. eigenvalues --  -10.33741 -10.32037 -10.28637 -10.27301 -10.26849
 Alpha  occ. eigenvalues --  -10.25930 -10.25682 -10.23466 -10.23074 -10.22978
 Alpha  occ. eigenvalues --  -10.22660 -10.22135 -10.22010 -10.21896 -10.21868
 Alpha  occ. eigenvalues --  -10.21820 -10.21806 -10.21757 -10.21300 -10.21073
 Alpha  occ. eigenvalues --  -10.20944 -10.20574 -10.20361 -10.20333 -10.20013
 Alpha  occ. eigenvalues --  -10.19930 -10.19814 -10.19590 -10.19236 -10.19077
 Alpha  occ. eigenvalues --  -10.18466 -10.18308 -10.18116  -1.15422  -1.09056
 Alpha  occ. eigenvalues --   -1.05942  -1.03114  -1.03048  -1.02105  -0.98543
 Alpha  occ. eigenvalues --   -0.96060  -0.92954  -0.89957  -0.85508  -0.82620
 Alpha  occ. eigenvalues --   -0.82055  -0.81181  -0.81025  -0.79450  -0.77652
 Alpha  occ. eigenvalues --   -0.76708  -0.76572  -0.75301  -0.73916  -0.73085
 Alpha  occ. eigenvalues --   -0.71137  -0.70365  -0.69842  -0.68404  -0.67381
 Alpha  occ. eigenvalues --   -0.67279  -0.64974  -0.62596  -0.61931  -0.60846
 Alpha  occ. eigenvalues --   -0.59430  -0.59231  -0.58418  -0.57504  -0.56785
 Alpha  occ. eigenvalues --   -0.56327  -0.55664  -0.53793  -0.52676  -0.52427
 Alpha  occ. eigenvalues --   -0.52369  -0.51516  -0.50824  -0.50585  -0.50280
 Alpha  occ. eigenvalues --   -0.49408  -0.48693  -0.48322  -0.47906  -0.47630
 Alpha  occ. eigenvalues --   -0.47437  -0.47305  -0.46943  -0.46030  -0.45551
 Alpha  occ. eigenvalues --   -0.45322  -0.45149  -0.44488  -0.44194  -0.43816
 Alpha  occ. eigenvalues --   -0.43665  -0.43382  -0.43199  -0.43090  -0.42694
 Alpha  occ. eigenvalues --   -0.42344  -0.42048  -0.41714  -0.41196  -0.40936
 Alpha  occ. eigenvalues --   -0.40641  -0.40394  -0.40033  -0.39845  -0.39627
 Alpha  occ. eigenvalues --   -0.39357  -0.38723  -0.38289  -0.38121  -0.37883
 Alpha  occ. eigenvalues --   -0.37388  -0.37325  -0.36748  -0.36193  -0.36062
 Alpha  occ. eigenvalues --   -0.36006  -0.35864  -0.35830  -0.34986  -0.34760
 Alpha  occ. eigenvalues --   -0.33896  -0.32752  -0.32500  -0.31795  -0.31604
 Alpha  occ. eigenvalues --   -0.31423  -0.30680  -0.30015  -0.29588  -0.29142
 Alpha  occ. eigenvalues --   -0.27732  -0.27445  -0.26527  -0.25353  -0.24568
 Alpha  occ. eigenvalues --   -0.23906  -0.23476  -0.23102  -0.22162  -0.18449
 Alpha virt. eigenvalues --   -0.12401  -0.07941  -0.03012  -0.02454  -0.01275
 Alpha virt. eigenvalues --   -0.00432  -0.00050   0.02375   0.02891   0.03038
 Alpha virt. eigenvalues --    0.03242   0.03952   0.04141   0.04775   0.05092

 Mulliken charges:
               1
     1  O   -0.168112
     2  O   -0.164532
     3  O   -0.270752
     4  O   -0.075501
     5  O   -0.174299
     6  O   -0.240673
     7  N   -0.019209
     8  N   -0.269073
     9  N    0.047710
    10  N   -0.336224
    11  C    0.063191
    12  C    0.095521
    13  C   -0.059181
    14  C   -0.081981
    15  C   -0.056666
    16  C   -0.004891
    17  C   -0.208707
    18  C    0.048276
    19  C   -0.059940
    20  C   -0.078102
    21  C    0.049447
    22  C    0.120802
    23  C   -0.141501
    24  C    0.054803
    25  C    0.038351
    26  C   -0.078110
    27  C   -0.046596
    28  C    0.030052
    29  C    0.312280
    30  C    0.030144
    31  C   -0.029873
    32  C   -0.023812
    33  C   -0.116222
    34  C    0.141919
    35  C    0.070856
    36  C   -0.104454
    37  C    0.102560
    38  C    0.052444
    39  C   -0.151931
    40  C    0.176911
    41  C   -0.078949
    42  C   -0.030782
    43  C   -0.007512
    44  H    0.092088
    45  H    0.002436
    46  H   -0.004418
    47  H    0.096614
    48  H    0.143619
    49  H    0.018546
    50  H    0.007946
    51  H    0.013109
    52  H    0.035309
    53  H    0.016532
    54  H    0.034111
    55  H    0.019442
    56  H    0.033859
    57  H    0.062859
    58  H    0.041833
    59  H    0.090059
    60  H    0.171292
    61  H   -0.142093
    62  H    0.006868
    63  H    0.052622
    64  H    0.056423
    65  H    0.045332
    66  H    0.052462
    67  H    0.075573
    68  H    0.028416
    69  H    0.028572
    70  H    0.037747
    71  H    0.021964
    72  H    0.137297
    73  H    0.035049
    74  H    0.073774
    75  H    0.035124
    76  H    0.057504
    77  H    0.106630
    78  H    0.013466
    79  H    0.044356
 Sum of Mulliken charges =  -0.00000

 Dipole moment (field-independent basis, Debye):
    X=              2.7984    Y=              1.6618    Z=             -2.0046  Tot=              3.8224
 Quadrupole moment (field-independent basis, Debye-Ang):
   XX=           -236.8598   YY=           -241.2995   ZZ=           -263.5630
   XY=             -3.0358   XZ=            -17.3040   YZ=            -16.3360

 Normal termination of Gaussian 16 at Sun Jul 28 13:59:46 2019.
