 Gaussian 16, Revision A.03,
 Gaussian 16:  ES64L-G16RevA.03 25-Dec-2016

 --------------------------
 # td=(NStates=1) B3LYP/SVP
 --------------------------

 --
 TD
 --
 Symbolic Z-matrix:
 Charge =  0 Multiplicity = 1

                         Standard orientation:
 ---------------------------------------------------------------------
 Center     Atomic      Atomic             Coordinates (Angstroms)
 Number     Number       Type             X           Y           Z
 ---------------------------------------------------------------------
      1          8           0       -3.058422   -1.244507   -2.912346
      2          8           0        3.036628    2.993338    3.593413
      3          8           0        3.649235    1.192414    4.643018
      4          8           0        7.678596   -1.622066   -0.755964
      5          8           0        6.724636   -2.753612   -2.407271
      6          8           0       -2.767032    1.599531    1.486851
      7          7           0       -0.245356   -2.627131    0.761495
      8          7           0       -2.714955   -1.147444   -0.697296
      9          7           0        1.113382    0.136077   -0.706409
     10          7           0       -1.057611    1.488966   -0.171840
     11          6           0       -3.357741   -1.416743    0.528585
     12          6           0       -2.604198   -2.482352    1.389184
     13          6           0       -1.163997   -2.264792    1.699193
     14          6           0       -0.477613   -1.399779    2.746478
     15          6           0        0.852534   -1.205755    2.342241
     16          6           0        0.989113   -1.960602    1.140007
     17          6           0       -4.740357   -1.824895    0.267332
     18          6           0        1.843232   -0.400875    3.149238
     19          6           0       -4.779923   -2.038253   -1.185235
     20          6           0        2.028969   -1.872124    0.187102
     21          6           0        2.028280   -0.833954   -0.664779
     22          6           0       -3.442135   -1.471571   -1.799223
     23          6           0        3.050342   -0.585875   -1.709597
     24          6           0       -1.339526   -0.710354    3.794359
     25          6           0       -5.661721   -2.069519    1.312607
     26          6           0        2.653067    0.602905   -2.371619
     27          6           0        1.918677    1.023139    2.917643
     28          6           0        1.394348    1.088142   -1.719910
     29          6           0        4.200901   -1.401385   -1.982988
     30          6           0       -5.844542   -2.504591   -1.999546
     31          6           0        5.465569   -1.050665   -1.326657
     32          6           0        3.286607    1.413042   -3.502871
     33          6           0        0.497705    2.068170   -1.879644
     34          6           0        2.966694    1.737361    3.795382
     35          6           0       -0.682219    2.270202   -1.173031
     36          6           0       -6.963859   -3.247464   -1.663948
     37          6           0        6.680941   -1.890352   -1.564626
     38          6           0       -1.572913    3.520453   -1.243363
     39          6           0       -2.442664    3.411885   -0.229438
     40          6           0       -2.151684    2.075373    0.498808
     41          6           0       -1.362126    4.609575   -2.233371
     42          6           0       -3.507672    4.212473    0.247195
     43          6           0       -1.879640    5.842558   -2.089638
     44          1           0       -3.270838   -0.383844    1.128275
     45          1           0       -2.687562   -3.475005    0.781855
     46          1           0       -2.949131   -2.868529    2.362859
     47          1           0       -0.307006   -3.075220   -0.177815
     48          1           0       -2.071563   -0.382889   -0.597192
     49          1           0        1.631332   -0.387262    4.228846
     50          1           0        2.682592   -0.901315    2.873289
     51          1           0        3.011374   -2.522956    0.222975
     52          1           0       -2.009953   -1.503039    4.246327
     53          1           0       -0.732780   -0.582697    4.651120
     54          1           0       -1.718888    0.239602    3.275191
     55          1           0       -5.410912   -1.256725    1.973235
     56          1           0       -5.678029   -3.073684    1.661217
     57          1           0       -6.722567   -1.929942    0.948530
     58          1           0        2.168553    1.186658    1.847419
     59          1           0        1.109113    1.674755    3.134739
     60          1           0        0.295752    0.232762   -0.098625
     61          1           0        4.363318   -1.296216   -3.163584
     62          1           0        3.964802   -2.449923   -1.844968
     63          1           0       -5.767019   -2.146788   -2.956384
     64          1           0        5.332871   -1.184466   -0.361268
     65          1           0        5.606857    0.033482   -1.607986
     66          1           0        3.893053    0.792977   -3.995094
     67          1           0        3.570014    2.319378   -3.014593
     68          1           0        2.399183    1.873174   -4.246612
     69          1           0        1.049694    2.617956   -2.626464
     70          1           0       -7.014846   -3.494204   -0.606711
     71          1           0       -7.561529   -3.618431   -2.306877
     72          1           0        3.857673    3.268927    4.014458
     73          1           0       -0.768901    4.509893   -3.065050
     74          1           0       -4.206514    4.552938   -0.679351
     75          1           0       -3.989118    3.666794    0.999317
     76          1           0       -3.450785    5.275033    0.820438
     77          1           0        8.292776   -2.294156   -1.175817
     78          1           0       -1.561289    6.580834   -2.934512
     79          1           0       -2.421775    6.267799   -1.249678
 ---------------------------------------------------------------------

 SCF Done:  E(RB3LYP) =  -1947.83287133     A.U. after   16 cycles

 Excitation energies and oscillator strengths:

 Excited State   1:      Singlet-A      0.7711 eV 1607.82 nm  f=0.0011  <S**2>=0.000
     155 ->156         0.70390
 This state for optimization and/or second-order correction.
 Total Energy, E(TD-HF/TD-DFT) =  -1947.80453266
 Copying the excited state density for this state as the 1-particle RhoCI density.

 The electronic state is 1-A.
 Alpha  occ. eigenvalues --  -19.20814 -19.19145 -19.13903 -19.13756 -19.11364
 Alpha  occ. eigenvalues --  -19.08180 -14.37364 -14.36470 -14.31917 -14.31818
 Alpha  occ. eigenvalues --  -10.33266 -10.31187 -10.29755 -10.26775 -10.26343
 Alpha  occ. eigenvalues --  -10.26235 -10.24313 -10.23652 -10.23104 -10.22417
 Alpha  occ. eigenvalues --  -10.21794 -10.21774 -10.21767 -10.21392 -10.21191
 Alpha  occ. eigenvalues --  -10.21155 -10.21085 -10.20958 -10.20706 -10.20554
 Alpha  occ. eigenvalues --  -10.20456 -10.20409 -10.20395 -10.19678 -10.19417
 Alpha  occ. eigenvalues --  -10.19130 -10.18811 -10.18052 -10.17927 -10.17912
 Alpha  occ. eigenvalues --  -10.17611 -10.17309 -10.16985  -1.13569  -1.13090
 Alpha  occ. eigenvalues --   -1.02475  -1.02440  -1.01537  -0.99988  -0.99211
 Alpha  occ. eigenvalues --   -0.94829  -0.94214  -0.92640  -0.85214  -0.83522
 Alpha  occ. eigenvalues --   -0.82146  -0.81658  -0.80654  -0.80054  -0.78450
 Alpha  occ. eigenvalues --   -0.77216  -0.76742  -0.76419  -0.74864  -0.73612
 Alpha  occ. eigenvalues --   -0.71053  -0.70361  -0.70077  -0.69653  -0.68010
 Alpha  occ. eigenvalues --   -0.67299  -0.66355  -0.63585  -0.61284  -0.61092
 Alpha  occ. eigenvalues --   -0.61027  -0.60152  -0.59302  -0.57381  -0.56670
 Alpha  occ. eigenvalues --   -0.56465  -0.55249  -0.54680  -0.53568  -0.52857
 Alpha  occ. eigenvalues --   -0.52706  -0.52353  -0.52200  -0.51239  -0.50961
 Alpha  occ. eigenvalues --   -0.50472  -0.50131  -0.49539  -0.49232  -0.48643
 Alpha  occ. eigenvalues --   -0.48303  -0.47822  -0.47059  -0.46794  -0.46458
 Alpha  occ. eigenvalues --   -0.45747  -0.45568  -0.45340  -0.44835  -0.44531
 Alpha  occ. eigenvalues --   -0.44352  -0.44041  -0.43529  -0.43484  -0.42839
 Alpha  occ. eigenvalues --   -0.42530  -0.42242  -0.42065  -0.41683  -0.41388
 Alpha  occ. eigenvalues --   -0.40868  -0.40802  -0.40646  -0.40269  -0.39844
 Alpha  occ. eigenvalues --   -0.39665  -0.39139  -0.38955  -0.38588  -0.38129
 Alpha  occ. eigenvalues --   -0.37934  -0.37540  -0.37176  -0.36617  -0.36326
 Alpha  occ. eigenvalues --   -0.36249  -0.36069  -0.35474  -0.34978  -0.34173
 Alpha  occ. eigenvalues --   -0.34146  -0.33720  -0.32982  -0.32163  -0.32113
 Alpha  occ. eigenvalues --   -0.31194  -0.29801  -0.29672  -0.29401  -0.29156
 Alpha  occ. eigenvalues --   -0.27261  -0.26911  -0.26734  -0.24318  -0.24147
 Alpha  occ. eigenvalues --   -0.23829  -0.23680  -0.22410  -0.20992  -0.17898
 Alpha virt. eigenvalues --   -0.12587  -0.07272  -0.05095  -0.02124  -0.00743
 Alpha virt. eigenvalues --    0.00796   0.01555   0.02058   0.02802   0.03002
 Alpha virt. eigenvalues --    0.03824   0.04310   0.04631   0.04715   0.05504

 Mulliken charges:
               1
     1  O   -0.210142
     2  O   -0.099924
     3  O   -0.251296
     4  O   -0.147178
     5  O   -0.231906
     6  O   -0.233962
     7  N   -0.092709
     8  N   -0.156893
     9  N   -0.087445
    10  N   -0.310828
    11  C    0.004310
    12  C    0.162057
    13  C   -0.097012
    14  C   -0.207163
    15  C   -0.076479
    16  C   -0.013275
    17  C   -0.141835
    18  C    0.222561
    19  C   -0.110164
    20  C   -0.205767
    21  C    0.124927
    22  C    0.149116
    23  C   -0.075124
    24  C    0.123839
    25  C    0.129414
    26  C   -0.116408
    27  C    0.004146
    28  C    0.023355
    29  C    0.028871
    30  C   -0.035392
    31  C    0.119412
    32  C    0.137824
    33  C   -0.056502
    34  C    0.063347
    35  C    0.184422
    36  C    0.071063
    37  C    0.102293
    38  C    0.086965
    39  C   -0.154929
    40  C    0.214978
    41  C    0.020265
    42  C   -0.009294
    43  C   -0.042810
    44  H    0.079539
    45  H   -0.022257
    46  H    0.000057
    47  H    0.141039
    48  H    0.124350
    49  H    0.006923
    50  H   -0.033382
    51  H    0.021821
    52  H    0.002261
    53  H   -0.028415
    54  H    0.082212
    55  H    0.025580
    56  H    0.035460
    57  H    0.025416
    58  H    0.020358
    59  H    0.019847
    60  H    0.175572
    61  H    0.032661
    62  H    0.012763
    63  H   -0.032423
    64  H   -0.023869
    65  H    0.043182
    66  H   -0.003273
    67  H    0.036864
    68  H    0.048233
    69  H   -0.054790
    70  H   -0.006194
    71  H   -0.038418
    72  H    0.173066
    73  H   -0.034439
    74  H    0.049633
    75  H    0.013268
    76  H    0.050354
    77  H    0.185575
    78  H    0.036804
    79  H    0.025896
 Sum of Mulliken charges =  -0.00000

 Dipole moment (field-independent basis, Debye):
    X=              4.0183    Y=              4.0608    Z=             -0.9560  Tot=              5.7923
 Quadrupole moment (field-independent basis, Debye-Ang):
   XX=           -235.8344   YY=           -232.2910   ZZ=           -273.3150
   XY=              6.5054   XZ=            -21.5216   YZ=            -11.9765

 Normal termination of Gaussian 16 at Fri Jul 26 23:45:59 2019.
