 Gaussian 16, Revision A.03,
 Gaussian 16:  ES64L-G16RevA.03 25-Dec-2016

 --------------------------
 # td=(NStates=1) B3LYP/SVP
 --------------------------

 --
 TD
 --
 Symbolic Z-matrix:
 Charge =  0 Multiplicity = 1

                         Standard orientation:
 ---------------------------------------------------------------------
 Center     Atomic      Atomic             Coordinates (Angstroms)
 Number     Number       Type             X           Y           Z
 ---------------------------------------------------------------------
      1          8           0       -3.280504   -1.389679   -2.876597
      2          8           0        3.369945    3.095015    2.815220
      3          8           0        3.555849    1.585197    4.490789
      4          8           0        7.469378   -1.371430   -0.682816
      5          8           0        6.714252   -3.146219   -1.728365
      6          8           0       -2.498962    1.872978    1.480029
      7          7           0       -0.274554   -2.282367    1.002199
      8          7           0       -2.607379   -1.221065   -0.540801
      9          7           0        1.179208    0.087512   -0.763595
     10          7           0       -1.078402    1.416962   -0.240846
     11          6           0       -3.315397   -1.236668    0.738815
     12          6           0       -2.739609   -2.180974    1.664940
     13          6           0       -1.245551   -1.894951    1.809322
     14          6           0       -0.570580   -1.071541    2.870004
     15          6           0        0.797256   -1.099200    2.627104
     16          6           0        0.991431   -1.752986    1.417580
     17          6           0       -4.734745   -1.743654    0.338756
     18          6           0        1.876315   -0.222206    3.276535
     19          6           0       -4.888273   -1.996917   -1.003816
     20          6           0        2.068088   -1.799452    0.459296
     21          6           0        2.073798   -1.011810   -0.637095
     22          6           0       -3.520579   -1.518441   -1.640094
     23          6           0        2.882595   -0.895852   -1.829772
     24          6           0       -1.192125   -0.500640    3.960503
     25          6           0       -5.688349   -1.892153    1.435209
     26          6           0        2.424754    0.139545   -2.606919
     27          6           0        1.960730    1.194350    2.753205
     28          6           0        1.251604    0.819939   -1.933302
     29          6           0        4.118643   -1.690385   -2.051438
     30          6           0       -5.886333   -2.565657   -1.813716
     31          6           0        5.322323   -1.183139   -1.282838
     32          6           0        3.026453    0.671643   -3.883611
     33          6           0        0.426608    1.830804   -2.164834
     34          6           0        3.075124    1.928467    3.350851
     35          6           0       -0.605078    2.206974   -1.292097
     36          6           0       -6.805303   -3.482941   -1.495031
     37          6           0        6.547898   -2.006593   -1.280743
     38          6           0       -1.402398    3.443591   -1.449944
     39          6           0       -2.351645    3.346613   -0.419529
     40          6           0       -2.023163    2.160680    0.409824
     41          6           0       -1.182397    4.418893   -2.421021
     42          6           0       -3.334213    4.326322    0.130781
     43          6           0       -1.597726    5.717141   -2.466661
     44          1           0       -3.395188   -0.206800    1.209899
     45          1           0       -2.969068   -3.338996    1.206247
     46          1           0       -3.052934   -2.114974    2.641395
     47          1           0       -0.388433   -2.927195    0.253094
     48          1           0       -1.876805   -0.622078   -0.507539
     49          1           0        1.883324   -0.073481    4.307290
     50          1           0        2.847365   -0.834556    3.045637
     51          1           0        2.545050   -2.782877    0.305538
     52          1           0       -2.137000   -0.850979    4.315229
     53          1           0       -0.515323   -0.279777    4.838210
     54          1           0       -1.760497    0.374206    3.587379
     55          1           0       -5.784252   -1.035907    2.166132
     56          1           0       -5.507324   -2.835171    2.086534
     57          1           0       -6.815156   -1.985981    1.048176
     58          1           0        1.977009    1.399105    1.619554
     59          1           0        0.899759    1.742966    2.673930
     60          1           0        0.316743    0.343110   -0.287317
     61          1           0        4.438962   -1.886287   -3.006366
     62          1           0        3.849814   -2.599433   -1.838291
     63          1           0       -5.797334   -2.069809   -2.901184
     64          1           0        5.220352   -0.667700   -0.101767
     65          1           0        5.671251   -0.128381   -1.608512
     66          1           0        3.756435   -0.046392   -4.058089
     67          1           0        3.412655    1.676451   -3.772279
     68          1           0        2.330566    0.598301   -4.824394
     69          1           0        0.413346    2.387518   -3.127866
     70          1           0       -6.849110   -3.765660   -0.433035
     71          1           0       -7.298231   -3.861683   -2.305835
     72          1           0        3.995526    3.632324    3.481972
     73          1           0       -0.633806    4.107263   -3.247979
     74          1           0       -4.036284    4.711407   -0.540112
     75          1           0       -4.033759    3.938760    0.907038
     76          1           0       -3.060573    5.396362    0.773114
     77          1           0        8.479916   -1.848053   -0.685338
     78          1           0       -1.643527    6.349258   -3.272976
     79          1           0       -2.216192    6.178131   -1.553837
 ---------------------------------------------------------------------

 SCF Done:  E(RB3LYP) =  -1947.79629051     A.U. after   21 cycles

 Excitation energies and oscillator strengths:

 Excited State   1:      Singlet-A      0.5922 eV 2093.66 nm  f=0.0019  <S**2>=0.000
     155 ->156         0.70377
 This state for optimization and/or second-order correction.
 Total Energy, E(TD-HF/TD-DFT) =  -1947.77452803
 Copying the excited state density for this state as the 1-particle RhoCI density.

 The electronic state is 1-A.
 Alpha  occ. eigenvalues --  -19.20003 -19.19236 -19.12305 -19.11872 -19.10813
 Alpha  occ. eigenvalues --  -19.09560 -14.36795 -14.36299 -14.32626 -14.31096
 Alpha  occ. eigenvalues --  -10.32263 -10.31471 -10.28704 -10.27870 -10.26247
 Alpha  occ. eigenvalues --  -10.25984 -10.25561 -10.23555 -10.22965 -10.22690
 Alpha  occ. eigenvalues --  -10.21991 -10.21987 -10.21835 -10.21746 -10.21390
 Alpha  occ. eigenvalues --  -10.21151 -10.21056 -10.20920 -10.20773 -10.20726
 Alpha  occ. eigenvalues --  -10.20540 -10.20516 -10.20450 -10.20228 -10.20160
 Alpha  occ. eigenvalues --  -10.20070 -10.19612 -10.19415 -10.18704 -10.18038
 Alpha  occ. eigenvalues --  -10.16955 -10.16120 -10.16060  -1.11472  -1.08742
 Alpha  occ. eigenvalues --   -1.04173  -0.99241  -0.98692  -0.98378  -0.96490
 Alpha  occ. eigenvalues --   -0.96384  -0.93419  -0.91273  -0.84901  -0.82626
 Alpha  occ. eigenvalues --   -0.82203  -0.81049  -0.80555  -0.79458  -0.78869
 Alpha  occ. eigenvalues --   -0.77517  -0.76825  -0.76131  -0.74990  -0.73676
 Alpha  occ. eigenvalues --   -0.71642  -0.71036  -0.70350  -0.69708  -0.67820
 Alpha  occ. eigenvalues --   -0.66751  -0.65819  -0.63361  -0.62230  -0.61072
 Alpha  occ. eigenvalues --   -0.60719  -0.59809  -0.58929  -0.58347  -0.57202
 Alpha  occ. eigenvalues --   -0.55989  -0.55882  -0.55401  -0.53859  -0.53584
 Alpha  occ. eigenvalues --   -0.52021  -0.51402  -0.50654  -0.50293  -0.49681
 Alpha  occ. eigenvalues --   -0.49474  -0.49112  -0.48507  -0.48218  -0.47934
 Alpha  occ. eigenvalues --   -0.47744  -0.47223  -0.46773  -0.46616  -0.46185
 Alpha  occ. eigenvalues --   -0.45934  -0.45454  -0.44839  -0.44426  -0.44296
 Alpha  occ. eigenvalues --   -0.44039  -0.43564  -0.43023  -0.42483  -0.42252
 Alpha  occ. eigenvalues --   -0.42048  -0.41648  -0.41361  -0.41240  -0.40875
 Alpha  occ. eigenvalues --   -0.40619  -0.40233  -0.40108  -0.39578  -0.39421
 Alpha  occ. eigenvalues --   -0.38731  -0.38549  -0.38360  -0.38094  -0.37854
 Alpha  occ. eigenvalues --   -0.37770  -0.37704  -0.36845  -0.36475  -0.36156
 Alpha  occ. eigenvalues --   -0.35903  -0.35580  -0.35115  -0.34506  -0.33819
 Alpha  occ. eigenvalues --   -0.33632  -0.32543  -0.31992  -0.31948  -0.30816
 Alpha  occ. eigenvalues --   -0.30117  -0.29868  -0.29751  -0.28981  -0.28040
 Alpha  occ. eigenvalues --   -0.27095  -0.26451  -0.26176  -0.25001  -0.24172
 Alpha  occ. eigenvalues --   -0.23785  -0.23219  -0.22829  -0.22756  -0.17605
 Alpha virt. eigenvalues --   -0.13085  -0.08095  -0.04496  -0.03014  -0.01449
 Alpha virt. eigenvalues --   -0.00945  -0.00437   0.01322   0.01644   0.02850
 Alpha virt. eigenvalues --    0.03386   0.03803   0.04357   0.05017   0.05230

 Mulliken charges:
               1
     1  O   -0.271009
     2  O   -0.192906
     3  O   -0.314957
     4  O   -0.197327
     5  O   -0.260998
     6  O   -0.181928
     7  N   -0.029718
     8  N   -0.205224
     9  N   -0.143078
    10  N   -0.320416
    11  C    0.055610
    12  C    0.221624
    13  C   -0.160315
    14  C   -0.111345
    15  C   -0.057030
    16  C   -0.027102
    17  C   -0.158069
    18  C    0.127790
    19  C   -0.011098
    20  C   -0.066548
    21  C    0.134215
    22  C    0.210071
    23  C   -0.089104
    24  C    0.107172
    25  C   -0.007231
    26  C   -0.137170
    27  C   -0.068104
    28  C    0.155701
    29  C    0.313792
    30  C   -0.087545
    31  C   -0.126534
    32  C    0.125818
    33  C   -0.133883
    34  C    0.179202
    35  C    0.094289
    36  C    0.035078
    37  C    0.134538
    38  C    0.107746
    39  C   -0.144957
    40  C    0.166501
    41  C   -0.032688
    42  C    0.028450
    43  C   -0.022561
    44  H    0.057628
    45  H    0.011058
    46  H   -0.037798
    47  H    0.102471
    48  H    0.097723
    49  H   -0.001369
    50  H    0.014635
    51  H    0.009625
    52  H   -0.039595
    53  H    0.024145
    54  H    0.001600
    55  H    0.034875
    56  H    0.048539
    57  H    0.034710
    58  H    0.010735
    59  H    0.075248
    60  H    0.163739
    61  H   -0.021565
    62  H   -0.050134
    63  H    0.039107
    64  H    0.075127
    65  H    0.039716
    66  H   -0.015065
    67  H    0.037065
    68  H    0.046154
    69  H    0.001055
    70  H    0.019158
    71  H    0.003726
    72  H    0.229499
    73  H   -0.032628
    74  H    0.003117
    75  H    0.018372
    76  H    0.047734
    77  H    0.258089
    78  H    0.011481
    79  H    0.043271
 Sum of Mulliken charges =  -0.00000

 Dipole moment (field-independent basis, Debye):
    X=              2.8795    Y=              3.9465    Z=             -2.3401  Tot=              5.4169
 Quadrupole moment (field-independent basis, Debye-Ang):
   XX=           -225.2243   YY=           -237.7374   ZZ=           -269.4412
   XY=              8.7355   XZ=            -22.1521   YZ=            -14.1346

 Normal termination of Gaussian 16 at Mon Jul 29 19:25:42 2019.
