 Gaussian 16, Revision A.03,
 Gaussian 16:  ES64L-G16RevA.03 25-Dec-2016

 --------------------------
 # td=(NStates=1) B3LYP/SVP
 --------------------------

 --
 TD
 --
 Symbolic Z-matrix:
 Charge =  0 Multiplicity = 1

                         Standard orientation:
 ---------------------------------------------------------------------
 Center     Atomic      Atomic             Coordinates (Angstroms)
 Number     Number       Type             X           Y           Z
 ---------------------------------------------------------------------
      1          8           0        5.416243   -0.004508   -3.317656
      2          8           0       -3.056877   -2.806137    3.345379
      3          8           0       -3.421240   -0.680037    2.930057
      4          8           0       -1.463193    7.213374    1.522531
      5          8           0       -0.565773    6.933730   -0.489937
      6          8           0       -1.684886   -3.946421    0.102749
      7          7           0        2.279473    0.835955    0.616932
      8          7           0        4.385717   -0.518408   -1.317734
      9          7           0       -1.899947    0.718361   -0.479204
     10          7           0       -2.671070   -1.867044   -0.427914
     11          6           0        4.783504   -1.241905   -0.108233
     12          6           0        4.406733   -0.411483    1.158925
     13          6           0        2.916048   -0.051454    1.349408
     14          6           0        2.022124   -0.670972    2.133499
     15          6           0        0.687376   -0.038395    1.890710
     16          6           0        0.956396    0.939504    0.771750
     17          6           0        6.248212   -1.328072   -0.208380
     18          6           0       -0.546476   -0.152344    2.558276
     19          6           0        6.686346   -0.736845   -1.375850
     20          6           0        0.179298    1.962011    0.198374
     21          6           0       -1.131496    1.785091   -0.223694
     22          6           0        5.411231   -0.352602   -2.151836
     23          6           0       -1.984940    2.898091   -0.851781
     24          6           0        2.280082   -1.689171    3.252457
     25          6           0        6.925067   -2.062643    0.810892
     26          6           0       -3.171864    2.381300   -1.335153
     27          6           0       -1.132345   -1.502806    2.672157
     28          6           0       -3.122477    0.883608   -1.019182
     29          6           0       -1.663468    4.392783   -0.827760
     30          6           0        8.002554   -0.739401   -1.969552
     31          6           0       -1.789905    5.096375    0.483376
     32          6           0       -4.193250    2.991029   -2.202651
     33          6           0       -3.980456   -0.144871   -1.455923
     34          6           0       -2.603500   -1.603646    3.012280
     35          6           0       -3.722644   -1.518319   -0.998445
     36          6           0        9.161061   -0.902108   -1.371900
     37          6           0       -1.226338    6.419175    0.347241
     38          6           0       -4.595787   -2.648412   -1.479413
     39          6           0       -3.938898   -3.810961   -0.995251
     40          6           0       -2.693195   -3.295998   -0.317837
     41          6           0       -5.726905   -2.505649   -2.191176
     42          6           0       -4.143058   -5.221860   -1.161880
     43          6           0       -6.674852   -3.442955   -2.654830
     44          1           0        4.317783   -2.280932   -0.084097
     45          1           0        4.946582    0.585232    1.176574
     46          1           0        4.701838   -1.049897    2.009560
     47          1           0        2.819211    1.083693   -0.275658
     48          1           0        3.423999   -0.694396   -1.593979
     49          1           0       -0.453519    0.234646    3.604853
     50          1           0       -1.362872    0.318139    2.008834
     51          1           0        0.822619    2.872824   -0.144444
     52          1           0        3.417983   -1.784057    3.514315
     53          1           0        1.893876   -1.373607    4.173321
     54          1           0        1.888401   -2.769436    3.035362
     55          1           0        6.339594   -2.799588    1.413446
     56          1           0        7.259995   -1.343361    1.727740
     57          1           0        7.777450   -2.581173    0.554162
     58          1           0       -1.110734   -1.987354    1.575415
     59          1           0       -0.914189   -2.101643    3.588455
     60          1           0       -1.615644   -0.081619   -0.096575
     61          1           0       -2.438424    5.115587   -1.513381
     62          1           0       -0.646150    4.479248   -1.249136
     63          1           0        8.254270   -0.555101   -3.137981
     64          1           0       -1.237496    4.250932    1.333622
     65          1           0       -2.814803    5.186621    0.723509
     66          1           0       -4.253177    4.110630   -2.159947
     67          1           0       -5.309135    2.827173   -1.636011
     68          1           0       -4.103312    2.836059   -3.306632
     69          1           0       -4.967645    0.045085   -2.106678
     70          1           0        9.145604   -0.862287   -0.425414
     71          1           0       10.120871   -0.745325   -1.833427
     72          1           0       -4.151261   -2.813259    3.413162
     73          1           0       -5.889239   -1.453392   -2.405377
     74          1           0       -5.102470   -5.647666   -0.348276
     75          1           0       -4.502112   -5.503503   -2.206014
     76          1           0       -3.336185   -5.925951   -1.060287
     77          1           0       -1.044924    8.129420    1.365367
     78          1           0       -7.601529   -3.254609   -3.313774
     79          1           0       -6.473725   -4.385737   -2.241850
 ---------------------------------------------------------------------

 SCF Done:  E(RB3LYP) =  -1947.79632238     A.U. after   17 cycles

 Excitation energies and oscillator strengths:

 Excited State   1:      Singlet-A      1.8621 eV  665.83 nm  f=0.3692  <S**2>=0.000
     155 ->156         0.70268
     155 <-156        -0.10592
 This state for optimization and/or second-order correction.
 Total Energy, E(TD-HF/TD-DFT) =  -1947.72789161
 Copying the excited state density for this state as the 1-particle RhoCI density.

 The electronic state is 1-A.
 Alpha  occ. eigenvalues --  -19.17587 -19.15933 -19.13908 -19.11407 -19.10015
 Alpha  occ. eigenvalues --  -19.09927 -14.38446 -14.37231 -14.36716 -14.29612
 Alpha  occ. eigenvalues --  -10.32295 -10.30137 -10.28980 -10.27690 -10.25721
 Alpha  occ. eigenvalues --  -10.25650 -10.25239 -10.23458 -10.23074 -10.22763
 Alpha  occ. eigenvalues --  -10.22633 -10.22451 -10.22354 -10.22293 -10.21937
 Alpha  occ. eigenvalues --  -10.21775 -10.21598 -10.21356 -10.21309 -10.21168
 Alpha  occ. eigenvalues --  -10.21096 -10.20956 -10.20820 -10.20693 -10.20589
 Alpha  occ. eigenvalues --  -10.20431 -10.20300 -10.20297 -10.20053 -10.19731
 Alpha  occ. eigenvalues --  -10.19161 -10.18685 -10.17418  -1.08829  -1.07462
 Alpha  occ. eigenvalues --   -1.03132  -1.00721  -1.00395  -0.99791  -0.98507
 Alpha  occ. eigenvalues --   -0.96586  -0.95820  -0.93738  -0.83828  -0.82992
 Alpha  occ. eigenvalues --   -0.82444  -0.81929  -0.81520  -0.80057  -0.79106
 Alpha  occ. eigenvalues --   -0.78189  -0.76800  -0.76185  -0.74939  -0.72693
 Alpha  occ. eigenvalues --   -0.72129  -0.70889  -0.69996  -0.69384  -0.68146
 Alpha  occ. eigenvalues --   -0.67631  -0.66580  -0.64522  -0.62818  -0.61864
 Alpha  occ. eigenvalues --   -0.59504  -0.58777  -0.58728  -0.58085  -0.57131
 Alpha  occ. eigenvalues --   -0.55648  -0.55349  -0.54942  -0.54518  -0.54152
 Alpha  occ. eigenvalues --   -0.52657  -0.52211  -0.51872  -0.50821  -0.50010
 Alpha  occ. eigenvalues --   -0.49345  -0.49142  -0.48654  -0.48184  -0.47618
 Alpha  occ. eigenvalues --   -0.47392  -0.46791  -0.46243  -0.45865  -0.45691
 Alpha  occ. eigenvalues --   -0.45370  -0.45257  -0.44779  -0.44380  -0.43974
 Alpha  occ. eigenvalues --   -0.43567  -0.43242  -0.43176  -0.42884  -0.42475
 Alpha  occ. eigenvalues --   -0.42292  -0.42221  -0.41770  -0.41403  -0.41213
 Alpha  occ. eigenvalues --   -0.40668  -0.40606  -0.40409  -0.40271  -0.40128
 Alpha  occ. eigenvalues --   -0.39677  -0.39435  -0.39307  -0.39137  -0.38444
 Alpha  occ. eigenvalues --   -0.38305  -0.37714  -0.37636  -0.37402  -0.36500
 Alpha  occ. eigenvalues --   -0.35565  -0.35026  -0.34915  -0.34128  -0.34019
 Alpha  occ. eigenvalues --   -0.33928  -0.33160  -0.32535  -0.31882  -0.31674
 Alpha  occ. eigenvalues --   -0.31359  -0.29934  -0.29461  -0.28892  -0.27867
 Alpha  occ. eigenvalues --   -0.27854  -0.26087  -0.25596  -0.25248  -0.24844
 Alpha  occ. eigenvalues --   -0.24551  -0.24224  -0.23785  -0.22081  -0.18897
 Alpha virt. eigenvalues --   -0.11482  -0.07562  -0.06115  -0.02436  -0.01399
 Alpha virt. eigenvalues --    0.00982   0.01238   0.01829   0.02527   0.02679
 Alpha virt. eigenvalues --    0.02719   0.03684   0.04253   0.04546   0.04599

 Mulliken charges:
               1
     1  O   -0.211622
     2  O   -0.236190
     3  O   -0.275700
     4  O   -0.288353
     5  O   -0.180818
     6  O   -0.240811
     7  N   -0.006981
     8  N   -0.157389
     9  N    0.060665
    10  N   -0.204449
    11  C    0.054771
    12  C    0.185877
    13  C   -0.150455
    14  C   -0.095798
    15  C   -0.106072
    16  C    0.004024
    17  C   -0.137599
    18  C    0.126138
    19  C    0.007346
    20  C   -0.113725
    21  C    0.069805
    22  C    0.122586
    23  C   -0.089364
    24  C    0.053585
    25  C    0.074096
    26  C   -0.100442
    27  C   -0.058837
    28  C    0.115521
    29  C   -0.001318
    30  C   -0.101102
    31  C   -0.012734
    32  C    0.024245
    33  C   -0.150509
    34  C    0.109701
    35  C    0.050639
    36  C    0.048999
    37  C    0.155747
    38  C    0.082370
    39  C   -0.140428
    40  C    0.167697
    41  C   -0.087699
    42  C    0.001160
    43  C   -0.001548
    44  H    0.043011
    45  H    0.014122
    46  H   -0.007380
    47  H    0.131184
    48  H    0.136236
    49  H    0.008865
    50  H    0.001619
    51  H    0.039759
    52  H    0.003770
    53  H    0.005091
    54  H    0.053061
    55  H    0.018691
    56  H    0.047286
    57  H    0.010309
    58  H    0.115580
    59  H    0.022484
    60  H    0.076934
    61  H    0.033816
    62  H    0.030565
    63  H    0.043641
    64  H    0.098388
    65  H    0.029834
    66  H    0.005090
    67  H    0.042785
    68  H    0.057183
    69  H    0.044415
    70  H   -0.062278
    71  H    0.020484
    72  H    0.244146
    73  H   -0.036668
    74  H    0.045026
    75  H    0.033478
    76  H    0.028094
    77  H    0.197556
    78  H    0.057079
    79  H    0.001714
 Sum of Mulliken charges =  -0.00000

 Dipole moment (field-independent basis, Debye):
    X=             -0.0367    Y=             -0.2126    Z=              2.1692  Tot=              2.1799
 Quadrupole moment (field-independent basis, Debye-Ang):
   XX=           -219.8140   YY=           -251.7039   ZZ=           -263.3531
   XY=             -6.2311   XZ=             35.0430   YZ=             -0.4105

 Normal termination of Gaussian 16 at Tue Sep 17 16:48:22 2019.
