 Gaussian 16, Revision A.03,
 Gaussian 16:  ES64L-G16RevA.03 25-Dec-2016

 --------------------------
 # td=(NStates=1) B3LYP/SVP
 --------------------------

 --
 TD
 --
 Symbolic Z-matrix:
 Charge =  0 Multiplicity = 1

                         Standard orientation:
 ---------------------------------------------------------------------
 Center     Atomic      Atomic             Coordinates (Angstroms)
 Number     Number       Type             X           Y           Z
 ---------------------------------------------------------------------
      1          8           0       -3.403589   -1.412324   -2.942782
      2          8           0        3.214371    3.013772    3.032776
      3          8           0        3.707098    1.329068    4.361883
      4          8           0        7.732588   -1.525025   -0.649465
      5          8           0        6.783044   -3.031020   -2.016646
      6          8           0       -2.589722    1.695325    1.563830
      7          7           0       -0.324198   -2.447157    0.884285
      8          7           0       -2.668783   -1.197648   -0.768876
      9          7           0        1.194225    0.019822   -0.804250
     10          7           0       -0.996261    1.525250   -0.135405
     11          6           0       -3.401448   -1.233182    0.549229
     12          6           0       -2.677916   -2.230489    1.428472
     13          6           0       -1.277925   -2.058180    1.725651
     14          6           0       -0.583303   -1.312622    2.760424
     15          6           0        0.714806   -1.199725    2.362248
     16          6           0        0.919857   -1.907463    1.225419
     17          6           0       -4.793844   -1.791272    0.221064
     18          6           0        1.812540   -0.539900    3.071745
     19          6           0       -4.856858   -2.066350   -1.061725
     20          6           0        2.076158   -1.915090    0.239069
     21          6           0        2.114448   -0.966438   -0.716110
     22          6           0       -3.563182   -1.617463   -1.797118
     23          6           0        3.083817   -0.607543   -1.812496
     24          6           0       -1.274329   -0.518255    3.867259
     25          6           0       -5.865812   -2.094664    1.185679
     26          6           0        2.625822    0.531165   -2.378694
     27          6           0        1.793571    1.030987    2.853414
     28          6           0        1.444664    0.989066   -1.719335
     29          6           0        4.237061   -1.529942   -2.055195
     30          6           0       -5.952169   -2.487617   -1.921308
     31          6           0        5.514374   -1.119674   -1.083881
     32          6           0        3.288357    1.259160   -3.596807
     33          6           0        0.611659    2.064644   -1.973735
     34          6           0        2.943102    1.742409    3.540413
     35          6           0       -0.562204    2.287381   -1.152085
     36          6           0       -7.049822   -3.155474   -1.562086
     37          6           0        6.715136   -2.059949   -1.313696
     38          6           0       -1.421971    3.514503   -1.139988
     39          6           0       -2.406355    3.319458   -0.090297
     40          6           0       -1.980663    2.102254    0.571733
     41          6           0       -1.274618    4.694575   -2.145017
     42          6           0       -3.393296    4.241544    0.390610
     43          6           0       -1.803094    5.846294   -2.284611
     44          1           0       -3.595688   -0.283850    0.812533
     45          1           0       -2.819516   -3.410734    0.816670
     46          1           0       -3.085424   -2.346935    2.407247
     47          1           0       -0.370780   -2.754816   -0.192624
     48          1           0       -2.065951   -0.426892   -0.740982
     49          1           0        1.575691   -0.848765    4.067729
     50          1           0        2.796051   -0.963659    2.837862
     51          1           0        2.891791   -2.689732    0.497648
     52          1           0       -2.107307   -1.322125    4.069159
     53          1           0       -0.559184   -0.315814    4.562175
     54          1           0       -1.883251    0.208411    3.167716
     55          1           0       -5.699998   -1.447624    2.043523
     56          1           0       -5.962593   -3.208982    1.487988
     57          1           0       -6.858960   -1.717150    0.698360
     58          1           0        1.677313    1.211085    1.746392
     59          1           0        0.828191    1.399463    3.472574
     60          1           0        0.428274    0.387464   -0.153496
     61          1           0        4.573012   -1.304331   -3.176866
     62          1           0        3.962158   -2.449033   -2.029523
     63          1           0       -5.828735   -2.111219   -2.871248
     64          1           0        5.390449   -1.119864   -0.079709
     65          1           0        5.808664   -0.207649   -1.483373
     66          1           0        3.895532    0.547971   -4.084239
     67          1           0        3.725939    2.283062   -3.390383
     68          1           0        2.527159    1.493309   -4.383464
     69          1           0        0.925997    2.950962   -2.630693
     70          1           0       -7.129920   -3.495752   -0.550410
     71          1           0       -7.949185   -3.280996   -2.389017
     72          1           0        3.817798    3.368467    3.655708
     73          1           0       -0.554422    4.551470   -2.865409
     74          1           0       -4.099223    4.526957   -0.295543
     75          1           0       -3.985340    3.713936    1.249071
     76          1           0       -2.970464    5.137427    1.072090
     77          1           0        8.403843   -2.241671   -0.805870
     78          1           0       -1.571728    6.706697   -3.024485
     79          1           0       -2.654785    6.327787   -1.673622
 ---------------------------------------------------------------------

 SCF Done:  E(RB3LYP) =  -1947.82512836     A.U. after   18 cycles

 Excitation energies and oscillator strengths:

 Excited State   1:      Singlet-A      0.7196 eV 1722.94 nm  f=0.0009  <S**2>=0.000
     155 ->156         0.70518
 This state for optimization and/or second-order correction.
 Total Energy, E(TD-HF/TD-DFT) =  -1947.79868325
 Copying the excited state density for this state as the 1-particle RhoCI density.

 The electronic state is 1-A.
 Alpha  occ. eigenvalues --  -19.20330 -19.16115 -19.14444 -19.12620 -19.12556
 Alpha  occ. eigenvalues --  -19.09656 -14.37583 -14.36482 -14.32047 -14.31220
 Alpha  occ. eigenvalues --  -10.33326 -10.31682 -10.28185 -10.27371 -10.26833
 Alpha  occ. eigenvalues --  -10.26763 -10.25809 -10.23443 -10.23195 -10.22858
 Alpha  occ. eigenvalues --  -10.22703 -10.22569 -10.22356 -10.21878 -10.21845
 Alpha  occ. eigenvalues --  -10.21755 -10.21481 -10.21050 -10.20729 -10.20589
 Alpha  occ. eigenvalues --  -10.20474 -10.20272 -10.19766 -10.19577 -10.19564
 Alpha  occ. eigenvalues --  -10.19519 -10.19052 -10.18497 -10.17979 -10.17886
 Alpha  occ. eigenvalues --  -10.17713 -10.16029 -10.15559  -1.12567  -1.09058
 Alpha  occ. eigenvalues --   -1.03478  -1.03415  -1.02824  -1.01198  -0.99695
 Alpha  occ. eigenvalues --   -0.96456  -0.94734  -0.91198  -0.83778  -0.83091
 Alpha  occ. eigenvalues --   -0.81342  -0.80767  -0.80686  -0.79017  -0.78363
 Alpha  occ. eigenvalues --   -0.77468  -0.76383  -0.75411  -0.74749  -0.73190
 Alpha  occ. eigenvalues --   -0.71012  -0.70499  -0.70103  -0.69800  -0.67759
 Alpha  occ. eigenvalues --   -0.66693  -0.66210  -0.63870  -0.61098  -0.60768
 Alpha  occ. eigenvalues --   -0.60019  -0.59527  -0.58516  -0.57906  -0.57100
 Alpha  occ. eigenvalues --   -0.56359  -0.55263  -0.54848  -0.53908  -0.52774
 Alpha  occ. eigenvalues --   -0.51771  -0.51387  -0.51047  -0.50681  -0.50470
 Alpha  occ. eigenvalues --   -0.49809  -0.48957  -0.48769  -0.48344  -0.47876
 Alpha  occ. eigenvalues --   -0.47297  -0.47126  -0.46711  -0.46491  -0.46348
 Alpha  occ. eigenvalues --   -0.46073  -0.45594  -0.45318  -0.44772  -0.44400
 Alpha  occ. eigenvalues --   -0.44046  -0.43547  -0.43294  -0.43015  -0.42351
 Alpha  occ. eigenvalues --   -0.42032  -0.41886  -0.41559  -0.41476  -0.41274
 Alpha  occ. eigenvalues --   -0.41026  -0.40902  -0.40522  -0.40235  -0.40038
 Alpha  occ. eigenvalues --   -0.39729  -0.39470  -0.38902  -0.38785  -0.38662
 Alpha  occ. eigenvalues --   -0.38010  -0.37367  -0.37021  -0.36729  -0.36449
 Alpha  occ. eigenvalues --   -0.36274  -0.35859  -0.35544  -0.34640  -0.34380
 Alpha  occ. eigenvalues --   -0.33818  -0.33465  -0.32744  -0.31926  -0.31618
 Alpha  occ. eigenvalues --   -0.31584  -0.30513  -0.30217  -0.29994  -0.28902
 Alpha  occ. eigenvalues --   -0.27930  -0.27758  -0.26138  -0.25894  -0.24142
 Alpha  occ. eigenvalues --   -0.23866  -0.23530  -0.23255  -0.22941  -0.18423
 Alpha virt. eigenvalues --   -0.13370  -0.07890  -0.03248  -0.01003  -0.00288
 Alpha virt. eigenvalues --    0.00154   0.01677   0.02468   0.02667   0.03514
 Alpha virt. eigenvalues --    0.04267   0.04341   0.04970   0.05164   0.05318

 Mulliken charges:
               1
     1  O   -0.172740
     2  O   -0.204596
     3  O   -0.206904
     4  O   -0.165822
     5  O   -0.213942
     6  O   -0.218861
     7  N   -0.078237
     8  N   -0.242404
     9  N   -0.086785
    10  N   -0.289620
    11  C    0.183473
    12  C    0.123820
    13  C   -0.088040
    14  C   -0.180586
    15  C   -0.085300
    16  C   -0.086196
    17  C   -0.230135
    18  C    0.124012
    19  C   -0.062207
    20  C   -0.178337
    21  C    0.179447
    22  C    0.162722
    23  C   -0.084225
    24  C    0.098155
    25  C    0.045164
    26  C   -0.134569
    27  C   -0.042603
    28  C    0.105272
    29  C    0.146699
    30  C    0.027835
    31  C    0.066856
    32  C    0.112907
    33  C   -0.094804
    34  C    0.134641
    35  C    0.086479
    36  C   -0.044547
    37  C    0.110940
    38  C    0.009298
    39  C   -0.168780
    40  C    0.165938
    41  C    0.096486
    42  C    0.060945
    43  C   -0.122089
    44  H   -0.011059
    45  H    0.012918
    46  H   -0.020107
    47  H    0.157785
    48  H    0.112930
    49  H    0.003821
    50  H   -0.009194
    51  H    0.046228
    52  H    0.008378
    53  H   -0.003648
    54  H    0.080153
    55  H    0.008975
    56  H    0.065435
    57  H    0.048043
    58  H    0.041764
    59  H    0.073648
    60  H    0.206693
    61  H    0.027678
    62  H   -0.028985
    63  H   -0.027026
    64  H    0.021823
    65  H    0.025891
    66  H    0.000236
    67  H    0.046227
    68  H    0.020893
    69  H    0.025631
    70  H    0.005234
    71  H    0.047273
    72  H    0.153368
    73  H   -0.041931
    74  H    0.016300
    75  H    0.026468
    76  H    0.055921
    77  H    0.180633
    78  H    0.039852
    79  H    0.022990
 Sum of Mulliken charges =  -0.00000

 Dipole moment (field-independent basis, Debye):
    X=              3.3480    Y=              2.9891    Z=             -1.4540  Tot=              4.7178
 Quadrupole moment (field-independent basis, Debye-Ang):
   XX=           -233.3827   YY=           -240.3884   ZZ=           -268.8667
   XY=             -1.1201   XZ=            -19.5667   YZ=            -14.5283

 Normal termination of Gaussian 16 at Mon Jul 29 18:34:30 2019.
