 Gaussian 16, Revision A.03,
 Gaussian 16:  ES64L-G16RevA.03 25-Dec-2016

 --------------------------
 # td=(NStates=1) B3LYP/SVP
 --------------------------

 --
 TD
 --
 Symbolic Z-matrix:
 Charge =  0 Multiplicity = 1

                         Standard orientation:
 ---------------------------------------------------------------------
 Center     Atomic      Atomic             Coordinates (Angstroms)
 Number     Number       Type             X           Y           Z
 ---------------------------------------------------------------------
      1          8           0        5.159292   -0.206787   -3.322222
      2          8           0       -2.818669   -2.966776    3.343127
      3          8           0       -3.347789   -0.807674    2.849603
      4          8           0       -1.787389    7.256354    1.332253
      5          8           0       -0.446576    6.889473   -0.364023
      6          8           0       -1.739130   -3.977730   -0.110641
      7          7           0        2.361678    0.898266    0.559052
      8          7           0        4.338707   -0.624369   -1.149699
      9          7           0       -1.787190    0.686335   -0.483240
     10          7           0       -2.481510   -1.860212   -0.626983
     11          6           0        4.792128   -1.236170    0.020508
     12          6           0        4.420071   -0.286873    1.268284
     13          6           0        2.986320   -0.045950    1.394212
     14          6           0        1.959555   -0.602811    2.147448
     15          6           0        0.737418    0.080259    1.812493
     16          6           0        1.051016    1.032972    0.871425
     17          6           0        6.333888   -1.301690   -0.225562
     18          6           0       -0.646337   -0.190320    2.422430
     19          6           0        6.668207   -0.857537   -1.409206
     20          6           0        0.188639    1.903087    0.029663
     21          6           0       -1.098305    1.885261   -0.406843
     22          6           0        5.335207   -0.415070   -2.103451
     23          6           0       -2.010296    2.899824   -0.945829
     24          6           0        2.093062   -1.612929    3.213437
     25          6           0        7.142620   -1.885421    0.899770
     26          6           0       -3.190329    2.318988   -1.252048
     27          6           0       -1.085685   -1.609360    2.533410
     28          6           0       -3.051207    0.888569   -0.999495
     29          6           0       -1.674372    4.344416   -0.958906
     30          6           0        8.012738   -0.754022   -2.030644
     31          6           0       -1.854334    5.025920    0.416484
     32          6           0       -4.415376    2.992384   -1.829172
     33          6           0       -3.880053   -0.094458   -1.422046
     34          6           0       -2.515237   -1.687926    2.835789
     35          6           0       -3.595468   -1.477900   -1.167068
     36          6           0        9.180054   -0.610342   -1.414767
     37          6           0       -1.315452    6.456688    0.405725
     38          6           0       -4.562494   -2.602401   -1.371964
     39          6           0       -3.871757   -3.734915   -1.109713
     40          6           0       -2.522066   -3.314528   -0.529230
     41          6           0       -5.963363   -2.515685   -1.800268
     42          6           0       -4.211517   -5.187783   -1.147837
     43          6           0       -6.776590   -3.495339   -2.245061
     44          1           0        4.296050   -2.205126    0.265349
     45          1           0        5.049409    0.531508    1.435964
     46          1           0        4.632360   -0.826242    2.237528
     47          1           0        2.959915    1.575226   -0.137799
     48          1           0        3.380244   -0.749305   -1.540406
     49          1           0       -0.353562    0.273477    3.455169
     50          1           0       -1.592410    0.285569    2.045158
     51          1           0        0.614999    2.801195   -0.112843
     52          1           0        3.169586   -1.558447    3.475420
     53          1           0        1.271121   -1.483957    4.113827
     54          1           0        1.714977   -2.575365    2.915563
     55          1           0        6.616397   -2.494216    1.737706
     56          1           0        7.623026   -1.115719    1.562454
     57          1           0        7.924897   -2.675960    0.454320
     58          1           0       -0.823067   -2.053918    1.574665
     59          1           0       -0.325865   -2.264257    3.169923
     60          1           0       -1.552105   -0.327942   -0.431287
     61          1           0       -2.238251    4.834475   -1.846245
     62          1           0       -0.553579    4.468491   -1.209613
     63          1           0        7.906455   -0.639436   -3.001130
     64          1           0       -1.338058    4.453233    1.169803
     65          1           0       -2.816932    4.998666    0.878176
     66          1           0       -4.028869    3.966061   -2.021239
     67          1           0       -5.104470    3.136233   -0.830663
     68          1           0       -4.920986    2.459461   -2.641958
     69          1           0       -4.770410    0.178960   -1.925526
     70          1           0        9.378691   -0.636947   -0.272172
     71          1           0       10.081871   -0.829884   -2.069201
     72          1           0       -3.860505   -2.862033    3.642545
     73          1           0       -6.236648   -1.365756   -1.979255
     74          1           0       -5.205498   -5.421872   -0.729060
     75          1           0       -4.556299   -5.419599   -2.287989
     76          1           0       -3.543911   -5.864956   -0.648160
     77          1           0       -1.318353    8.163653    1.052277
     78          1           0       -7.925969   -3.161307   -2.684952
     79          1           0       -6.698076   -4.642621   -2.146850
 ---------------------------------------------------------------------

 SCF Done:  E(RB3LYP) =  -1947.88203156     A.U. after   15 cycles

 Excitation energies and oscillator strengths:

 Excited State   1:      Singlet-A      2.2165 eV  559.38 nm  f=0.3920  <S**2>=0.000
     155 ->156         0.69943
 This state for optimization and/or second-order correction.
 Total Energy, E(TD-HF/TD-DFT) =  -1947.80057823
 Copying the excited state density for this state as the 1-particle RhoCI density.

 The electronic state is 1-A.
 Alpha  occ. eigenvalues --  -19.19815 -19.16873 -19.12772 -19.12522 -19.12511
 Alpha  occ. eigenvalues --  -19.10684 -14.37712 -14.35796 -14.34787 -14.29149
 Alpha  occ. eigenvalues --  -10.32620 -10.31366 -10.29498 -10.27097 -10.25209
 Alpha  occ. eigenvalues --  -10.23673 -10.23442 -10.23392 -10.22212 -10.22037
 Alpha  occ. eigenvalues --  -10.21949 -10.21884 -10.21847 -10.21830 -10.21752
 Alpha  occ. eigenvalues --  -10.21620 -10.21225 -10.20892 -10.20672 -10.20517
 Alpha  occ. eigenvalues --  -10.20496 -10.20442 -10.20133 -10.20128 -10.19986
 Alpha  occ. eigenvalues --  -10.19813 -10.19604 -10.19563 -10.19373 -10.19113
 Alpha  occ. eigenvalues --  -10.18337 -10.18091 -10.18013  -1.11055  -1.09201
 Alpha  occ. eigenvalues --   -1.06790  -1.01419  -0.99223  -0.97988  -0.97466
 Alpha  occ. eigenvalues --   -0.96984  -0.94494  -0.92880  -0.82971  -0.82438
 Alpha  occ. eigenvalues --   -0.81285  -0.80797  -0.80492  -0.79466  -0.77902
 Alpha  occ. eigenvalues --   -0.77037  -0.76395  -0.75553  -0.74316  -0.72215
 Alpha  occ. eigenvalues --   -0.71211  -0.70637  -0.69732  -0.68508  -0.68106
 Alpha  occ. eigenvalues --   -0.65923  -0.65462  -0.63862  -0.61239  -0.60240
 Alpha  occ. eigenvalues --   -0.59958  -0.58364  -0.58120  -0.56420  -0.55887
 Alpha  occ. eigenvalues --   -0.55659  -0.54635  -0.54223  -0.53784  -0.53178
 Alpha  occ. eigenvalues --   -0.52558  -0.51655  -0.51082  -0.50725  -0.49488
 Alpha  occ. eigenvalues --   -0.49358  -0.49083  -0.48034  -0.47812  -0.47273
 Alpha  occ. eigenvalues --   -0.47092  -0.46947  -0.46683  -0.46395  -0.45586
 Alpha  occ. eigenvalues --   -0.45337  -0.45111  -0.44547  -0.44455  -0.44315
 Alpha  occ. eigenvalues --   -0.43598  -0.43091  -0.42927  -0.42743  -0.42563
 Alpha  occ. eigenvalues --   -0.42213  -0.41740  -0.41434  -0.41421  -0.41311
 Alpha  occ. eigenvalues --   -0.40774  -0.40550  -0.40417  -0.40176  -0.39675
 Alpha  occ. eigenvalues --   -0.39457  -0.39253  -0.39053  -0.38845  -0.38361
 Alpha  occ. eigenvalues --   -0.38148  -0.37835  -0.37784  -0.37216  -0.36453
 Alpha  occ. eigenvalues --   -0.36428  -0.36150  -0.35586  -0.35132  -0.34176
 Alpha  occ. eigenvalues --   -0.33989  -0.33430  -0.32131  -0.31892  -0.31661
 Alpha  occ. eigenvalues --   -0.31317  -0.30942  -0.29353  -0.28795  -0.28473
 Alpha  occ. eigenvalues --   -0.28057  -0.26665  -0.25762  -0.25686  -0.25137
 Alpha  occ. eigenvalues --   -0.24446  -0.23452  -0.23165  -0.22562  -0.18822
 Alpha virt. eigenvalues --   -0.09862  -0.05797  -0.05185  -0.00610  -0.00529
 Alpha virt. eigenvalues --   -0.00180   0.00039   0.01804   0.02787   0.03080
 Alpha virt. eigenvalues --    0.03555   0.03791   0.03865   0.04595   0.04962

 Mulliken charges:
               1
     1  O   -0.250271
     2  O   -0.284010
     3  O   -0.224300
     4  O   -0.181212
     5  O   -0.275751
     6  O   -0.058073
     7  N   -0.144598
     8  N   -0.181542
     9  N   -0.102512
    10  N   -0.309869
    11  C    0.083046
    12  C    0.198558
    13  C   -0.103896
    14  C   -0.117666
    15  C   -0.115490
    16  C    0.066168
    17  C   -0.133265
    18  C    0.014732
    19  C   -0.054962
    20  C   -0.015136
    21  C    0.084321
    22  C    0.163108
    23  C   -0.040470
    24  C    0.064389
    25  C   -0.005117
    26  C   -0.171662
    27  C   -0.013216
    28  C    0.132617
    29  C    0.022896
    30  C    0.071772
    31  C    0.073919
    32  C    0.123619
    33  C   -0.119822
    34  C    0.194798
    35  C    0.098182
    36  C   -0.050714
    37  C    0.128110
    38  C    0.025388
    39  C   -0.224145
    40  C    0.126079
    41  C    0.009235
    42  C    0.069836
    43  C   -0.125196
    44  H    0.026287
    45  H   -0.022960
    46  H   -0.025799
    47  H    0.166220
    48  H    0.147220
    49  H    0.024211
    50  H    0.046773
    51  H   -0.069575
    52  H    0.017483
    53  H    0.030123
    54  H    0.022425
    55  H    0.026181
    56  H    0.044261
    57  H    0.059657
    58  H    0.053653
    59  H    0.030357
    60  H    0.147207
    61  H    0.038261
    62  H    0.041196
    63  H   -0.045977
    64  H    0.031481
    65  H    0.006755
    66  H   -0.008273
    67  H    0.047817
    68  H    0.049237
    69  H   -0.058946
    70  H    0.040548
    71  H    0.039658
    72  H    0.217904
    73  H    0.022874
    74  H    0.016693
    75  H    0.041057
    76  H    0.030401
    77  H    0.219459
    78  H    0.049980
    79  H    0.048271
 Sum of Mulliken charges =  -0.00000

 Dipole moment (field-independent basis, Debye):
    X=             -0.5662    Y=              0.9332    Z=              2.9518  Tot=              3.1471
 Quadrupole moment (field-independent basis, Debye-Ang):
   XX=           -219.4780   YY=           -240.5377   ZZ=           -265.7360
   XY=             -9.1785   XZ=             29.5349   YZ=              2.9435

 Normal termination of Gaussian 16 at Fri Sep 27 04:34:51 2019.
