 Gaussian 16, Revision A.03,
 Gaussian 16:  ES64L-G16RevA.03 25-Dec-2016

 --------------------------
 # td=(NStates=1) B3LYP/SVP
 --------------------------

 --
 TD
 --
 Symbolic Z-matrix:
 Charge =  0 Multiplicity = 1

                         Standard orientation:
 ---------------------------------------------------------------------
 Center     Atomic      Atomic             Coordinates (Angstroms)
 Number     Number       Type             X           Y           Z
 ---------------------------------------------------------------------
      1          8           0       -3.415770   -1.491554   -2.890624
      2          8           0        3.264851    2.985289    3.224395
      3          8           0        3.738065    1.087068    4.359037
      4          8           0        7.624378   -1.978598   -0.464262
      5          8           0        6.712788   -2.961721   -2.310444
      6          8           0       -2.667169    1.761946    1.453619
      7          7           0       -0.422442   -2.371999    0.847793
      8          7           0       -2.832935   -1.168124   -0.619484
      9          7           0        1.135050    0.154497   -0.732855
     10          7           0       -0.956998    1.522607   -0.230028
     11          6           0       -3.484616   -1.291323    0.697532
     12          6           0       -2.781759   -2.284997    1.646895
     13          6           0       -1.345783   -1.923401    1.710690
     14          6           0       -0.648880   -1.226926    2.746035
     15          6           0        0.730648   -1.200492    2.407821
     16          6           0        0.834289   -1.863834    1.206692
     17          6           0       -4.896438   -1.809157    0.235859
     18          6           0        1.852922   -0.431463    3.119401
     19          6           0       -4.948205   -2.108409   -1.046608
     20          6           0        1.996182   -1.987774    0.166079
     21          6           0        2.038881   -0.963335   -0.684955
     22          6           0       -3.709258   -1.548814   -1.659892
     23          6           0        2.966119   -0.749514   -1.735845
     24          6           0       -1.257579   -0.334373    3.881999
     25          6           0       -5.978701   -1.955658    1.310741
     26          6           0        2.646689    0.488655   -2.414656
     27          6           0        1.971373    1.031640    2.828132
     28          6           0        1.509695    1.054404   -1.778682
     29          6           0        4.258414   -1.552130   -2.047806
     30          6           0       -5.998229   -2.684108   -2.030182
     31          6           0        5.418612   -1.360907   -1.029224
     32          6           0        3.337932    1.090634   -3.563461
     33          6           0        0.643383    2.176254   -1.969278
     34          6           0        3.098904    1.722686    3.569237
     35          6           0       -0.457126    2.314160   -1.196007
     36          6           0       -7.004517   -3.364566   -1.570807
     37          6           0        6.609455   -2.167727   -1.400728
     38          6           0       -1.271612    3.589139   -1.276843
     39          6           0       -2.171869    3.545518   -0.206920
     40          6           0       -2.070130    2.229918    0.417466
     41          6           0       -1.061234    4.730665   -2.256683
     42          6           0       -3.271684    4.509919    0.183037
     43          6           0       -1.631075    6.011329   -2.245890
     44          1           0       -3.772613   -0.298650    1.033820
     45          1           0       -2.746482   -3.133724    1.346016
     46          1           0       -3.115784   -2.060876    2.494919
     47          1           0       -0.662264   -2.866969   -0.007194
     48          1           0       -2.293468   -0.534382   -0.799819
     49          1           0        1.907040   -0.795969    4.145287
     50          1           0        2.831209   -0.895063    2.825854
     51          1           0        2.842521   -2.888532    0.310796
     52          1           0       -1.985599   -0.877779    4.339177
     53          1           0       -0.573264   -0.032025    4.616962
     54          1           0       -1.713359    0.617485    3.436161
     55          1           0       -6.025730   -1.258300    2.195019
     56          1           0       -5.816494   -2.761781    1.959823
     57          1           0       -7.083722   -1.908785    0.636546
     58          1           0        2.340690    1.085367    1.792696
     59          1           0        1.215819    1.837474    2.888523
     60          1           0        0.138974    0.287176   -0.403635
     61          1           0        4.557551   -1.312056   -3.089704
     62          1           0        3.993264   -2.597152   -2.057442
     63          1           0       -5.870948   -2.192624   -3.040288
     64          1           0        5.124614   -1.467304    0.067680
     65          1           0        5.616290   -0.233034   -0.951267
     66          1           0        4.052340    0.317109   -4.277041
     67          1           0        3.892288    1.918120   -3.373249
     68          1           0        2.498536    1.593911   -4.252002
     69          1           0        0.988881    2.861237   -2.682927
     70          1           0       -6.879424   -3.888982   -0.466990
     71          1           0       -7.665339   -3.851397   -2.482114
     72          1           0        3.957925    3.542567    3.640188
     73          1           0       -0.296159    4.529546   -2.953851
     74          1           0       -3.834148    4.845657   -0.616904
     75          1           0       -3.811961    4.004862    0.968886
     76          1           0       -2.863049    5.431926    0.454616
     77          1           0        8.370652   -2.433198   -1.015248
     78          1           0       -1.147161    6.660721   -3.100750
     79          1           0       -2.236313    6.461046   -1.493195
 ---------------------------------------------------------------------

 SCF Done:  E(RB3LYP) =  -1947.77139958     A.U. after   17 cycles

 Excitation energies and oscillator strengths:

 Excited State   1:      Singlet-A      0.9156 eV 1354.08 nm  f=0.0001  <S**2>=0.000
     155 ->156         0.70430
 This state for optimization and/or second-order correction.
 Total Energy, E(TD-HF/TD-DFT) =  -1947.73775071
 Copying the excited state density for this state as the 1-particle RhoCI density.

 The electronic state is 1-A.
 Alpha  occ. eigenvalues --  -19.19249 -19.18389 -19.15056 -19.12334 -19.10928
 Alpha  occ. eigenvalues --  -19.08490 -14.36534 -14.36065 -14.31579 -14.30786
 Alpha  occ. eigenvalues --  -10.33820 -10.30789 -10.28744 -10.26966 -10.26577
 Alpha  occ. eigenvalues --  -10.25309 -10.24499 -10.24431 -10.23460 -10.23450
 Alpha  occ. eigenvalues --  -10.23093 -10.22838 -10.22349 -10.22334 -10.22271
 Alpha  occ. eigenvalues --  -10.22020 -10.21916 -10.20838 -10.20837 -10.20729
 Alpha  occ. eigenvalues --  -10.20724 -10.20524 -10.20076 -10.19702 -10.19700
 Alpha  occ. eigenvalues --  -10.19024 -10.18716 -10.18648 -10.18240 -10.16824
 Alpha  occ. eigenvalues --  -10.16785 -10.16187 -10.15910  -1.09943  -1.09483
 Alpha  occ. eigenvalues --   -1.01330  -1.00585  -0.99722  -0.98743  -0.97221
 Alpha  occ. eigenvalues --   -0.96395  -0.92017  -0.91706  -0.83154  -0.82282
 Alpha  occ. eigenvalues --   -0.81145  -0.80240  -0.79914  -0.79288  -0.78952
 Alpha  occ. eigenvalues --   -0.77325  -0.75716  -0.75458  -0.75066  -0.73065
 Alpha  occ. eigenvalues --   -0.70668  -0.70405  -0.69945  -0.69013  -0.67695
 Alpha  occ. eigenvalues --   -0.67116  -0.66161  -0.63905  -0.61746  -0.60886
 Alpha  occ. eigenvalues --   -0.59229  -0.58658  -0.58482  -0.57403  -0.56992
 Alpha  occ. eigenvalues --   -0.56597  -0.55074  -0.54754  -0.54264  -0.52998
 Alpha  occ. eigenvalues --   -0.51451  -0.51054  -0.50487  -0.50143  -0.49824
 Alpha  occ. eigenvalues --   -0.49164  -0.48821  -0.48441  -0.47706  -0.47429
 Alpha  occ. eigenvalues --   -0.47359  -0.46806  -0.46668  -0.46056  -0.45583
 Alpha  occ. eigenvalues --   -0.45201  -0.44952  -0.44532  -0.43788  -0.43632
 Alpha  occ. eigenvalues --   -0.43358  -0.43020  -0.42974  -0.42907  -0.42248
 Alpha  occ. eigenvalues --   -0.42024  -0.41540  -0.41436  -0.40975  -0.40415
 Alpha  occ. eigenvalues --   -0.40219  -0.40098  -0.39606  -0.39531  -0.39300
 Alpha  occ. eigenvalues --   -0.39101  -0.38835  -0.38602  -0.38116  -0.37600
 Alpha  occ. eigenvalues --   -0.37345  -0.37067  -0.36857  -0.36625  -0.36470
 Alpha  occ. eigenvalues --   -0.36378  -0.35975  -0.35088  -0.34942  -0.34393
 Alpha  occ. eigenvalues --   -0.33859  -0.33642  -0.32163  -0.31754  -0.31397
 Alpha  occ. eigenvalues --   -0.30782  -0.30506  -0.30229  -0.29176  -0.28270
 Alpha  occ. eigenvalues --   -0.26548  -0.26080  -0.25619  -0.24793  -0.24407
 Alpha  occ. eigenvalues --   -0.23739  -0.23510  -0.22991  -0.22280  -0.18826
 Alpha virt. eigenvalues --   -0.12900  -0.08358  -0.03605  -0.02527  -0.02236
 Alpha virt. eigenvalues --    0.01327   0.01618   0.02430   0.02833   0.03147
 Alpha virt. eigenvalues --    0.03534   0.03919   0.04331   0.05024   0.05274

 Mulliken charges:
               1
     1  O   -0.286608
     2  O   -0.183495
     3  O   -0.218790
     4  O   -0.237576
     5  O   -0.217439
     6  O   -0.260237
     7  N   -0.052378
     8  N   -0.118986
     9  N   -0.187623
    10  N   -0.337828
    11  C    0.038088
    12  C    0.676101
    13  C   -0.233838
    14  C   -0.155852
    15  C   -0.069421
    16  C   -0.052200
    17  C   -0.212219
    18  C    0.130293
    19  C   -0.061390
    20  C   -0.195008
    21  C    0.237884
    22  C    0.133785
    23  C   -0.106132
    24  C    0.131142
    25  C    0.018342
    26  C   -0.082075
    27  C    0.035465
    28  C    0.103164
    29  C    0.144437
    30  C    0.027052
    31  C   -0.050472
    32  C    0.029020
    33  C   -0.114852
    34  C    0.088097
    35  C    0.202481
    36  C   -0.096542
    37  C    0.181333
    38  C    0.002523
    39  C   -0.227602
    40  C    0.226815
    41  C    0.014734
    42  C    0.185302
    43  C   -0.027955
    44  H    0.040801
    45  H   -0.147204
    46  H   -0.107366
    47  H    0.115015
    48  H    0.031219
    49  H    0.008559
    50  H   -0.024973
    51  H    0.078235
    52  H   -0.029924
    53  H   -0.018923
    54  H    0.051907
    55  H    0.015410
    56  H    0.011204
    57  H    0.074049
    58  H    0.020073
    59  H    0.036728
    60  H    0.199141
    61  H    0.014594
    62  H    0.012760
    63  H    0.041957
    64  H    0.061036
    65  H    0.049285
    66  H    0.064386
    67  H    0.007175
    68  H    0.037840
    69  H   -0.049365
    70  H    0.067663
    71  H    0.049190
    72  H    0.194697
    73  H   -0.020282
    74  H    0.000024
    75  H    0.027502
    76  H   -0.001975
    77  H    0.201229
    78  H    0.048075
    79  H    0.020717
 Sum of Mulliken charges =  -0.00000

 Dipole moment (field-independent basis, Debye):
    X=              3.9873    Y=              3.6453    Z=             -1.1110  Tot=              5.5155
 Quadrupole moment (field-independent basis, Debye-Ang):
   XX=           -236.8115   YY=           -227.4919   ZZ=           -270.1977
   XY=             10.7005   XZ=            -22.8795   YZ=            -11.6478

 Normal termination of Gaussian 16 at Sun Jul 28 12:57:26 2019.
