 Gaussian 16, Revision A.03,
 Gaussian 16:  ES64L-G16RevA.03 25-Dec-2016

 --------------------------
 # td=(NStates=1) B3LYP/SVP
 --------------------------

 --
 TD
 --
 Symbolic Z-matrix:
 Charge =  0 Multiplicity = 1

                         Standard orientation:
 ---------------------------------------------------------------------
 Center     Atomic      Atomic             Coordinates (Angstroms)
 Number     Number       Type             X           Y           Z
 ---------------------------------------------------------------------
      1          8           0       -3.288710   -1.549774   -2.765410
      2          8           0        2.599855    3.382429    2.922179
      3          8           0        3.393560    1.849266    4.405292
      4          8           0        7.854232   -1.657695   -0.427428
      5          8           0        6.884079   -3.006042   -2.043469
      6          8           0       -2.618250    1.791472    1.282828
      7          7           0       -0.332099   -2.328207    1.099329
      8          7           0       -2.697741   -1.286547   -0.545297
      9          7           0        1.200571    0.053461   -0.570845
     10          7           0       -0.952840    1.478773   -0.348742
     11          6           0       -3.444275   -1.252471    0.620532
     12          6           0       -2.712181   -2.193219    1.686775
     13          6           0       -1.306374   -1.926005    1.938071
     14          6           0       -0.753855   -1.007802    2.826258
     15          6           0        0.664425   -0.968739    2.558484
     16          6           0        0.921230   -1.763812    1.412737
     17          6           0       -4.800638   -1.786197    0.331413
     18          6           0        1.739818   -0.228714    3.163525
     19          6           0       -4.941017   -2.006765   -0.986419
     20          6           0        2.112747   -1.798604    0.577026
     21          6           0        2.218428   -0.953561   -0.481545
     22          6           0       -3.626914   -1.660282   -1.564321
     23          6           0        3.159950   -0.814389   -1.653121
     24          6           0       -1.426480   -0.075443    3.860354
     25          6           0       -5.838785   -2.117797    1.330173
     26          6           0        2.693955    0.174844   -2.362423
     27          6           0        1.816630    1.236334    2.664047
     28          6           0        1.546938    0.766262   -1.837490
     29          6           0        4.400861   -1.663380   -1.771025
     30          6           0       -5.901041   -2.682608   -1.864577
     31          6           0        5.564259   -1.328479   -0.866086
     32          6           0        3.425193    0.718896   -3.575433
     33          6           0        0.740095    1.758634   -2.115517
     34          6           0        2.692092    2.166153    3.486358
     35          6           0       -0.469047    2.215478   -1.416439
     36          6           0       -6.859835   -3.580108   -1.604256
     37          6           0        6.783613   -2.047908   -1.164056
     38          6           0       -1.347609    3.385820   -1.579921
     39          6           0       -2.221346    3.398509   -0.571046
     40          6           0       -1.917651    2.207747    0.271122
     41          6           0       -1.217825    4.426713   -2.519222
     42          6           0       -3.298792    4.368976   -0.119918
     43          6           0       -2.033030    5.428590   -2.867824
     44          1           0       -3.715833   -0.242415    0.906861
     45          1           0       -2.611273   -3.214275    1.236772
     46          1           0       -3.192328   -2.023053    2.707412
     47          1           0       -0.535373   -3.048427    0.546618
     48          1           0       -2.140376   -0.367733   -0.916678
     49          1           0        1.624605   -0.202918    4.337973
     50          1           0        2.805673   -0.528984    2.986515
     51          1           0        2.812804   -2.909019    0.787722
     52          1           0       -2.387024   -0.423277    4.205871
     53          1           0       -0.887867    0.125188    4.713893
     54          1           0       -1.488644    0.845416    3.049828
     55          1           0       -5.817012   -1.474699    2.188905
     56          1           0       -5.848541   -3.174635    1.662655
     57          1           0       -6.866782   -1.902936    0.869169
     58          1           0        2.258677    1.441096    1.552342
     59          1           0        0.881778    1.729391    2.839460
     60          1           0        0.431788    0.322243   -0.053486
     61          1           0        4.413380   -1.566720   -2.818221
     62          1           0        4.184598   -2.655364   -1.634408
     63          1           0       -5.564491   -2.484553   -2.852621
     64          1           0        5.231169   -1.466645   -0.010039
     65          1           0        5.825376   -0.248285   -1.095477
     66          1           0        4.100310   -0.158097   -3.855832
     67          1           0        3.961127    1.761950   -3.521077
     68          1           0        2.866342    1.135066   -4.420599
     69          1           0        0.882311    2.455871   -2.971648
     70          1           0       -7.154900   -3.914961   -0.584851
     71          1           0       -7.466329   -4.114201   -2.416224
     72          1           0        3.272675    4.015283    3.354195
     73          1           0       -0.259056    4.392657   -3.220347
     74          1           0       -4.046230    4.531999   -0.834338
     75          1           0       -3.662913    4.143249    0.882109
     76          1           0       -2.809080    5.258113    0.053036
     77          1           0        8.494083   -2.144408   -0.919981
     78          1           0       -1.842191    6.251692   -3.653051
     79          1           0       -3.055042    5.576748   -2.372913
 ---------------------------------------------------------------------

 SCF Done:  E(RB3LYP) =  -1947.79961114     A.U. after   22 cycles

 Excitation energies and oscillator strengths:

 Excited State   1:      Singlet-A      0.7378 eV 1680.42 nm  f=0.0024  <S**2>=0.000
     155 ->156         0.70475
 This state for optimization and/or second-order correction.
 Total Energy, E(TD-HF/TD-DFT) =  -1947.77249683
 Copying the excited state density for this state as the 1-particle RhoCI density.

 The electronic state is 1-A.
 Alpha  occ. eigenvalues --  -19.20750 -19.18109 -19.14166 -19.12589 -19.11963
 Alpha  occ. eigenvalues --  -19.07873 -14.36171 -14.35124 -14.32530 -14.31385
 Alpha  occ. eigenvalues --  -10.34420 -10.30792 -10.28401 -10.26982 -10.26392
 Alpha  occ. eigenvalues --  -10.26146 -10.25760 -10.23422 -10.23406 -10.22844
 Alpha  occ. eigenvalues --  -10.22631 -10.21988 -10.21960 -10.21820 -10.21716
 Alpha  occ. eigenvalues --  -10.21512 -10.21411 -10.21298 -10.21165 -10.20272
 Alpha  occ. eigenvalues --  -10.20240 -10.19669 -10.19554 -10.19467 -10.19211
 Alpha  occ. eigenvalues --  -10.18945 -10.18907 -10.18803 -10.18752 -10.18380
 Alpha  occ. eigenvalues --  -10.17269 -10.16491 -10.16446  -1.11778  -1.08806
 Alpha  occ. eigenvalues --   -1.00388  -1.00356  -0.99125  -0.98709  -0.97273
 Alpha  occ. eigenvalues --   -0.96266  -0.93565  -0.91982  -0.86027  -0.83359
 Alpha  occ. eigenvalues --   -0.82847  -0.81359  -0.80943  -0.80065  -0.77801
 Alpha  occ. eigenvalues --   -0.76682  -0.75733  -0.75441  -0.74537  -0.73457
 Alpha  occ. eigenvalues --   -0.72161  -0.71652  -0.70413  -0.69627  -0.68142
 Alpha  occ. eigenvalues --   -0.66982  -0.66498  -0.63705  -0.62762  -0.61339
 Alpha  occ. eigenvalues --   -0.59698  -0.59116  -0.58969  -0.58105  -0.57096
 Alpha  occ. eigenvalues --   -0.54986  -0.54443  -0.54322  -0.54166  -0.53282
 Alpha  occ. eigenvalues --   -0.52793  -0.52161  -0.51762  -0.51482  -0.50848
 Alpha  occ. eigenvalues --   -0.50497  -0.50123  -0.48938  -0.48231  -0.47446
 Alpha  occ. eigenvalues --   -0.47055  -0.46679  -0.46238  -0.45855  -0.45688
 Alpha  occ. eigenvalues --   -0.45231  -0.44806  -0.44672  -0.44539  -0.44103
 Alpha  occ. eigenvalues --   -0.43486  -0.43297  -0.42958  -0.42795  -0.42463
 Alpha  occ. eigenvalues --   -0.42047  -0.41759  -0.41380  -0.41228  -0.41099
 Alpha  occ. eigenvalues --   -0.40447  -0.40334  -0.40102  -0.39708  -0.39395
 Alpha  occ. eigenvalues --   -0.39099  -0.38794  -0.38770  -0.38114  -0.38043
 Alpha  occ. eigenvalues --   -0.37598  -0.37241  -0.37016  -0.36835  -0.35801
 Alpha  occ. eigenvalues --   -0.35509  -0.35258  -0.34925  -0.34592  -0.33978
 Alpha  occ. eigenvalues --   -0.33717  -0.33162  -0.32794  -0.32372  -0.32214
 Alpha  occ. eigenvalues --   -0.31293  -0.30251  -0.29523  -0.29293  -0.28896
 Alpha  occ. eigenvalues --   -0.28156  -0.26959  -0.26176  -0.24850  -0.24159
 Alpha  occ. eigenvalues --   -0.23289  -0.22872  -0.22516  -0.21499  -0.18698
 Alpha virt. eigenvalues --   -0.13633  -0.07575  -0.04101  -0.03574  -0.02294
 Alpha virt. eigenvalues --    0.01124   0.01734   0.01815   0.02778   0.02945
 Alpha virt. eigenvalues --    0.03993   0.04080   0.04670   0.04897   0.05284

 Mulliken charges:
               1
     1  O   -0.279080
     2  O   -0.215575
     3  O   -0.211450
     4  O   -0.142578
     5  O   -0.309160
     6  O   -0.272225
     7  N    0.003463
     8  N   -0.223723
     9  N   -0.159281
    10  N   -0.297361
    11  C    0.114762
    12  C    0.200103
    13  C   -0.143259
    14  C   -0.127876
    15  C   -0.058999
    16  C   -0.020889
    17  C   -0.227890
    18  C    0.070230
    19  C   -0.024004
    20  C   -0.205722
    21  C    0.190766
    22  C    0.112068
    23  C   -0.090931
    24  C    0.080671
    25  C    0.083082
    26  C   -0.083591
    27  C   -0.056891
    28  C    0.247185
    29  C    0.183579
    30  C    0.049635
    31  C    0.192158
    32  C    0.041339
    33  C   -0.104892
    34  C    0.111507
    35  C    0.052389
    36  C   -0.068735
    37  C    0.146675
    38  C    0.132119
    39  C   -0.220983
    40  C    0.184701
    41  C   -0.073781
    42  C    0.191467
    43  C   -0.090953
    44  H    0.032581
    45  H   -0.023660
    46  H    0.007344
    47  H    0.060156
    48  H    0.191704
    49  H    0.024976
    50  H   -0.000049
    51  H    0.053673
    52  H   -0.011892
    53  H   -0.012482
    54  H    0.090941
    55  H    0.005550
    56  H    0.044949
    57  H    0.034581
    58  H    0.061851
    59  H    0.021116
    60  H    0.142904
    61  H   -0.017190
    62  H   -0.014757
    63  H   -0.005571
    64  H   -0.037258
    65  H    0.053673
    66  H    0.040042
    67  H    0.036967
    68  H    0.017304
    69  H   -0.026570
    70  H    0.016923
    71  H    0.037911
    72  H    0.196463
    73  H    0.014976
    74  H    0.030526
    75  H    0.019456
    76  H   -0.002616
    77  H    0.165249
    78  H    0.048554
    79  H    0.023605
 Sum of Mulliken charges =  -0.00000

 Dipole moment (field-independent basis, Debye):
    X=              2.8096    Y=              4.0183    Z=             -1.4725  Tot=              5.1194
 Quadrupole moment (field-independent basis, Debye-Ang):
   XX=           -233.2954   YY=           -232.1886   ZZ=           -271.3899
   XY=              7.7424   XZ=            -22.3480   YZ=            -18.7743

 Normal termination of Gaussian 16 at Mon Jul 29 21:37:03 2019.
