 Gaussian 16, Revision A.03,
 Gaussian 16:  ES64L-G16RevA.03 25-Dec-2016

 --------------------------
 # td=(NStates=1) B3LYP/SVP
 --------------------------

 --
 TD
 --
 Symbolic Z-matrix:
 Charge =  0 Multiplicity = 1

                         Standard orientation:
 ---------------------------------------------------------------------
 Center     Atomic      Atomic             Coordinates (Angstroms)
 Number     Number       Type             X           Y           Z
 ---------------------------------------------------------------------
      1          8           0        5.400331    0.287199   -3.246908
      2          8           0       -3.160234   -2.849022    3.031105
      3          8           0       -3.295499   -0.637075    3.381959
      4          8           0       -1.607193    7.050203    1.630475
      5          8           0       -0.648916    7.214514   -0.368799
      6          8           0       -1.825443   -4.030285    0.145834
      7          7           0        2.307755    0.799644    0.640747
      8          7           0        4.283375   -0.571222   -1.292286
      9          7           0       -1.787582    0.726335   -0.274156
     10          7           0       -2.618262   -1.877566   -0.525341
     11          6           0        4.618145   -1.194270   -0.028807
     12          6           0        4.253282   -0.428198    1.225369
     13          6           0        2.915078   -0.253012    1.435313
     14          6           0        1.860548   -0.704564    2.277591
     15          6           0        0.690018   -0.184287    1.896425
     16          6           0        0.971971    0.858512    0.963823
     17          6           0        6.152589   -1.376518   -0.228617
     18          6           0       -0.607327   -0.296629    2.583356
     19          6           0        6.522084   -0.899534   -1.491150
     20          6           0        0.214676    1.923482    0.256160
     21          6           0       -1.036944    1.878073   -0.244100
     22          6           0        5.394719   -0.233160   -2.159535
     23          6           0       -1.860133    2.883892   -0.844417
     24          6           0        2.168196   -1.983533    3.081697
     25          6           0        6.942649   -2.166604    0.740376
     26          6           0       -3.010425    2.413631   -1.379091
     27          6           0       -1.182533   -1.652857    2.602843
     28          6           0       -2.973118    0.961772   -1.023486
     29          6           0       -1.350161    4.355570   -0.921169
     30          6           0        7.937995   -0.769967   -2.050078
     31          6           0       -1.566317    5.043951    0.418279
     32          6           0       -4.112011    3.088870   -2.073458
     33          6           0       -3.785831   -0.033184   -1.511699
     34          6           0       -2.626751   -1.649914    2.984152
     35          6           0       -3.652255   -1.470230   -1.220288
     36          6           0        9.089700   -0.913797   -1.421338
     37          6           0       -1.144196    6.504381    0.502705
     38          6           0       -4.534363   -2.567734   -1.656944
     39          6           0       -3.920246   -3.672825   -1.092528
     40          6           0       -2.696361   -3.331169   -0.371158
     41          6           0       -5.790198   -2.299923   -2.476192
     42          6           0       -4.355515   -5.144091   -1.052025
     43          6           0       -6.624133   -3.241693   -2.859158
     44          1           0        4.040471   -2.257223   -0.025446
     45          1           0        4.845351    0.615620    1.337471
     46          1           0        4.832478   -0.970286    1.987635
     47          1           0        2.839270    1.539406    0.008056
     48          1           0        3.401693   -0.579823   -1.679891
     49          1           0       -0.501166    0.057743    3.688095
     50          1           0       -1.248035    0.387051    2.132242
     51          1           0        0.609994    2.933589    0.465333
     52          1           0        3.204534   -2.235758    3.387335
     53          1           0        1.672676   -1.601683    3.997212
     54          1           0        1.636348   -2.978942    2.733582
     55          1           0        6.277725   -2.933952    1.240250
     56          1           0        7.346599   -1.512034    1.592735
     57          1           0        7.792017   -2.679943    0.259385
     58          1           0       -1.131237   -2.425612    1.753214
     59          1           0       -0.699749   -2.273774    3.316053
     60          1           0       -1.316018   -0.279042   -0.126897
     61          1           0       -2.067711    4.814821   -1.566369
     62          1           0       -0.270876    4.360679   -1.165312
     63          1           0        7.791416   -0.331290   -3.114712
     64          1           0       -0.781540    4.480872    1.132252
     65          1           0       -2.568567    4.799321    0.797358
     66          1           0       -3.871543    4.220253   -1.999512
     67          1           0       -4.915743    3.172191   -1.446241
     68          1           0       -4.524395    2.765136   -3.020441
     69          1           0       -4.778212    0.166425   -2.130949
     70          1           0        9.158936   -1.088405   -0.421005
     71          1           0       10.068430   -0.629528   -2.019232
     72          1           0       -4.014840   -2.980625    3.846488
     73          1           0       -5.847992   -1.235226   -2.951881
     74          1           0       -5.224731   -5.068628   -0.184232
     75          1           0       -4.562772   -5.562780   -2.009695
     76          1           0       -3.462040   -5.782404   -0.911076
     77          1           0       -1.042767    7.858459    1.520247
     78          1           0       -7.420664   -2.840380   -3.520590
     79          1           0       -6.885708   -4.415465   -2.510666
 ---------------------------------------------------------------------

 SCF Done:  E(RB3LYP) =  -1947.82426434     A.U. after   16 cycles

 Excitation energies and oscillator strengths:

 Excited State   1:      Singlet-A      1.7932 eV  691.41 nm  f=0.2678  <S**2>=0.000
     153 ->156         0.10704
     155 ->156         0.69964
 This state for optimization and/or second-order correction.
 Total Energy, E(TD-HF/TD-DFT) =  -1947.75836496
 Copying the excited state density for this state as the 1-particle RhoCI density.

 The electronic state is 1-A.
 Alpha  occ. eigenvalues --  -19.19110 -19.17565 -19.13607 -19.12611 -19.11145
 Alpha  occ. eigenvalues --  -19.09419 -14.37872 -14.36374 -14.33941 -14.28835
 Alpha  occ. eigenvalues --  -10.32945 -10.29922 -10.28885 -10.27690 -10.25526
 Alpha  occ. eigenvalues --  -10.25308 -10.23476 -10.23426 -10.22610 -10.22376
 Alpha  occ. eigenvalues --  -10.22310 -10.22263 -10.21765 -10.21558 -10.21499
 Alpha  occ. eigenvalues --  -10.21379 -10.21308 -10.21303 -10.21147 -10.20912
 Alpha  occ. eigenvalues --  -10.20705 -10.20571 -10.20549 -10.20511 -10.20503
 Alpha  occ. eigenvalues --  -10.20393 -10.20014 -10.19891 -10.19296 -10.18613
 Alpha  occ. eigenvalues --  -10.18215 -10.17942 -10.17911  -1.11588  -1.06014
 Alpha  occ. eigenvalues --   -1.03116  -1.02076  -1.00501  -0.97177  -0.96219
 Alpha  occ. eigenvalues --   -0.94537  -0.93173  -0.92278  -0.82952  -0.81911
 Alpha  occ. eigenvalues --   -0.81577  -0.81123  -0.80371  -0.79917  -0.77893
 Alpha  occ. eigenvalues --   -0.77029  -0.76285  -0.75887  -0.74155  -0.72876
 Alpha  occ. eigenvalues --   -0.71788  -0.71005  -0.69838  -0.68412  -0.67750
 Alpha  occ. eigenvalues --   -0.66264  -0.65726  -0.63561  -0.60113  -0.59802
 Alpha  occ. eigenvalues --   -0.58449  -0.57725  -0.57431  -0.57230  -0.56902
 Alpha  occ. eigenvalues --   -0.56204  -0.54983  -0.54137  -0.53829  -0.52447
 Alpha  occ. eigenvalues --   -0.51621  -0.51264  -0.50858  -0.50183  -0.50130
 Alpha  occ. eigenvalues --   -0.49405  -0.48625  -0.48080  -0.47474  -0.46996
 Alpha  occ. eigenvalues --   -0.46940  -0.46667  -0.46244  -0.45675  -0.45493
 Alpha  occ. eigenvalues --   -0.45184  -0.44809  -0.44535  -0.44146  -0.43785
 Alpha  occ. eigenvalues --   -0.43524  -0.43250  -0.43016  -0.42925  -0.42698
 Alpha  occ. eigenvalues --   -0.42619  -0.42084  -0.41858  -0.41441  -0.41377
 Alpha  occ. eigenvalues --   -0.40825  -0.40354  -0.40082  -0.39625  -0.39525
 Alpha  occ. eigenvalues --   -0.39443  -0.39079  -0.39010  -0.38252  -0.38092
 Alpha  occ. eigenvalues --   -0.37673  -0.37447  -0.37193  -0.36434  -0.36266
 Alpha  occ. eigenvalues --   -0.35485  -0.35342  -0.34636  -0.34401  -0.34083
 Alpha  occ. eigenvalues --   -0.33380  -0.32782  -0.32759  -0.31860  -0.31417
 Alpha  occ. eigenvalues --   -0.31168  -0.29174  -0.28899  -0.28688  -0.28194
 Alpha  occ. eigenvalues --   -0.26596  -0.26459  -0.26083  -0.25143  -0.24608
 Alpha  occ. eigenvalues --   -0.24048  -0.23975  -0.23595  -0.22071  -0.18921
 Alpha virt. eigenvalues --   -0.11474  -0.06541  -0.06141  -0.02069  -0.01515
 Alpha virt. eigenvalues --   -0.00897   0.00056   0.00965   0.02555   0.02720
 Alpha virt. eigenvalues --    0.02938   0.03686   0.04149   0.04252   0.04755

 Mulliken charges:
               1
     1  O   -0.199834
     2  O   -0.261882
     3  O   -0.307133
     4  O   -0.163603
     5  O   -0.246430
     6  O   -0.194668
     7  N   -0.177462
     8  N   -0.237125
     9  N   -0.166794
    10  N   -0.292354
    11  C    0.056218
    12  C    0.109896
    13  C    0.034252
    14  C   -0.100513
    15  C   -0.124524
    16  C    0.056662
    17  C   -0.174468
    18  C    0.171133
    19  C   -0.083065
    20  C   -0.113359
    21  C    0.105182
    22  C    0.181474
    23  C   -0.127503
    24  C    0.020889
    25  C    0.056102
    26  C   -0.116209
    27  C   -0.010276
    28  C    0.163077
    29  C    0.176169
    30  C   -0.001663
    31  C   -0.073715
    32  C    0.160454
    33  C   -0.120073
    34  C    0.147110
    35  C    0.002333
    36  C   -0.014843
    37  C    0.157805
    38  C    0.067684
    39  C   -0.257818
    40  C    0.214618
    41  C   -0.022227
    42  C    0.082246
    43  C   -0.068998
    44  H    0.046940
    45  H    0.017395
    46  H   -0.024708
    47  H    0.158270
    48  H    0.097915
    49  H    0.021399
    50  H   -0.014162
    51  H    0.004015
    52  H    0.010779
    53  H    0.017868
    54  H    0.060863
    55  H    0.031723
    56  H    0.046384
    57  H    0.042607
    58  H    0.061557
    59  H    0.001548
    60  H    0.204258
    61  H   -0.007127
    62  H    0.027851
    63  H    0.034050
    64  H    0.052839
    65  H    0.049375
    66  H    0.000602
    67  H   -0.006095
    68  H    0.039567
    69  H    0.001373
    70  H   -0.012958
    71  H    0.048449
    72  H    0.270372
    73  H    0.038887
    74  H    0.071715
    75  H    0.007926
    76  H    0.018935
    77  H    0.173069
    78  H    0.023192
    79  H    0.076563
 Sum of Mulliken charges =  -0.00000

 Dipole moment (field-independent basis, Debye):
    X=             -1.1648    Y=             -0.7000    Z=              2.4748  Tot=              2.8233
 Quadrupole moment (field-independent basis, Debye-Ang):
   XX=           -220.6982   YY=           -250.7921   ZZ=           -259.3259
   XY=             -1.3165   XZ=             37.0454   YZ=              1.8999

 Normal termination of Gaussian 16 at Tue Oct  8 15:05:27 2019.
