 Gaussian 16, Revision A.03,
 Gaussian 16:  ES64L-G16RevA.03 25-Dec-2016

 --------------------------
 # td=(NStates=1) B3LYP/SVP
 --------------------------

 --
 TD
 --
 Symbolic Z-matrix:
 Charge =  0 Multiplicity = 1

                         Standard orientation:
 ---------------------------------------------------------------------
 Center     Atomic      Atomic             Coordinates (Angstroms)
 Number     Number       Type             X           Y           Z
 ---------------------------------------------------------------------
      1          8           0        5.222742   -0.209862   -3.437519
      2          8           0       -2.930470   -2.944299    3.286677
      3          8           0       -3.330466   -0.721711    2.955389
      4          8           0       -1.660934    7.077552    1.586451
      5          8           0       -1.149533    7.094926   -0.720800
      6          8           0       -1.592083   -4.016415   -0.026132
      7          7           0        2.388973    1.024559    0.635892
      8          7           0        4.405033   -0.416155   -1.235995
      9          7           0       -1.858622    0.648171   -0.499468
     10          7           0       -2.523952   -2.021151   -0.520076
     11          6           0        4.857664   -0.993727    0.049579
     12          6           0        4.493606    0.033757    1.223071
     13          6           0        3.012379    0.171115    1.329992
     14          6           0        2.065124   -0.533265    2.110184
     15          6           0        0.719410    0.001231    1.791754
     16          6           0        1.036627    0.973870    0.764260
     17          6           0        6.296105   -1.198090   -0.109663
     18          6           0       -0.529756   -0.298401    2.508064
     19          6           0        6.657884   -0.797270   -1.391470
     20          6           0        0.195448    1.953152    0.083693
     21          6           0       -1.067096    1.764585   -0.358530
     22          6           0        5.400521   -0.473941   -2.209737
     23          6           0       -2.056742    2.853172   -1.002736
     24          6           0        2.417219   -1.513840    3.131918
     25          6           0        7.205881   -1.737468    0.965890
     26          6           0       -3.247143    2.185715   -1.422568
     27          6           0       -1.082270   -1.580596    2.513205
     28          6           0       -3.115786    0.874673   -1.017464
     29          6           0       -1.756321    4.431593   -0.948117
     30          6           0        7.966499   -0.774543   -2.051380
     31          6           0       -1.925537    5.102647    0.360780
     32          6           0       -4.455816    2.853282   -1.845630
     33          6           0       -3.967978   -0.201094   -1.244770
     34          6           0       -2.598034   -1.608262    2.938170
     35          6           0       -3.666247   -1.568515   -1.043965
     36          6           0        9.212392   -0.812081   -1.376963
     37          6           0       -1.610758    6.486951    0.246302
     38          6           0       -4.544504   -2.711912   -1.338636
     39          6           0       -3.804721   -3.865631   -0.925271
     40          6           0       -2.571150   -3.380331   -0.466056
     41          6           0       -5.864811   -2.727643   -1.942725
     42          6           0       -4.187827   -5.311395   -0.970967
     43          6           0       -6.534957   -3.731695   -2.439394
     44          1           0        4.510752   -2.157531    0.127463
     45          1           0        5.134864    0.905354    1.096855
     46          1           0        5.052225   -0.439931    2.200982
     47          1           0        2.870476    1.548233    0.017631
     48          1           0        3.435632   -0.546167   -1.552434
     49          1           0       -0.575252    0.002853    3.463423
     50          1           0       -1.284202    0.380300    2.075616
     51          1           0        0.537107    3.134576   -0.039330
     52          1           0        3.409683   -1.423341    3.757584
     53          1           0        1.419147   -1.336733    3.912790
     54          1           0        2.429573   -2.593440    2.868887
     55          1           0        6.707808   -2.694109    1.352691
     56          1           0        7.240656   -0.937488    1.702938
     57          1           0        8.302131   -1.918945    0.775563
     58          1           0       -0.936870   -1.983643    1.442460
     59          1           0       -0.632658   -2.331624    3.048055
     60          1           0       -1.287991   -0.218373   -0.300007
     61          1           0       -2.332449    4.960984   -1.710997
     62          1           0       -0.769814    4.454327   -1.301615
     63          1           0        7.953468   -0.804091   -3.138687
     64          1           0       -1.454600    4.536352    1.285615
     65          1           0       -3.001336    4.889332    0.688762
     66          1           0       -4.529988    4.132117   -1.664848
     67          1           0       -5.351962    2.565204   -1.307313
     68          1           0       -4.798539    2.781188   -3.014508
     69          1           0       -4.876916    0.297270   -1.850757
     70          1           0        9.144998   -0.629338   -0.235100
     71          1           0       10.196140   -0.877125   -1.793479
     72          1           0       -3.800025   -2.951006    3.774228
     73          1           0       -6.579984   -1.562067   -1.753583
     74          1           0       -5.023034   -5.560936   -0.446192
     75          1           0       -4.069847   -5.557885   -2.056797
     76          1           0       -3.327073   -5.815005   -0.688155
     77          1           0       -1.387985    7.918587    1.507810
     78          1           0       -7.413671   -3.384857   -2.928780
     79          1           0       -5.960358   -4.868805   -2.596692
 ---------------------------------------------------------------------

 SCF Done:  E(RB3LYP) =  -1947.76674002     A.U. after   19 cycles

 Excitation energies and oscillator strengths:

 Excited State   1:      Singlet-A      1.9107 eV  648.90 nm  f=0.2815  <S**2>=0.000
     154 ->156         0.27344
     155 ->156         0.64319
     155 <-156        -0.10578
 This state for optimization and/or second-order correction.
 Total Energy, E(TD-HF/TD-DFT) =  -1947.69652381
 Copying the excited state density for this state as the 1-particle RhoCI density.

 The electronic state is 1-A.
 Alpha  occ. eigenvalues --  -19.16917 -19.15599 -19.15413 -19.12986 -19.10568
 Alpha  occ. eigenvalues --  -19.09578 -14.38923 -14.37057 -14.36240 -14.27769
 Alpha  occ. eigenvalues --  -10.33971 -10.30695 -10.29426 -10.26784 -10.25108
 Alpha  occ. eigenvalues --  -10.25083 -10.24815 -10.24145 -10.23938 -10.23794
 Alpha  occ. eigenvalues --  -10.23360 -10.23340 -10.22974 -10.22947 -10.22943
 Alpha  occ. eigenvalues --  -10.22867 -10.22200 -10.21738 -10.21500 -10.21323
 Alpha  occ. eigenvalues --  -10.21300 -10.21188 -10.21156 -10.20833 -10.20661
 Alpha  occ. eigenvalues --  -10.20272 -10.20204 -10.19808 -10.19309 -10.19190
 Alpha  occ. eigenvalues --  -10.17544 -10.17461 -10.17180  -1.08739  -1.08280
 Alpha  occ. eigenvalues --   -1.02974  -1.01403  -1.00446  -0.99990  -0.99531
 Alpha  occ. eigenvalues --   -0.98198  -0.93718  -0.91779  -0.83599  -0.83060
 Alpha  occ. eigenvalues --   -0.82419  -0.82269  -0.80591  -0.80083  -0.78728
 Alpha  occ. eigenvalues --   -0.78171  -0.77061  -0.75876  -0.74651  -0.72219
 Alpha  occ. eigenvalues --   -0.71575  -0.71108  -0.70054  -0.69511  -0.69027
 Alpha  occ. eigenvalues --   -0.67257  -0.66662  -0.65195  -0.61006  -0.60863
 Alpha  occ. eigenvalues --   -0.59679  -0.59126  -0.58169  -0.57600  -0.57252
 Alpha  occ. eigenvalues --   -0.56600  -0.55959  -0.55599  -0.54535  -0.53680
 Alpha  occ. eigenvalues --   -0.52763  -0.51849  -0.50764  -0.50560  -0.49841
 Alpha  occ. eigenvalues --   -0.49743  -0.48781  -0.48542  -0.47889  -0.47755
 Alpha  occ. eigenvalues --   -0.47465  -0.47238  -0.46873  -0.46137  -0.45850
 Alpha  occ. eigenvalues --   -0.45484  -0.45213  -0.44807  -0.44268  -0.43943
 Alpha  occ. eigenvalues --   -0.43791  -0.43319  -0.42915  -0.42448  -0.42326
 Alpha  occ. eigenvalues --   -0.42216  -0.41947  -0.41811  -0.41489  -0.41319
 Alpha  occ. eigenvalues --   -0.41231  -0.40539  -0.40349  -0.40113  -0.39905
 Alpha  occ. eigenvalues --   -0.39632  -0.39582  -0.39030  -0.38651  -0.38297
 Alpha  occ. eigenvalues --   -0.37990  -0.37833  -0.37383  -0.37108  -0.36038
 Alpha  occ. eigenvalues --   -0.35813  -0.35478  -0.34877  -0.34687  -0.34091
 Alpha  occ. eigenvalues --   -0.33636  -0.33070  -0.32470  -0.31806  -0.31397
 Alpha  occ. eigenvalues --   -0.31224  -0.30688  -0.30340  -0.29005  -0.27852
 Alpha  occ. eigenvalues --   -0.27092  -0.26241  -0.25635  -0.25608  -0.24903
 Alpha  occ. eigenvalues --   -0.23744  -0.23697  -0.23343  -0.21745  -0.19384
 Alpha virt. eigenvalues --   -0.11622  -0.06977  -0.06692  -0.03911  -0.00682
 Alpha virt. eigenvalues --   -0.00123   0.00567   0.01713   0.01792   0.02407
 Alpha virt. eigenvalues --    0.02855   0.03249   0.04214   0.04514   0.05060

 Mulliken charges:
               1
     1  O   -0.264858
     2  O   -0.259233
     3  O   -0.143451
     4  O   -0.217143
     5  O   -0.219178
     6  O   -0.223836
     7  N    0.134331
     8  N   -0.216998
     9  N   -0.100706
    10  N   -0.224769
    11  C    0.060299
    12  C    0.106912
    13  C   -0.093091
    14  C   -0.103954
    15  C   -0.058423
    16  C   -0.016257
    17  C   -0.197366
    18  C    0.161933
    19  C   -0.065831
    20  C   -0.100645
    21  C    0.044158
    22  C    0.185994
    23  C   -0.147987
    24  C   -0.042159
    25  C    0.080205
    26  C   -0.003743
    27  C   -0.000666
    28  C    0.077979
    29  C    0.122369
    30  C   -0.010289
    31  C   -0.035600
    32  C   -0.059738
    33  C   -0.117835
    34  C    0.126574
    35  C    0.125090
    36  C   -0.053078
    37  C    0.199063
    38  C    0.024823
    39  C   -0.244251
    40  C    0.123071
    41  C   -0.084035
    42  C    0.222835
    43  C   -0.059606
    44  H    0.063743
    45  H    0.005543
    46  H    0.027695
    47  H    0.067532
    48  H    0.140692
    49  H   -0.037524
    50  H   -0.008442
    51  H    0.040937
    52  H    0.029003
    53  H    0.034776
    54  H    0.038432
    55  H    0.040306
    56  H    0.029825
    57  H    0.043141
    58  H    0.073559
    59  H   -0.017549
    60  H    0.173556
    61  H    0.017464
    62  H    0.004072
    63  H    0.016424
    64  H    0.076701
    65  H    0.056969
    66  H    0.040765
    67  H    0.038255
    68  H    0.054307
    69  H    0.008123
    70  H    0.030922
    71  H    0.030703
    72  H    0.181893
    73  H    0.028640
    74  H    0.023136
    75  H    0.023225
    76  H   -0.024604
    77  H    0.132832
    78  H    0.020833
    79  H    0.063206
 Sum of Mulliken charges =  -0.00000

 Dipole moment (field-independent basis, Debye):
    X=              0.8720    Y=              2.5091    Z=              3.9805  Tot=              4.7855
 Quadrupole moment (field-independent basis, Debye-Ang):
   XX=           -215.9321   YY=           -254.6661   ZZ=           -265.4759
   XY=             -8.7920   XZ=             30.8736   YZ=              4.0477

 Normal termination of Gaussian 16 at Thu Oct  3 05:34:30 2019.
