 Gaussian 16, Revision A.03,
 Gaussian 16:  ES64L-G16RevA.03 25-Dec-2016

 --------------------------
 # td=(NStates=1) B3LYP/SVP
 --------------------------

 --
 TD
 --
 Symbolic Z-matrix:
 Charge =  0 Multiplicity = 1

                         Standard orientation:
 ---------------------------------------------------------------------
 Center     Atomic      Atomic             Coordinates (Angstroms)
 Number     Number       Type             X           Y           Z
 ---------------------------------------------------------------------
      1          8           0        5.380807    0.141297   -3.203162
      2          8           0       -3.128020   -2.952149    3.262036
      3          8           0       -3.302424   -0.725271    3.043380
      4          8           0       -2.089886    7.019189    1.497765
      5          8           0       -1.261983    7.088275   -0.614631
      6          8           0       -1.372628   -3.974135   -0.002501
      7          7           0        2.361579    1.146977    0.703592
      8          7           0        4.366476   -0.444781   -1.166485
      9          7           0       -1.828979    0.594094   -0.374128
     10          7           0       -2.353115   -2.032170   -0.608891
     11          6           0        4.769236   -1.039919    0.152633
     12          6           0        4.393709   -0.093505    1.319790
     13          6           0        2.943879    0.101255    1.385750
     14          6           0        1.892242   -0.533699    2.111148
     15          6           0        0.684296    0.113855    1.775445
     16          6           0        0.940022    1.130007    0.909724
     17          6           0        6.284401   -1.132685   -0.029161
     18          6           0       -0.560677   -0.175972    2.630892
     19          6           0        6.620511   -0.752956   -1.284672
     20          6           0        0.227828    2.043285    0.150873
     21          6           0       -1.111298    1.826411   -0.276406
     22          6           0        5.354045   -0.246196   -2.056664
     23          6           0       -2.069367    2.867357   -0.980390
     24          6           0        2.180110   -1.550158    3.107319
     25          6           0        7.209792   -1.584330    0.982300
     26          6           0       -3.238027    2.159166   -1.380717
     27          6           0       -1.288375   -1.648446    2.466828
     28          6           0       -2.981074    0.723067   -1.130545
     29          6           0       -1.773869    4.274954   -0.979203
     30          6           0        7.910256   -0.668107   -2.033265
     31          6           0       -2.153877    5.113003    0.382368
     32          6           0       -4.297634    2.798342   -2.168390
     33          6           0       -3.783856   -0.311587   -1.520930
     34          6           0       -2.643459   -1.723815    2.920141
     35          6           0       -3.450631   -1.620589   -1.098628
     36          6           0        9.173066   -0.542904   -1.576549
     37          6           0       -1.838445    6.489296    0.320273
     38          6           0       -4.328300   -2.864652   -1.426610
     39          6           0       -3.505618   -3.956673   -1.012638
     40          6           0       -2.343073   -3.405948   -0.454552
     41          6           0       -5.633858   -2.811706   -2.074074
     42          6           0       -3.833159   -5.381692   -0.936481
     43          6           0       -6.410534   -3.847093   -2.536940
     44          1           0        4.396762   -2.209643    0.162047
     45          1           0        5.030462    0.786918    1.182581
     46          1           0        4.620595   -0.835920    2.190022
     47          1           0        2.759250    1.797790    0.020777
     48          1           0        3.431936   -0.233231   -1.407507
     49          1           0       -0.474404    0.009183    3.599715
     50          1           0       -1.425733    0.376814    2.310581
     51          1           0        0.751666    3.060693   -0.315532
     52          1           0        3.260101   -1.953321    3.143601
     53          1           0        1.705990   -1.007983    4.133476
     54          1           0        1.555645   -2.466987    2.845106
     55          1           0        6.878562   -2.788049    1.485813
     56          1           0        7.356567   -1.033050    1.708673
     57          1           0        8.242491   -1.782447    0.629097
     58          1           0       -1.081380   -2.172550    1.443653
     59          1           0       -0.786699   -2.264529    3.198947
     60          1           0       -1.530321   -0.444848   -0.172281
     61          1           0       -2.302872    4.634177   -1.773874
     62          1           0       -0.781314    4.395642   -1.158724
     63          1           0        7.803172   -0.868669   -3.057804
     64          1           0       -1.721276    4.618041    1.173832
     65          1           0       -3.282853    5.096477    0.511228
     66          1           0       -4.258651    3.956071   -2.067428
     67          1           0       -5.318271    2.713550   -1.714558
     68          1           0       -4.268085    2.577386   -3.326448
     69          1           0       -4.900063   -0.099817   -1.847581
     70          1           0        9.478004   -0.614458   -0.442192
     71          1           0        9.946323   -0.693938   -2.280097
     72          1           0       -4.002878   -2.809260    3.726830
     73          1           0       -5.926343   -1.809227   -2.207741
     74          1           0       -4.856488   -5.506779   -0.640474
     75          1           0       -3.661139   -5.831044   -2.053575
     76          1           0       -2.998889   -5.988723   -0.385854
     77          1           0       -1.994873    8.017577    1.380857
     78          1           0       -7.307816   -3.855640   -3.357734
     79          1           0       -5.995404   -4.880903   -2.331147
 ---------------------------------------------------------------------

 SCF Done:  E(RB3LYP) =  -1947.83319259     A.U. after   19 cycles

 Excitation energies and oscillator strengths:

 Excited State   1:      Singlet-A      1.9761 eV  627.41 nm  f=0.4373  <S**2>=0.000
     154 ->156         0.10367
     155 ->156         0.69882
     155 <-156        -0.10835
 This state for optimization and/or second-order correction.
 Total Energy, E(TD-HF/TD-DFT) =  -1947.76057070
 Copying the excited state density for this state as the 1-particle RhoCI density.

 The electronic state is 1-A.
 Alpha  occ. eigenvalues --  -19.19967 -19.17072 -19.12789 -19.10920 -19.10238
 Alpha  occ. eigenvalues --  -19.09994 -14.38519 -14.36671 -14.35788 -14.28577
 Alpha  occ. eigenvalues --  -10.32433 -10.30274 -10.28359 -10.26852 -10.25683
 Alpha  occ. eigenvalues --  -10.25259 -10.24652 -10.23696 -10.23301 -10.23202
 Alpha  occ. eigenvalues --  -10.23073 -10.23070 -10.21838 -10.21688 -10.21572
 Alpha  occ. eigenvalues --  -10.21477 -10.21395 -10.21263 -10.21103 -10.20781
 Alpha  occ. eigenvalues --  -10.20710 -10.20597 -10.20001 -10.19762 -10.19708
 Alpha  occ. eigenvalues --  -10.19688 -10.19594 -10.19486 -10.19427 -10.19349
 Alpha  occ. eigenvalues --  -10.19035 -10.18764 -10.18642  -1.11217  -1.08080
 Alpha  occ. eigenvalues --   -1.02529  -1.02367  -0.99659  -0.99189  -0.98135
 Alpha  occ. eigenvalues --   -0.95822  -0.94313  -0.93212  -0.82819  -0.82670
 Alpha  occ. eigenvalues --   -0.81933  -0.81608  -0.80088  -0.79589  -0.78409
 Alpha  occ. eigenvalues --   -0.77268  -0.76518  -0.75932  -0.74972  -0.73244
 Alpha  occ. eigenvalues --   -0.72057  -0.71650  -0.69125  -0.68395  -0.68156
 Alpha  occ. eigenvalues --   -0.67787  -0.66190  -0.63982  -0.60956  -0.60918
 Alpha  occ. eigenvalues --   -0.60418  -0.58998  -0.58416  -0.57755  -0.56770
 Alpha  occ. eigenvalues --   -0.56000  -0.55396  -0.54771  -0.54086  -0.53651
 Alpha  occ. eigenvalues --   -0.52440  -0.52220  -0.51565  -0.50396  -0.49798
 Alpha  occ. eigenvalues --   -0.49196  -0.49046  -0.48189  -0.47721  -0.47390
 Alpha  occ. eigenvalues --   -0.47083  -0.46927  -0.46464  -0.46152  -0.45671
 Alpha  occ. eigenvalues --   -0.45312  -0.44986  -0.44614  -0.44139  -0.43964
 Alpha  occ. eigenvalues --   -0.43781  -0.43649  -0.42707  -0.42670  -0.42515
 Alpha  occ. eigenvalues --   -0.42304  -0.42097  -0.41705  -0.41279  -0.41013
 Alpha  occ. eigenvalues --   -0.40833  -0.40609  -0.40196  -0.39993  -0.39801
 Alpha  occ. eigenvalues --   -0.39356  -0.39229  -0.38786  -0.38437  -0.38344
 Alpha  occ. eigenvalues --   -0.38245  -0.37819  -0.37431  -0.37339  -0.37260
 Alpha  occ. eigenvalues --   -0.36020  -0.35946  -0.35498  -0.34602  -0.34315
 Alpha  occ. eigenvalues --   -0.34109  -0.33896  -0.32565  -0.32056  -0.31177
 Alpha  occ. eigenvalues --   -0.30766  -0.30354  -0.29155  -0.28434  -0.26994
 Alpha  occ. eigenvalues --   -0.26773  -0.26550  -0.25633  -0.25197  -0.25078
 Alpha  occ. eigenvalues --   -0.24427  -0.24378  -0.23909  -0.21887  -0.18697
 Alpha virt. eigenvalues --   -0.10899  -0.07204  -0.05266  -0.01239  -0.00945
 Alpha virt. eigenvalues --    0.00147   0.00949   0.01484   0.02343   0.02985
 Alpha virt. eigenvalues --    0.03367   0.03747   0.03880   0.04709   0.04823

 Mulliken charges:
               1
     1  O   -0.212187
     2  O   -0.213336
     3  O   -0.235224
     4  O   -0.169565
     5  O   -0.269647
     6  O   -0.197524
     7  N   -0.129525
     8  N   -0.185977
     9  N   -0.163052
    10  N   -0.237191
    11  C    0.040079
    12  C    0.206662
    13  C   -0.059483
    14  C   -0.101814
    15  C   -0.079064
    16  C    0.131606
    17  C   -0.169044
    18  C    0.130570
    19  C   -0.066717
    20  C   -0.123547
    21  C    0.076781
    22  C    0.137123
    23  C   -0.142971
    24  C    0.012117
    25  C    0.120333
    26  C   -0.092848
    27  C   -0.062854
    28  C    0.130949
    29  C    0.213983
    30  C    0.010249
    31  C    0.033093
    32  C    0.027301
    33  C   -0.149994
    34  C    0.126365
    35  C    0.061885
    36  C   -0.037492
    37  C    0.129574
    38  C    0.000314
    39  C   -0.182245
    40  C    0.127042
    41  C    0.026405
    42  C    0.045629
    43  C   -0.080638
    44  H    0.069776
    45  H    0.008519
    46  H    0.020954
    47  H    0.117667
    48  H    0.110017
    49  H   -0.031513
    50  H    0.007666
    51  H    0.044952
    52  H    0.028425
    53  H    0.051836
    54  H    0.052858
    55  H    0.022441
    56  H   -0.042130
    57  H    0.022241
    58  H    0.112830
    59  H    0.009174
    60  H    0.193309
    61  H   -0.022319
    62  H   -0.026554
    63  H    0.003539
    64  H    0.026978
    65  H    0.048202
    66  H    0.012648
    67  H    0.023523
    68  H    0.062828
    69  H    0.029971
    70  H    0.031809
    71  H    0.015885
    72  H    0.194083
    73  H   -0.041775
    74  H    0.039427
    75  H    0.038162
    76  H    0.046626
    77  H    0.200176
    78  H    0.066438
    79  H    0.025215
 Sum of Mulliken charges =  -0.00000

 Dipole moment (field-independent basis, Debye):
    X=             -0.7970    Y=              2.2371    Z=              4.0165  Tot=              4.6660
 Quadrupole moment (field-independent basis, Debye-Ang):
   XX=           -224.3455   YY=           -245.7845   ZZ=           -260.6872
   XY=            -12.0497   XZ=             29.8173   YZ=              8.0929

 Normal termination of Gaussian 16 at Sun Sep 22 15:11:32 2019.
