 Gaussian 16, Revision A.03,
 Gaussian 16:  ES64L-G16RevA.03 25-Dec-2016

 --------------------------
 # td=(NStates=1) B3LYP/SVP
 --------------------------

 --
 TD
 --
 Symbolic Z-matrix:
 Charge =  0 Multiplicity = 1

                         Standard orientation:
 ---------------------------------------------------------------------
 Center     Atomic      Atomic             Coordinates (Angstroms)
 Number     Number       Type             X           Y           Z
 ---------------------------------------------------------------------
      1          8           0       -3.455943   -1.064711   -2.945702
      2          8           0        3.100447    2.942051    3.171604
      3          8           0        3.875614    1.113915    4.267747
      4          8           0        7.505896   -1.755388   -0.551964
      5          8           0        6.584807   -2.888945   -2.341583
      6          8           0       -2.506119    1.524557    1.621754
      7          7           0       -0.267386   -2.442071    0.673666
      8          7           0       -2.655118   -1.261340   -0.765554
      9          7           0        1.142886    0.151810   -0.770461
     10          7           0       -1.010754    1.503269    0.005214
     11          6           0       -3.375587   -1.514129    0.585475
     12          6           0       -2.629545   -2.404638    1.568842
     13          6           0       -1.154220   -2.167050    1.651511
     14          6           0       -0.467903   -1.507074    2.771411
     15          6           0        0.907569   -1.321021    2.339276
     16          6           0        0.958680   -1.871961    1.109673
     17          6           0       -4.743304   -1.858894    0.227329
     18          6           0        1.932338   -0.630634    3.081375
     19          6           0       -4.857512   -1.964216   -1.196471
     20          6           0        2.076735   -1.914600    0.083089
     21          6           0        2.069360   -0.811779   -0.835817
     22          6           0       -3.644136   -1.383359   -1.747086
     23          6           0        2.990944   -0.496995   -1.924322
     24          6           0       -1.180420   -0.880044    3.925151
     25          6           0       -5.843976   -2.276265    1.275499
     26          6           0        2.500501    0.531350   -2.650598
     27          6           0        2.095169    0.865709    2.653854
     28          6           0        1.359771    1.000562   -1.707283
     29          6           0        4.181240   -1.218968   -2.261603
     30          6           0       -6.018880   -2.346983   -2.037271
     31          6           0        5.313928   -1.170160   -1.138562
     32          6           0        3.055471    1.480377   -3.750905
     33          6           0        0.445313    2.121974   -1.869388
     34          6           0        3.124335    1.581131    3.481964
     35          6           0       -0.579712    2.427747   -0.952486
     36          6           0       -6.962769   -3.109558   -1.794588
     37          6           0        6.571197   -1.977686   -1.473795
     38          6           0       -1.439236    3.685796   -0.882819
     39          6           0       -2.239799    3.515020    0.160062
     40          6           0       -2.019363    2.119031    0.690719
     41          6           0       -1.247481    4.721416   -1.858866
     42          6           0       -3.297834    4.432214    0.698311
     43          6           0       -1.930394    5.854439   -1.915909
     44          1           0       -3.516809   -0.376912    1.114089
     45          1           0       -2.499511   -3.428849    1.262187
     46          1           0       -3.035041   -2.462467    2.598060
     47          1           0       -0.625586   -2.474483   -0.276595
     48          1           0       -2.146915   -0.301536   -0.962794
     49          1           0        1.849192   -0.697115    4.151909
     50          1           0        3.124190   -1.210636    3.104943
     51          1           0        3.043981   -2.678179   -0.276595
     52          1           0       -1.827042   -1.642375    4.259206
     53          1           0       -0.549751   -0.419008    4.615588
     54          1           0       -1.969567   -0.066566    3.450408
     55          1           0       -5.621735   -1.773841    2.349853
     56          1           0       -5.661302   -3.276768    1.593935
     57          1           0       -6.947083   -2.112235    0.982146
     58          1           0        2.503130    1.172022    1.521355
     59          1           0        1.107310    1.420667    2.655135
     60          1           0        0.416075    0.246033   -0.323894
     61          1           0        4.777021   -1.041591   -3.211448
     62          1           0        3.773289   -2.277682   -2.230469
     63          1           0       -6.078033   -1.685506   -3.056786
     64          1           0        4.979073   -1.392774   -0.028664
     65          1           0        5.717100   -0.153251   -1.158317
     66          1           0        3.861091    1.008224   -4.358206
     67          1           0        3.440390    2.345183   -3.248526
     68          1           0        2.252968    1.604941   -4.497308
     69          1           0        0.901482    2.905011   -2.575430
     70          1           0       -7.109865   -3.892798   -0.913621
     71          1           0       -7.581890   -3.416085   -2.721306
     72          1           0        3.901504    3.488736    3.474904
     73          1           0       -0.430630    4.609973   -2.619267
     74          1           0       -4.038584    4.528775   -0.106259
     75          1           0       -3.921437    4.034408    1.585844
     76          1           0       -2.935144    5.328151    0.932397
     77          1           0        8.276638   -2.376942   -0.522935
     78          1           0       -1.743838    6.587169   -2.890235
     79          1           0       -2.692579    6.180291   -1.282818
 ---------------------------------------------------------------------

 SCF Done:  E(RB3LYP) =  -1947.78497614     A.U. after   25 cycles

 Excitation energies and oscillator strengths:

 Excited State   1:      Singlet-A      1.2546 eV  988.20 nm  f=0.0005  <S**2>=0.000
     155 ->156         0.70391
 This state for optimization and/or second-order correction.
 Total Energy, E(TD-HF/TD-DFT) =  -1947.73886886
 Copying the excited state density for this state as the 1-particle RhoCI density.

 The electronic state is 1-A.
 Alpha  occ. eigenvalues --  -19.20423 -19.16548 -19.13459 -19.12692 -19.10618
 Alpha  occ. eigenvalues --  -19.08043 -14.37714 -14.36492 -14.34076 -14.29365
 Alpha  occ. eigenvalues --  -10.33837 -10.31500 -10.26796 -10.26687 -10.26467
 Alpha  occ. eigenvalues --  -10.25796 -10.24587 -10.24495 -10.24351 -10.23200
 Alpha  occ. eigenvalues --  -10.23062 -10.22743 -10.22548 -10.22445 -10.22247
 Alpha  occ. eigenvalues --  -10.21713 -10.21561 -10.21545 -10.20872 -10.20839
 Alpha  occ. eigenvalues --  -10.20762 -10.20700 -10.20609 -10.20599 -10.20395
 Alpha  occ. eigenvalues --  -10.20143 -10.19518 -10.19062 -10.19007 -10.18376
 Alpha  occ. eigenvalues --  -10.17745 -10.17250 -10.17083  -1.10320  -1.07919
 Alpha  occ. eigenvalues --   -1.04648  -1.02814  -0.99929  -0.99649  -0.98968
 Alpha  occ. eigenvalues --   -0.96502  -0.91721  -0.90268  -0.85821  -0.81807
 Alpha  occ. eigenvalues --   -0.81416  -0.80479  -0.80219  -0.78856  -0.78468
 Alpha  occ. eigenvalues --   -0.76804  -0.75936  -0.75602  -0.74258  -0.73669
 Alpha  occ. eigenvalues --   -0.71755  -0.71170  -0.70386  -0.69884  -0.67387
 Alpha  occ. eigenvalues --   -0.66828  -0.65848  -0.64506  -0.62855  -0.60722
 Alpha  occ. eigenvalues --   -0.60565  -0.58609  -0.58465  -0.57292  -0.56552
 Alpha  occ. eigenvalues --   -0.55169  -0.54745  -0.54445  -0.53577  -0.52166
 Alpha  occ. eigenvalues --   -0.51659  -0.50578  -0.50515  -0.49667  -0.49318
 Alpha  occ. eigenvalues --   -0.48998  -0.48614  -0.48237  -0.47992  -0.47628
 Alpha  occ. eigenvalues --   -0.46769  -0.46617  -0.46411  -0.46199  -0.45404
 Alpha  occ. eigenvalues --   -0.45100  -0.45037  -0.44979  -0.44428  -0.44130
 Alpha  occ. eigenvalues --   -0.43896  -0.43215  -0.42409  -0.42218  -0.42071
 Alpha  occ. eigenvalues --   -0.41777  -0.41432  -0.41156  -0.40974  -0.40404
 Alpha  occ. eigenvalues --   -0.40225  -0.40078  -0.39468  -0.39294  -0.39071
 Alpha  occ. eigenvalues --   -0.38724  -0.38610  -0.38522  -0.38270  -0.38079
 Alpha  occ. eigenvalues --   -0.37567  -0.37462  -0.37323  -0.36744  -0.36415
 Alpha  occ. eigenvalues --   -0.36173  -0.35748  -0.35673  -0.35187  -0.34768
 Alpha  occ. eigenvalues --   -0.33261  -0.33054  -0.32414  -0.32089  -0.31588
 Alpha  occ. eigenvalues --   -0.30538  -0.29531  -0.28675  -0.28265  -0.28118
 Alpha  occ. eigenvalues --   -0.27930  -0.27733  -0.25653  -0.25195  -0.24024
 Alpha  occ. eigenvalues --   -0.23858  -0.23355  -0.22998  -0.21388  -0.18689
 Alpha virt. eigenvalues --   -0.11529  -0.06833  -0.04786  -0.02327  -0.01208
 Alpha virt. eigenvalues --    0.00286   0.00555   0.02110   0.02356   0.03189
 Alpha virt. eigenvalues --    0.03593   0.03719   0.04205   0.04649   0.05066

 Mulliken charges:
               1
     1  O   -0.273518
     2  O   -0.271159
     3  O   -0.184857
     4  O   -0.182829
     5  O   -0.265427
     6  O   -0.191470
     7  N   -0.059667
     8  N   -0.269721
     9  N    0.243101
    10  N   -0.311571
    11  C    0.047818
    12  C    0.250141
    13  C   -0.159935
    14  C   -0.161794
    15  C    0.041423
    16  C   -0.045357
    17  C   -0.140174
    18  C    0.016627
    19  C   -0.067864
    20  C   -0.082468
    21  C    0.001428
    22  C    0.129987
    23  C   -0.010542
    24  C    0.107067
    25  C    0.038567
    26  C   -0.137032
    27  C   -0.076372
    28  C   -0.074978
    29  C    0.051055
    30  C    0.009171
    31  C   -0.073454
    32  C    0.098378
    33  C   -0.070790
    34  C    0.148069
    35  C    0.071126
    36  C   -0.103231
    37  C    0.162777
    38  C    0.119201
    39  C   -0.239833
    40  C    0.138814
    41  C   -0.016493
    42  C    0.123351
    43  C   -0.054668
    44  H    0.103693
    45  H   -0.014241
    46  H   -0.010901
    47  H    0.129428
    48  H    0.186172
    49  H    0.009761
    50  H    0.025575
    51  H    0.051503
    52  H   -0.009144
    53  H   -0.007547
    54  H    0.062746
    55  H    0.025629
    56  H    0.027165
    57  H    0.066489
    58  H    0.063097
    59  H    0.069789
    60  H    0.005326
    61  H    0.039645
    62  H    0.039838
    63  H    0.050092
    64  H    0.083483
    65  H    0.026257
    66  H    0.020398
    67  H    0.049361
    68  H    0.044387
    69  H    0.005570
    70  H    0.032645
    71  H    0.033158
    72  H    0.201052
    73  H    0.003983
    74  H    0.030073
    75  H    0.033658
    76  H    0.000069
    77  H    0.206893
    78  H    0.042353
    79  H   -0.000355
 Sum of Mulliken charges =  -0.00000

 Dipole moment (field-independent basis, Debye):
    X=              3.8345    Y=              3.0179    Z=             -0.0812  Tot=              4.8803
 Quadrupole moment (field-independent basis, Debye-Ang):
   XX=           -222.3563   YY=           -236.6925   ZZ=           -271.4450
   XY=              9.4887   XZ=            -19.7520   YZ=            -15.7999

 Normal termination of Gaussian 16 at Tue Jul 30 00:19:41 2019.
