 Gaussian 16, Revision A.03,
 Gaussian 16:  ES64L-G16RevA.03 25-Dec-2016

 --------------------------
 # td=(NStates=1) B3LYP/SVP
 --------------------------

 --
 TD
 --
 Symbolic Z-matrix:
 Charge =  0 Multiplicity = 1

                         Standard orientation:
 ---------------------------------------------------------------------
 Center     Atomic      Atomic             Coordinates (Angstroms)
 Number     Number       Type             X           Y           Z
 ---------------------------------------------------------------------
      1          8           0       -3.196657   -1.324813   -2.749154
      2          8           0        2.743192    3.315429    3.149320
      3          8           0        3.705732    1.585217    4.148427
      4          8           0        7.788369   -1.423620   -0.770662
      5          8           0        6.483621   -3.141318   -1.794791
      6          8           0       -2.661585    1.666666    1.370972
      7          7           0       -0.273696   -2.353960    1.020640
      8          7           0       -2.671128   -1.248762   -0.558876
      9          7           0        1.200354    0.082792   -0.744099
     10          7           0       -0.952119    1.378103   -0.290976
     11          6           0       -3.410504   -1.327844    0.692851
     12          6           0       -2.721758   -2.413366    1.678705
     13          6           0       -1.281223   -2.022411    1.882388
     14          6           0       -0.580315   -1.118872    2.912468
     15          6           0        0.783817   -1.125697    2.522731
     16          6           0        1.067936   -1.863802    1.427844
     17          6           0       -4.672336   -1.855415    0.273325
     18          6           0        1.727671   -0.156017    3.260773
     19          6           0       -4.843802   -1.974401   -1.114676
     20          6           0        2.107497   -1.907585    0.465467
     21          6           0        2.124722   -1.016837   -0.592008
     22          6           0       -3.509162   -1.556631   -1.630359
     23          6           0        3.164625   -0.790513   -1.799040
     24          6           0       -1.321738   -0.463573    3.925251
     25          6           0       -5.820196   -2.264747    1.178588
     26          6           0        2.606729    0.309241   -2.489236
     27          6           0        1.703505    1.256097    2.842758
     28          6           0        1.459081    0.822402   -1.805426
     29          6           0        4.353065   -1.618446   -1.877719
     30          6           0       -5.786180   -2.464214   -2.049816
     31          6           0        5.435329   -1.200797   -1.044225
     32          6           0        3.172370    0.952400   -3.692395
     33          6           0        0.541822    1.893030   -2.142236
     34          6           0        2.841888    2.007678    3.403157
     35          6           0       -0.580796    2.147921   -1.320206
     36          6           0       -6.804216   -3.188558   -1.733543
     37          6           0        6.609857   -2.080974   -1.317786
     38          6           0       -1.434560    3.364054   -1.451514
     39          6           0       -2.291545    3.347436   -0.446568
     40          6           0       -2.053018    2.037844    0.390443
     41          6           0       -1.199754    4.476362   -2.293011
     42          6           0       -3.269628    4.439043    0.248821
     43          6           0       -1.813094    5.672575   -2.464195
     44          1           0       -3.397722   -0.206145    1.058186
     45          1           0       -2.880783   -3.289129    1.225544
     46          1           0       -3.350587   -2.309501    2.696160
     47          1           0       -0.438490   -2.983265   -0.002064
     48          1           0       -2.027651   -0.407608   -0.637266
     49          1           0        1.703817   -0.184312    4.250474
     50          1           0        2.835976   -0.479785    3.018806
     51          1           0        2.694660   -2.694316    0.484534
     52          1           0       -2.106787   -1.047724    4.186908
     53          1           0       -0.638284   -0.328409    4.784958
     54          1           0       -1.783339    0.489855    3.313787
     55          1           0       -5.665811   -1.550608    2.104917
     56          1           0       -6.008855   -3.304747    1.599810
     57          1           0       -6.779588   -1.999575    0.715732
     58          1           0        1.665199    1.689293    1.747623
     59          1           0        0.734769    1.761301    3.192166
     60          1           0        0.470370    0.391105   -0.063114
     61          1           0        4.725440   -1.568962   -2.933529
     62          1           0        4.109209   -2.785403   -1.462959
     63          1           0       -5.661524   -2.162096   -3.059316
     64          1           0        5.134026   -1.133937    0.132911
     65          1           0        5.742539   -0.206275   -1.506463
     66          1           0        4.103038    0.373213   -4.088304
     67          1           0        3.526130    2.044637   -3.556470
     68          1           0        2.560921    1.191584   -4.543609
     69          1           0        0.913659    2.549299   -3.015116
     70          1           0       -7.117539   -3.327179   -0.765447
     71          1           0       -7.747322   -3.305097   -2.421565
     72          1           0        3.428378    3.817459    3.533250
     73          1           0       -0.534231    4.238555   -2.919637
     74          1           0       -4.075238    4.721694   -0.463356
     75          1           0       -3.613583    4.111057    1.177105
     76          1           0       -2.604722    5.358932    0.420455
     77          1           0        8.585225   -2.047146   -0.953345
     78          1           0       -1.615060    6.281924   -3.311238
     79          1           0       -2.748038    5.981300   -1.809918
 ---------------------------------------------------------------------

 SCF Done:  E(RB3LYP) =  -1947.79201856     A.U. after   21 cycles

 Excitation energies and oscillator strengths:

 Excited State   1:      Singlet-A      0.8021 eV 1545.73 nm  f=0.0001  <S**2>=0.000
     155 ->156         0.70475
 This state for optimization and/or second-order correction.
 Total Energy, E(TD-HF/TD-DFT) =  -1947.76254173
 Copying the excited state density for this state as the 1-particle RhoCI density.

 The electronic state is 1-A.
 Alpha  occ. eigenvalues --  -19.19032 -19.17210 -19.16183 -19.13724 -19.11564
 Alpha  occ. eigenvalues --  -19.07379 -14.37558 -14.37257 -14.31315 -14.31274
 Alpha  occ. eigenvalues --  -10.33783 -10.31054 -10.29425 -10.26754 -10.26659
 Alpha  occ. eigenvalues --  -10.25550 -10.25091 -10.24635 -10.23427 -10.22968
 Alpha  occ. eigenvalues --  -10.22819 -10.22231 -10.21989 -10.21718 -10.21601
 Alpha  occ. eigenvalues --  -10.21178 -10.21089 -10.20689 -10.20634 -10.20509
 Alpha  occ. eigenvalues --  -10.20417 -10.20348 -10.20298 -10.20122 -10.20038
 Alpha  occ. eigenvalues --  -10.19218 -10.18182 -10.18125 -10.17940 -10.17407
 Alpha  occ. eigenvalues --  -10.17232 -10.16900 -10.16507  -1.10533  -1.09817
 Alpha  occ. eigenvalues --   -1.04303  -1.01745  -1.01673  -0.99716  -0.99361
 Alpha  occ. eigenvalues --   -0.93374  -0.93139  -0.91389  -0.85319  -0.82166
 Alpha  occ. eigenvalues --   -0.82080  -0.80828  -0.80638  -0.80134  -0.77629
 Alpha  occ. eigenvalues --   -0.76571  -0.76377  -0.75094  -0.74166  -0.72810
 Alpha  occ. eigenvalues --   -0.71177  -0.70357  -0.69322  -0.69268  -0.67521
 Alpha  occ. eigenvalues --   -0.66419  -0.65080  -0.63257  -0.61583  -0.60064
 Alpha  occ. eigenvalues --   -0.59617  -0.59361  -0.59150  -0.57421  -0.56158
 Alpha  occ. eigenvalues --   -0.55439  -0.54586  -0.53677  -0.52857  -0.52638
 Alpha  occ. eigenvalues --   -0.52479  -0.52042  -0.51861  -0.50444  -0.49924
 Alpha  occ. eigenvalues --   -0.49421  -0.49013  -0.48641  -0.48314  -0.47647
 Alpha  occ. eigenvalues --   -0.47096  -0.47050  -0.46486  -0.46071  -0.45658
 Alpha  occ. eigenvalues --   -0.45331  -0.44728  -0.44515  -0.44469  -0.44115
 Alpha  occ. eigenvalues --   -0.43848  -0.43743  -0.43061  -0.42316  -0.41942
 Alpha  occ. eigenvalues --   -0.41857  -0.41658  -0.41315  -0.41035  -0.40665
 Alpha  occ. eigenvalues --   -0.40478  -0.40452  -0.40362  -0.40145  -0.39919
 Alpha  occ. eigenvalues --   -0.39534  -0.39382  -0.39002  -0.38168  -0.38101
 Alpha  occ. eigenvalues --   -0.37782  -0.37158  -0.37129  -0.36870  -0.36438
 Alpha  occ. eigenvalues --   -0.36003  -0.35840  -0.35609  -0.35384  -0.34851
 Alpha  occ. eigenvalues --   -0.33968  -0.33203  -0.32700  -0.32030  -0.31761
 Alpha  occ. eigenvalues --   -0.30911  -0.30755  -0.30558  -0.30102  -0.29289
 Alpha  occ. eigenvalues --   -0.27364  -0.26956  -0.25688  -0.24179  -0.24039
 Alpha  occ. eigenvalues --   -0.23259  -0.22616  -0.22519  -0.22232  -0.17660
 Alpha virt. eigenvalues --   -0.12209  -0.07503  -0.04667  -0.02187  -0.01627
 Alpha virt. eigenvalues --    0.00550   0.00745   0.01727   0.02560   0.03013
 Alpha virt. eigenvalues --    0.03306   0.03371   0.04084   0.04903   0.04997

 Mulliken charges:
               1
     1  O   -0.206352
     2  O   -0.154741
     3  O   -0.238110
     4  O   -0.285547
     5  O   -0.153812
     6  O   -0.197274
     7  N   -0.209494
     8  N   -0.237260
     9  N   -0.082785
    10  N   -0.367653
    11  C   -0.008391
    12  C    0.258408
    13  C   -0.058874
    14  C   -0.171665
    15  C   -0.075887
    16  C    0.052093
    17  C   -0.163182
    18  C    0.161040
    19  C   -0.014289
    20  C   -0.030943
    21  C    0.122383
    22  C    0.090852
    23  C   -0.018413
    24  C    0.128702
    25  C    0.017749
    26  C   -0.091432
    27  C   -0.064901
    28  C    0.063868
    29  C    0.019398
    30  C    0.022613
    31  C   -0.047864
    32  C    0.037950
    33  C   -0.116771
    34  C    0.108306
    35  C    0.157132
    36  C   -0.018996
    37  C    0.170886
    38  C    0.071443
    39  C   -0.229509
    40  C    0.203804
    41  C    0.067921
    42  C    0.088624
    43  C   -0.027873
    44  H    0.089643
    45  H   -0.066452
    46  H    0.025832
    47  H    0.179915
    48  H    0.154708
    49  H   -0.036288
    50  H    0.002995
    51  H   -0.056269
    52  H   -0.033454
    53  H    0.006679
    54  H    0.067994
    55  H    0.021363
    56  H    0.050635
    57  H    0.033194
    58  H    0.038263
    59  H    0.049841
    60  H    0.199659
    61  H    0.021145
    62  H    0.062668
    63  H   -0.010115
    64  H    0.093470
    65  H    0.035685
    66  H    0.028424
    67  H    0.030326
    68  H    0.023839
    69  H    0.014930
    70  H   -0.027217
    71  H    0.022749
    72  H    0.158379
    73  H   -0.114253
    74  H    0.044761
    75  H    0.017004
    76  H    0.042141
    77  H    0.205032
    78  H    0.019629
    79  H    0.031988
 Sum of Mulliken charges =  -0.00000

 Dipole moment (field-independent basis, Debye):
    X=              3.6390    Y=              2.7061    Z=             -1.7784  Tot=              4.8712
 Quadrupole moment (field-independent basis, Debye-Ang):
   XX=           -227.5920   YY=           -238.1543   ZZ=           -264.7132
   XY=              0.1626   XZ=            -27.2079   YZ=            -11.9002

 Normal termination of Gaussian 16 at Sun Jul 28 00:19:09 2019.
