 Gaussian 16, Revision A.03,
 Gaussian 16:  ES64L-G16RevA.03 25-Dec-2016

 --------------------------
 # td=(NStates=1) B3LYP/SVP
 --------------------------

 --
 TD
 --
 Symbolic Z-matrix:
 Charge =  0 Multiplicity = 1

                         Standard orientation:
 ---------------------------------------------------------------------
 Center     Atomic      Atomic             Coordinates (Angstroms)
 Number     Number       Type             X           Y           Z
 ---------------------------------------------------------------------
      1          8           0        5.324940   -0.294043   -3.371913
      2          8           0       -3.061936   -2.876842    3.302441
      3          8           0       -3.312332   -0.694563    2.986708
      4          8           0       -1.690734    7.148654    1.375064
      5          8           0       -0.236442    6.785556   -0.419625
      6          8           0       -1.867355   -3.808662    0.262281
      7          7           0        2.367401    0.996270    0.748883
      8          7           0        4.284099   -0.440065   -1.242145
      9          7           0       -1.895803    0.811353   -0.244473
     10          7           0       -2.690416   -1.756989   -0.300594
     11          6           0        4.685064   -1.145170   -0.003906
     12          6           0        4.402526   -0.243293    1.264686
     13          6           0        2.907121   -0.044950    1.454412
     14          6           0        1.954965   -0.730120    2.057115
     15          6           0        0.760423   -0.083665    1.824378
     16          6           0        1.031092    1.063567    0.848876
     17          6           0        6.267514   -1.307830   -0.156477
     18          6           0       -0.610278   -0.232082    2.579445
     19          6           0        6.594111   -0.983639   -1.419330
     20          6           0        0.217260    1.938593    0.180824
     21          6           0       -1.045131    1.954602   -0.329770
     22          6           0        5.364584   -0.481553   -2.182512
     23          6           0       -1.859880    2.871568   -0.995230
     24          6           0        2.093624   -1.863367    3.215668
     25          6           0        7.096848   -1.895142    0.883959
     26          6           0       -3.103669    2.340182   -1.377486
     27          6           0       -1.100321   -1.707944    2.646090
     28          6           0       -3.016459    0.994051   -1.023901
     29          6           0       -1.402923    4.344620   -0.978601
     30          6           0        7.927490   -0.999880   -2.139589
     31          6           0       -1.698340    5.095160    0.399438
     32          6           0       -4.261319    3.054012   -2.106155
     33          6           0       -4.066023   -0.046817   -1.323489
     34          6           0       -2.622047   -1.585237    3.058748
     35          6           0       -3.884149   -1.358746   -0.942466
     36          6           0        9.047342   -0.849168   -1.493650
     37          6           0       -1.105020    6.376650    0.367814
     38          6           0       -4.636404   -2.635165   -1.552231
     39          6           0       -3.924804   -3.658485   -1.076864
     40          6           0       -2.735251   -3.174755   -0.306676
     41          6           0       -5.922864   -2.466260   -2.234699
     42          6           0       -4.120748   -5.208982   -1.326709
     43          6           0       -6.666882   -3.518752   -2.698620
     44          1           0        4.244630   -2.207243    0.039632
     45          1           0        4.930303    0.723768    1.153461
     46          1           0        4.686194   -0.853489    2.187518
     47          1           0        2.838518    1.315689   -0.084717
     48          1           0        3.257463   -0.588767   -1.576223
     49          1           0       -0.198777    0.417723    3.561167
     50          1           0       -1.399169    0.375879    2.145675
     51          1           0        0.803872    3.018200    0.006633
     52          1           0        3.207427   -1.739350    3.484318
     53          1           0        1.323175   -1.467597    4.023783
     54          1           0        1.847495   -2.818848    2.967366
     55          1           0        6.631419   -2.443103    1.746327
     56          1           0        7.457231   -1.099395    1.525227
     57          1           0        7.877374   -2.490490    0.568385
     58          1           0       -0.991226   -2.339319    1.572660
     59          1           0       -0.591998   -2.254874    3.270668
     60          1           0       -1.758490   -0.132827    0.080427
     61          1           0       -1.649842    5.001022   -1.870052
     62          1           0       -0.349049    4.247944   -1.331899
     63          1           0        7.768341   -1.236500   -3.347743
     64          1           0       -1.465195    4.463070    1.396201
     65          1           0       -2.786172    4.974980    0.351143
     66          1           0       -3.731267    3.989024   -2.347523
     67          1           0       -5.172091    3.199308   -1.441355
     68          1           0       -4.492822    2.459778   -3.066694
     69          1           0       -4.888462    0.477911   -1.687421
     70          1           0        9.474104   -0.977929   -0.454852
     71          1           0        9.929657   -1.265361   -2.178900
     72          1           0       -4.018875   -2.977545    3.720866
     73          1           0       -6.278372   -1.330256   -2.132382
     74          1           0       -5.058360   -5.454162   -0.804731
     75          1           0       -4.022739   -5.426359   -2.353175
     76          1           0       -3.206369   -5.704481   -0.865989
     77          1           0       -1.313945    7.907947    1.387685
     78          1           0       -7.694410   -3.361366   -3.366371
     79          1           0       -6.320375   -4.629779   -2.769015
 ---------------------------------------------------------------------

 SCF Done:  E(RB3LYP) =  -1947.78523582     A.U. after   17 cycles

 Excitation energies and oscillator strengths:

 Excited State   1:      Singlet-A      1.9475 eV  636.63 nm  f=0.3757  <S**2>=0.000
     154 ->156         0.12173
     155 ->156         0.69692
     155 <-156        -0.12361
 This state for optimization and/or second-order correction.
 Total Energy, E(TD-HF/TD-DFT) =  -1947.71366635
 Copying the excited state density for this state as the 1-particle RhoCI density.

 The electronic state is 1-A.
 Alpha  occ. eigenvalues --  -19.17732 -19.14665 -19.14343 -19.11815 -19.11792
 Alpha  occ. eigenvalues --  -19.08771 -14.38554 -14.36842 -14.35249 -14.27629
 Alpha  occ. eigenvalues --  -10.33463 -10.29841 -10.29646 -10.26692 -10.24895
 Alpha  occ. eigenvalues --  -10.23707 -10.23697 -10.23553 -10.23547 -10.23311
 Alpha  occ. eigenvalues --  -10.23233 -10.22989 -10.22434 -10.22314 -10.22227
 Alpha  occ. eigenvalues --  -10.21517 -10.21339 -10.21305 -10.21279 -10.21174
 Alpha  occ. eigenvalues --  -10.20965 -10.20961 -10.20875 -10.20813 -10.20672
 Alpha  occ. eigenvalues --  -10.20523 -10.20162 -10.19675 -10.19551 -10.18661
 Alpha  occ. eigenvalues --  -10.18406 -10.18351 -10.18137  -1.10415  -1.09018
 Alpha  occ. eigenvalues --   -1.03882  -1.01628  -1.00654  -1.00030  -0.98450
 Alpha  occ. eigenvalues --   -0.97134  -0.93350  -0.87999  -0.82742  -0.82605
 Alpha  occ. eigenvalues --   -0.81926  -0.81272  -0.79252  -0.78825  -0.78192
 Alpha  occ. eigenvalues --   -0.77270  -0.75454  -0.75110  -0.73504  -0.72424
 Alpha  occ. eigenvalues --   -0.71791  -0.70535  -0.69654  -0.68997  -0.67517
 Alpha  occ. eigenvalues --   -0.66111  -0.65658  -0.63045  -0.60983  -0.60111
 Alpha  occ. eigenvalues --   -0.59914  -0.58297  -0.58129  -0.57545  -0.56971
 Alpha  occ. eigenvalues --   -0.55720  -0.55207  -0.54930  -0.53768  -0.52924
 Alpha  occ. eigenvalues --   -0.52399  -0.51657  -0.51123  -0.49440  -0.49013
 Alpha  occ. eigenvalues --   -0.48781  -0.48582  -0.48104  -0.47770  -0.47165
 Alpha  occ. eigenvalues --   -0.46873  -0.46325  -0.45615  -0.45575  -0.45335
 Alpha  occ. eigenvalues --   -0.44957  -0.44522  -0.44428  -0.44061  -0.43532
 Alpha  occ. eigenvalues --   -0.43308  -0.43168  -0.42686  -0.42163  -0.41723
 Alpha  occ. eigenvalues --   -0.41654  -0.41538  -0.41426  -0.41014  -0.40933
 Alpha  occ. eigenvalues --   -0.40771  -0.40276  -0.40062  -0.39862  -0.39563
 Alpha  occ. eigenvalues --   -0.39446  -0.38790  -0.38637  -0.38321  -0.38117
 Alpha  occ. eigenvalues --   -0.37658  -0.37450  -0.37122  -0.36685  -0.36327
 Alpha  occ. eigenvalues --   -0.35089  -0.34787  -0.34098  -0.33593  -0.33325
 Alpha  occ. eigenvalues --   -0.33027  -0.32684  -0.32338  -0.31946  -0.31696
 Alpha  occ. eigenvalues --   -0.30762  -0.30189  -0.29714  -0.28703  -0.28065
 Alpha  occ. eigenvalues --   -0.27050  -0.26841  -0.26307  -0.26106  -0.25686
 Alpha  occ. eigenvalues --   -0.25125  -0.23255  -0.22889  -0.21628  -0.18365
 Alpha virt. eigenvalues --   -0.10711  -0.05836  -0.05576  -0.03046  -0.00641
 Alpha virt. eigenvalues --   -0.00393   0.01086   0.02208   0.03307   0.03523
 Alpha virt. eigenvalues --    0.03990   0.04714   0.04784   0.05021   0.05218

 Mulliken charges:
               1
     1  O   -0.189062
     2  O   -0.276992
     3  O   -0.124955
     4  O   -0.135924
     5  O   -0.239108
     6  O   -0.222489
     7  N   -0.019526
     8  N   -0.279909
     9  N   -0.097217
    10  N   -0.345339
    11  C    0.045615
    12  C    0.186857
    13  C   -0.120644
    14  C   -0.114918
    15  C   -0.105711
    16  C    0.041697
    17  C   -0.147426
    18  C    0.021902
    19  C   -0.090298
    20  C   -0.117728
    21  C    0.109340
    22  C    0.175488
    23  C   -0.092551
    24  C    0.079160
    25  C    0.125040
    26  C   -0.142077
    27  C   -0.012018
    28  C    0.007749
    29  C    0.012725
    30  C   -0.010254
    31  C   -0.005510
    32  C    0.080370
    33  C   -0.049397
    34  C    0.142544
    35  C    0.134632
    36  C   -0.077332
    37  C    0.182787
    38  C    0.013021
    39  C   -0.226454
    40  C    0.169457
    41  C    0.001832
    42  C    0.097581
    43  C   -0.115741
    44  H    0.051572
    45  H    0.013358
    46  H    0.006916
    47  H    0.111896
    48  H    0.166660
    49  H    0.042021
    50  H    0.019890
    51  H    0.036744
    52  H    0.020617
    53  H    0.053878
    54  H    0.025639
    55  H    0.006716
    56  H    0.018695
    57  H    0.019811
    58  H    0.130667
    59  H   -0.047955
    60  H    0.129450
    61  H    0.019987
    62  H    0.015504
    63  H    0.077808
    64  H    0.085940
    65  H    0.051541
    66  H    0.018799
    67  H    0.052656
    68  H    0.050479
    69  H   -0.056815
    70  H    0.046261
    71  H    0.026801
    72  H    0.201791
    73  H    0.037456
    74  H    0.037839
    75  H    0.022051
    76  H    0.026674
    77  H    0.106975
    78  H    0.047720
    79  H    0.054739
 Sum of Mulliken charges =  -0.00000

 Dipole moment (field-independent basis, Debye):
    X=              2.4804    Y=              1.6940    Z=              3.7989  Tot=              4.8429
 Quadrupole moment (field-independent basis, Debye-Ang):
   XX=           -222.5444   YY=           -249.4362   ZZ=           -257.5416
   XY=            -19.6931   XZ=             29.9281   YZ=              4.1763

 Normal termination of Gaussian 16 at Fri Sep 20 16:11:58 2019.
