 Gaussian 16, Revision A.03,
 Gaussian 16:  ES64L-G16RevA.03 25-Dec-2016

 --------------------------
 # td=(NStates=1) B3LYP/SVP
 --------------------------

 --
 TD
 --
 Symbolic Z-matrix:
 Charge =  0 Multiplicity = 1

                         Standard orientation:
 ---------------------------------------------------------------------
 Center     Atomic      Atomic             Coordinates (Angstroms)
 Number     Number       Type             X           Y           Z
 ---------------------------------------------------------------------
      1          8           0        5.217106   -0.276825   -3.246398
      2          8           0       -3.038176   -3.070393    3.315261
      3          8           0       -3.484446   -0.842214    3.038998
      4          8           0       -1.074861    7.035400    1.595411
      5          8           0       -0.423163    7.116271   -0.526083
      6          8           0       -1.666950   -3.859474   -0.249271
      7          7           0        2.325748    0.952966    0.637550
      8          7           0        4.278846   -0.689033   -1.190704
      9          7           0       -2.017304    0.832685   -0.249349
     10          7           0       -2.726940   -1.694902   -0.460135
     11          6           0        4.765720   -1.332246    0.079071
     12          6           0        4.301713   -0.470183    1.302359
     13          6           0        2.887565   -0.112243    1.368055
     14          6           0        1.949793   -0.689011    2.127654
     15          6           0        0.667736   -0.076646    1.814898
     16          6           0        0.949875    0.923095    0.936734
     17          6           0        6.304025   -1.413886   -0.134216
     18          6           0       -0.692252   -0.324193    2.476541
     19          6           0        6.580708   -0.925827   -1.415716
     20          6           0        0.087390    1.938580    0.222799
     21          6           0       -1.139758    1.955201   -0.253523
     22          6           0        5.293203   -0.562373   -2.092892
     23          6           0       -1.847604    2.899565   -0.810715
     24          6           0        2.121060   -1.833109    3.103890
     25          6           0        7.072559   -2.062434    0.899332
     26          6           0       -3.111731    2.457807   -1.359773
     27          6           0       -1.223351   -1.633991    2.490098
     28          6           0       -3.154411    1.038807   -0.967584
     29          6           0       -1.301956    4.336309   -0.862120
     30          6           0        7.876213   -0.839910   -2.127204
     31          6           0       -1.465472    5.126175    0.490640
     32          6           0       -4.165316    3.189775   -2.039315
     33          6           0       -4.072449    0.111088   -1.429730
     34          6           0       -2.680583   -1.739012    3.065015
     35          6           0       -3.817300   -1.314092   -1.062992
     36          6           0        9.128058   -0.798562   -1.613044
     37          6           0       -0.932279    6.437499    0.451859
     38          6           0       -4.636962   -2.500633   -1.423315
     39          6           0       -4.038885   -3.587177   -1.044298
     40          6           0       -2.629674   -3.166044   -0.511635
     41          6           0       -5.828120   -2.377753   -2.103562
     42          6           0       -4.170289   -5.047172   -1.439572
     43          6           0       -6.648058   -3.349471   -2.480690
     44          1           0        4.265776   -2.434454    0.182066
     45          1           0        4.957457    0.403106    1.218844
     46          1           0        4.707505   -0.930453    2.251799
     47          1           0        2.921602    1.534338    0.175429
     48          1           0        3.331156   -0.476105   -1.454156
     49          1           0       -0.550126   -0.022554    3.584245
     50          1           0       -1.328883    0.382744    1.963017
     51          1           0        0.649922    2.855298   -0.236173
     52          1           0        3.151756   -2.266944    3.281662
     53          1           0        1.795964   -1.824931    4.183679
     54          1           0        1.467358   -2.683537    2.673735
     55          1           0        6.451125   -2.862126    1.628523
     56          1           0        7.472348   -1.203724    1.635795
     57          1           0        7.861090   -2.620533    0.496389
     58          1           0       -1.166028   -2.138878    1.559185
     59          1           0       -0.837789   -2.334180    3.140764
     60          1           0       -1.962847   -0.292552   -0.187802
     61          1           0       -1.741401    4.904522   -1.812377
     62          1           0       -0.289957    4.336215   -1.198709
     63          1           0        7.639092   -0.540955   -3.128981
     64          1           0       -1.006810    4.611415    1.258048
     65          1           0       -2.445485    5.126231    0.552789
     66          1           0       -3.997864    4.341359   -2.162159
     67          1           0       -5.249182    3.140837   -1.747243
     68          1           0       -4.342527    2.739758   -3.084640
     69          1           0       -4.818797    0.245753   -2.136957
     70          1           0        9.282863   -0.922898   -0.608889
     71          1           0       10.032199   -0.834622   -2.203494
     72          1           0       -3.992831   -3.052227    3.603615
     73          1           0       -6.197697   -1.358724   -2.256640
     74          1           0       -5.074268   -5.733635   -0.669270
     75          1           0       -4.292975   -5.233392   -2.581465
     76          1           0       -3.378057   -5.536174   -1.036383
     77          1           0       -0.967971    8.040173    1.639986
     78          1           0       -7.610184   -3.213862   -2.914097
     79          1           0       -6.569065   -4.326007   -2.137316
 ---------------------------------------------------------------------

 SCF Done:  E(RB3LYP) =  -1947.84233477     A.U. after   16 cycles

 Excitation energies and oscillator strengths:

 Excited State   1:      Singlet-A      2.1585 eV  574.39 nm  f=0.4190  <S**2>=0.000
     155 ->156         0.70023
 This state for optimization and/or second-order correction.
 Total Energy, E(TD-HF/TD-DFT) =  -1947.76300987
 Copying the excited state density for this state as the 1-particle RhoCI density.

 The electronic state is 1-A.
 Alpha  occ. eigenvalues --  -19.19072 -19.17190 -19.13063 -19.12268 -19.11310
 Alpha  occ. eigenvalues --  -19.09469 -14.37698 -14.34962 -14.34097 -14.30626
 Alpha  occ. eigenvalues --  -10.32224 -10.31146 -10.28943 -10.27778 -10.26116
 Alpha  occ. eigenvalues --  -10.24183 -10.24026 -10.23991 -10.22704 -10.22528
 Alpha  occ. eigenvalues --  -10.22450 -10.22410 -10.22401 -10.21624 -10.21314
 Alpha  occ. eigenvalues --  -10.21281 -10.21127 -10.20958 -10.20473 -10.20454
 Alpha  occ. eigenvalues --  -10.20195 -10.19847 -10.19844 -10.19839 -10.19597
 Alpha  occ. eigenvalues --  -10.19373 -10.19351 -10.19321 -10.19094 -10.19010
 Alpha  occ. eigenvalues --  -10.18888 -10.18636 -10.17721  -1.10278  -1.07228
 Alpha  occ. eigenvalues --   -1.03403  -1.03211  -0.99280  -0.98123  -0.97254
 Alpha  occ. eigenvalues --   -0.96198  -0.93380  -0.93035  -0.83655  -0.82393
 Alpha  occ. eigenvalues --   -0.82255  -0.81888  -0.81201  -0.79844  -0.78841
 Alpha  occ. eigenvalues --   -0.77962  -0.76795  -0.76157  -0.74489  -0.73005
 Alpha  occ. eigenvalues --   -0.71450  -0.71309  -0.70255  -0.68747  -0.68163
 Alpha  occ. eigenvalues --   -0.67195  -0.65655  -0.63937  -0.62165  -0.61441
 Alpha  occ. eigenvalues --   -0.60948  -0.59475  -0.58871  -0.57616  -0.57076
 Alpha  occ. eigenvalues --   -0.56424  -0.55639  -0.54831  -0.54236  -0.53773
 Alpha  occ. eigenvalues --   -0.52473  -0.52293  -0.51688  -0.51010  -0.49991
 Alpha  occ. eigenvalues --   -0.49153  -0.48808  -0.48214  -0.47643  -0.47476
 Alpha  occ. eigenvalues --   -0.47187  -0.46842  -0.46738  -0.46157  -0.45599
 Alpha  occ. eigenvalues --   -0.45170  -0.44704  -0.44457  -0.44321  -0.43929
 Alpha  occ. eigenvalues --   -0.43755  -0.43198  -0.43075  -0.42815  -0.42689
 Alpha  occ. eigenvalues --   -0.42367  -0.42291  -0.41748  -0.41587  -0.41080
 Alpha  occ. eigenvalues --   -0.40897  -0.40769  -0.40475  -0.40032  -0.39629
 Alpha  occ. eigenvalues --   -0.39087  -0.39018  -0.38623  -0.38545  -0.38345
 Alpha  occ. eigenvalues --   -0.38292  -0.38095  -0.37749  -0.37454  -0.36725
 Alpha  occ. eigenvalues --   -0.36484  -0.35908  -0.35087  -0.34906  -0.34644
 Alpha  occ. eigenvalues --   -0.34156  -0.33656  -0.32833  -0.32291  -0.31581
 Alpha  occ. eigenvalues --   -0.31255  -0.30571  -0.29847  -0.28935  -0.26897
 Alpha  occ. eigenvalues --   -0.26730  -0.26357  -0.25562  -0.25405  -0.24686
 Alpha  occ. eigenvalues --   -0.24489  -0.23890  -0.23594  -0.23299  -0.19582
 Alpha virt. eigenvalues --   -0.10941  -0.07311  -0.06137  -0.01129  -0.00847
 Alpha virt. eigenvalues --    0.00344   0.01332   0.01372   0.02946   0.03463
 Alpha virt. eigenvalues --    0.03952   0.04029   0.04549   0.04888   0.05166

 Mulliken charges:
               1
     1  O   -0.197810
     2  O   -0.236016
     3  O   -0.210773
     4  O   -0.170581
     5  O   -0.310685
     6  O   -0.186345
     7  N   -0.074287
     8  N   -0.207755
     9  N   -0.190602
    10  N   -0.322238
    11  C    0.041232
    12  C    0.165941
    13  C   -0.060954
    14  C   -0.079076
    15  C   -0.129319
    16  C    0.091124
    17  C   -0.136472
    18  C    0.156139
    19  C   -0.083530
    20  C   -0.085456
    21  C    0.147322
    22  C    0.130802
    23  C   -0.078877
    24  C    0.013968
    25  C    0.022664
    26  C   -0.077357
    27  C    0.048055
    28  C    0.142286
    29  C    0.004960
    30  C    0.015559
    31  C    0.176575
    32  C    0.016228
    33  C   -0.074220
    34  C    0.127869
    35  C    0.057919
    36  C    0.012110
    37  C    0.120232
    38  C    0.126821
    39  C   -0.212945
    40  C    0.200885
    41  C   -0.052839
    42  C    0.043979
    43  C    0.017037
    44  H    0.050886
    45  H   -0.026550
    46  H    0.010710
    47  H    0.086033
    48  H    0.124974
    49  H    0.012090
    50  H    0.004641
    51  H    0.005885
    52  H    0.002815
    53  H    0.024539
    54  H    0.046402
    55  H    0.047592
    56  H    0.059461
    57  H    0.029173
    58  H    0.041284
    59  H   -0.015294
    60  H    0.193870
    61  H    0.031124
    62  H    0.000016
    63  H    0.002125
    64  H    0.018306
    65  H    0.001993
    66  H    0.035238
    67  H    0.029067
    68  H    0.028951
    69  H   -0.044924
    70  H   -0.016950
    71  H    0.029019
    72  H    0.188942
    73  H   -0.015917
    74  H    0.026345
    75  H    0.063624
    76  H   -0.000465
    77  H    0.217628
    78  H    0.007919
    79  H   -0.002123
 Sum of Mulliken charges =  -0.00000

 Dipole moment (field-independent basis, Debye):
    X=             -0.8349    Y=              0.8948    Z=              4.2699  Tot=              4.4418
 Quadrupole moment (field-independent basis, Debye-Ang):
   XX=           -219.5380   YY=           -245.8024   ZZ=           -259.4961
   XY=             -8.5460   XZ=             33.6692   YZ=              6.9278

 Normal termination of Gaussian 16 at Mon Sep 30 02:12:50 2019.
