 Gaussian 16, Revision A.03,
 Gaussian 16:  ES64L-G16RevA.03 25-Dec-2016

 --------------------------
 # td=(NStates=1) B3LYP/SVP
 --------------------------

 --
 TD
 --
 Symbolic Z-matrix:
 Charge =  0 Multiplicity = 1

                         Standard orientation:
 ---------------------------------------------------------------------
 Center     Atomic      Atomic             Coordinates (Angstroms)
 Number     Number       Type             X           Y           Z
 ---------------------------------------------------------------------
      1          8           0       -3.221488   -1.405771   -2.861022
      2          8           0        2.820899    3.213679    3.186306
      3          8           0        3.359790    1.595281    4.688339
      4          8           0        7.777949   -1.486761   -0.891923
      5          8           0        6.732873   -3.038129   -2.129887
      6          8           0       -2.716550    1.660008    1.448262
      7          7           0       -0.124909   -2.520415    1.017584
      8          7           0       -2.590883   -1.342350   -0.612173
      9          7           0        1.109161    0.079793   -0.706292
     10          7           0       -0.999750    1.332819   -0.167871
     11          6           0       -3.378297   -1.421809    0.632902
     12          6           0       -2.575423   -2.463508    1.481077
     13          6           0       -1.188068   -2.161170    1.842806
     14          6           0       -0.551732   -1.300078    2.827698
     15          6           0        0.783013   -1.176314    2.507482
     16          6           0        1.084820   -1.843804    1.311663
     17          6           0       -4.691325   -1.916013    0.246121
     18          6           0        1.904057   -0.372700    3.233450
     19          6           0       -4.724315   -1.999434   -1.159815
     20          6           0        2.207265   -1.780583    0.398007
     21          6           0        2.156636   -0.904585   -0.635765
     22          6           0       -3.422315   -1.506891   -1.611327
     23          6           0        3.087755   -0.577927   -1.691511
     24          6           0       -1.345717   -0.542135    3.858005
     25          6           0       -5.725163   -2.113251    1.186509
     26          6           0        2.606513    0.551224   -2.348641
     27          6           0        1.730267    1.144896    2.921203
     28          6           0        1.470779    0.965614   -1.711476
     29          6           0        4.323867   -1.420830   -2.053274
     30          6           0       -5.878247   -2.382077   -2.025811
     31          6           0        5.523338   -1.047952   -1.203416
     32          6           0        3.089416    1.310073   -3.594133
     33          6           0        0.502718    1.973962   -2.038167
     34          6           0        2.795713    2.005209    3.720355
     35          6           0       -0.605472    2.309076   -1.162085
     36          6           0       -6.915495   -3.200769   -1.799868
     37          6           0        6.666306   -2.010623   -1.545685
     38          6           0       -1.420951    3.486573   -1.277102
     39          6           0       -2.361010    3.360834   -0.292190
     40          6           0       -2.031665    2.112628    0.512700
     41          6           0       -1.266093    4.473437   -2.342951
     42          6           0       -3.516128    4.238540    0.256020
     43          6           0       -2.065764    5.528555   -2.595648
     44          1           0       -3.459151   -0.409293    1.057124
     45          1           0       -2.505538   -3.609091    1.114791
     46          1           0       -3.162812   -2.654084    2.386092
     47          1           0       -0.319373   -2.899908   -0.008443
     48          1           0       -1.953415   -0.628931   -0.753191
     49          1           0        2.265711   -0.638124    4.397847
     50          1           0        2.854741   -0.723854    2.816827
     51          1           0        2.915837   -2.601671    0.363642
     52          1           0       -1.940830   -1.411818    4.222689
     53          1           0       -0.608092   -0.338054    4.690537
     54          1           0       -2.026870    0.098167    3.276224
     55          1           0       -5.379860   -1.625704    2.090545
     56          1           0       -6.059932   -3.311586    1.498216
     57          1           0       -6.683302   -1.883340    0.870084
     58          1           0        1.825923    1.319453    1.862787
     59          1           0        0.735937    1.641283    3.376356
     60          1           0        0.103043    0.167834   -0.144937
     61          1           0        4.540852   -1.184465   -3.259615
     62          1           0        4.064046   -2.471354   -1.902742
     63          1           0       -5.654463   -1.985018   -3.068608
     64          1           0        5.225110   -1.181362   -0.160002
     65          1           0        5.920777    0.078062   -1.349796
     66          1           0        4.019768    0.646344   -3.891555
     67          1           0        3.539796    2.312501   -3.718827
     68          1           0        2.579322    1.305350   -4.416005
     69          1           0        0.848719    2.636542   -2.902450
     70          1           0       -7.179759   -3.591675   -0.968205
     71          1           0       -7.716297   -3.314161   -2.597628
     72          1           0        3.288776    3.804624    3.924279
     73          1           0       -0.153725    4.341879   -2.763627
     74          1           0       -4.120882    4.631765   -0.654204
     75          1           0       -3.922084    3.491655    1.097243
     76          1           0       -3.216883    5.239510    0.509694
     77          1           0        8.543295   -2.262852   -0.665225
     78          1           0       -1.629797    6.137430   -3.513586
     79          1           0       -2.977401    5.809569   -2.138441
 ---------------------------------------------------------------------

 SCF Done:  E(RB3LYP) =  -1947.79283739     A.U. after   21 cycles

 Excitation energies and oscillator strengths:

 Excited State   1:      Singlet-A      0.8770 eV 1413.76 nm  f=0.0024  <S**2>=0.000
     155 ->156         0.70313
 This state for optimization and/or second-order correction.
 Total Energy, E(TD-HF/TD-DFT) =  -1947.76060900
 Copying the excited state density for this state as the 1-particle RhoCI density.

 The electronic state is 1-A.
 Alpha  occ. eigenvalues --  -19.19329 -19.18143 -19.14868 -19.13053 -19.12436
 Alpha  occ. eigenvalues --  -19.06474 -14.37151 -14.36252 -14.33160 -14.32240
 Alpha  occ. eigenvalues --  -10.33338 -10.31253 -10.29134 -10.26011 -10.25755
 Alpha  occ. eigenvalues --  -10.25624 -10.25489 -10.23991 -10.23731 -10.23677
 Alpha  occ. eigenvalues --  -10.23158 -10.23140 -10.22873 -10.22520 -10.22178
 Alpha  occ. eigenvalues --  -10.21805 -10.21637 -10.21581 -10.21258 -10.21246
 Alpha  occ. eigenvalues --  -10.20843 -10.20766 -10.20366 -10.20151 -10.20088
 Alpha  occ. eigenvalues --  -10.19967 -10.19791 -10.19249 -10.18572 -10.17510
 Alpha  occ. eigenvalues --  -10.17378 -10.17262 -10.16628  -1.09924  -1.09532
 Alpha  occ. eigenvalues --   -1.02399  -1.01326  -1.00132  -0.99514  -0.98065
 Alpha  occ. eigenvalues --   -0.94862  -0.92197  -0.91510  -0.83593  -0.82698
 Alpha  occ. eigenvalues --   -0.81904  -0.81290  -0.79192  -0.78682  -0.77897
 Alpha  occ. eigenvalues --   -0.76640  -0.75734  -0.74786  -0.74322  -0.73450
 Alpha  occ. eigenvalues --   -0.71235  -0.71120  -0.70285  -0.69052  -0.67058
 Alpha  occ. eigenvalues --   -0.65940  -0.64796  -0.63629  -0.61255  -0.60468
 Alpha  occ. eigenvalues --   -0.59015  -0.58795  -0.57601  -0.57091  -0.56485
 Alpha  occ. eigenvalues --   -0.55829  -0.55614  -0.54353  -0.53789  -0.52480
 Alpha  occ. eigenvalues --   -0.51619  -0.51491  -0.50657  -0.50395  -0.49882
 Alpha  occ. eigenvalues --   -0.48967  -0.48676  -0.48660  -0.48290  -0.47908
 Alpha  occ. eigenvalues --   -0.47652  -0.46993  -0.46521  -0.46242  -0.45890
 Alpha  occ. eigenvalues --   -0.45532  -0.45290  -0.44607  -0.43729  -0.43700
 Alpha  occ. eigenvalues --   -0.43509  -0.43245  -0.42794  -0.42269  -0.42266
 Alpha  occ. eigenvalues --   -0.41891  -0.41784  -0.41551  -0.40833  -0.40641
 Alpha  occ. eigenvalues --   -0.40259  -0.40149  -0.39852  -0.39723  -0.38953
 Alpha  occ. eigenvalues --   -0.38870  -0.38564  -0.38409  -0.38245  -0.37588
 Alpha  occ. eigenvalues --   -0.37405  -0.36977  -0.36795  -0.36422  -0.36259
 Alpha  occ. eigenvalues --   -0.35863  -0.35501  -0.35319  -0.34935  -0.34646
 Alpha  occ. eigenvalues --   -0.32979  -0.32953  -0.32751  -0.32222  -0.31757
 Alpha  occ. eigenvalues --   -0.31464  -0.31064  -0.29946  -0.29493  -0.29400
 Alpha  occ. eigenvalues --   -0.27598  -0.27196  -0.26507  -0.24952  -0.23923
 Alpha  occ. eigenvalues --   -0.23097  -0.22425  -0.22280  -0.21894  -0.19012
 Alpha virt. eigenvalues --   -0.13249  -0.08399  -0.04821  -0.02319  -0.01884
 Alpha virt. eigenvalues --    0.00808   0.01199   0.01489   0.01939   0.02164
 Alpha virt. eigenvalues --    0.02978   0.03293   0.03737   0.04451   0.04553

 Mulliken charges:
               1
     1  O   -0.308988
     2  O   -0.193020
     3  O   -0.209980
     4  O   -0.305142
     5  O   -0.170361
     6  O   -0.241495
     7  N   -0.147219
     8  N   -0.099352
     9  N   -0.228870
    10  N   -0.401272
    11  C    0.099925
    12  C    0.134582
    13  C   -0.086897
    14  C   -0.176320
    15  C   -0.059090
    16  C    0.007498
    17  C   -0.160232
    18  C    0.031704
    19  C   -0.032199
    20  C   -0.079924
    21  C    0.137752
    22  C    0.084792
    23  C   -0.066118
    24  C    0.116765
    25  C    0.074042
    26  C   -0.077486
    27  C   -0.029901
    28  C    0.111954
    29  C    0.041285
    30  C   -0.010624
    31  C   -0.042552
    32  C    0.108546
    33  C   -0.111434
    34  C    0.109011
    35  C    0.131488
    36  C    0.025921
    37  C    0.164950
    38  C    0.058573
    39  C   -0.220811
    40  C    0.231175
    41  C   -0.019840
    42  C    0.052365
    43  C   -0.025771
    44  H    0.062317
    45  H    0.019620
    46  H   -0.021159
    47  H    0.149145
    48  H    0.108718
    49  H    0.047923
    50  H   -0.022707
    51  H    0.005845
    52  H   -0.003194
    53  H    0.024827
    54  H    0.056089
    55  H    0.022150
    56  H    0.042300
    57  H    0.007402
    58  H    0.025830
    59  H    0.070282
    60  H    0.269755
    61  H    0.058416
    62  H    0.031731
    63  H    0.026101
    64  H    0.051400
    65  H    0.076474
    66  H   -0.001425
    67  H    0.035438
    68  H   -0.014978
    69  H    0.005855
    70  H   -0.060406
    71  H    0.030788
    72  H    0.205307
    73  H    0.032125
    74  H    0.029048
    75  H    0.087436
    76  H    0.020073
    77  H    0.239397
    78  H    0.050911
    79  H    0.013740
 Sum of Mulliken charges =  -0.00000

 Dipole moment (field-independent basis, Debye):
    X=              3.6135    Y=              3.6665    Z=             -0.2612  Tot=              5.1545
 Quadrupole moment (field-independent basis, Debye-Ang):
   XX=           -232.0816   YY=           -232.3818   ZZ=           -272.9513
   XY=              0.9014   XZ=            -18.2777   YZ=            -15.8783

 Normal termination of Gaussian 16 at Sat Jul 27 07:12:10 2019.
