 Gaussian 16, Revision A.03,
 Gaussian 16:  ES64L-G16RevA.03 25-Dec-2016

 --------------------------
 # td=(NStates=1) B3LYP/SVP
 --------------------------

 --
 TD
 --
 Symbolic Z-matrix:
 Charge =  0 Multiplicity = 1

                         Standard orientation:
 ---------------------------------------------------------------------
 Center     Atomic      Atomic             Coordinates (Angstroms)
 Number     Number       Type             X           Y           Z
 ---------------------------------------------------------------------
      1          8           0        5.348415   -0.189632   -3.244303
      2          8           0       -2.984893   -3.064148    3.015245
      3          8           0       -3.349170   -0.824670    3.022765
      4          8           0       -2.001985    7.172863    1.319994
      5          8           0       -0.361074    6.957630   -0.368129
      6          8           0       -1.545410   -3.965867   -0.135771
      7          7           0        2.344953    1.041480    0.536563
      8          7           0        4.463496   -0.703721   -1.187580
      9          7           0       -1.880483    0.734917   -0.423450
     10          7           0       -2.435566   -1.996854   -0.577849
     11          6           0        4.783438   -1.107225    0.039491
     12          6           0        4.418148   -0.260767    1.292818
     13          6           0        2.875411    0.037283    1.306522
     14          6           0        1.914750   -0.481605    2.079650
     15          6           0        0.721334    0.172549    1.867846
     16          6           0        0.963376    1.097040    0.864850
     17          6           0        6.330582   -1.241733   -0.088121
     18          6           0       -0.617145   -0.143941    2.520293
     19          6           0        6.770339   -0.886632   -1.330339
     20          6           0        0.172470    2.124127    0.148668
     21          6           0       -1.167210    1.919349   -0.294169
     22          6           0        5.446659   -0.564189   -2.111576
     23          6           0       -2.078666    2.868388   -0.969763
     24          6           0        2.125492   -1.548117    3.092449
     25          6           0        7.098862   -1.887273    1.031917
     26          6           0       -3.234826    2.234519   -1.411995
     27          6           0       -1.143078   -1.547476    2.599695
     28          6           0       -3.077666    0.849734   -1.074400
     29          6           0       -1.777503    4.416901   -0.994820
     30          6           0        8.031996   -0.889365   -1.917083
     31          6           0       -1.909319    5.126713    0.302075
     32          6           0       -4.436543    2.923462   -2.017854
     33          6           0       -3.990902   -0.213835   -1.254253
     34          6           0       -2.589876   -1.674570    2.892857
     35          6           0       -3.623318   -1.587176   -1.057063
     36          6           0        9.235475   -0.579863   -1.394574
     37          6           0       -1.337595    6.473072    0.357471
     38          6           0       -4.465327   -2.676644   -1.432419
     39          6           0       -3.746110   -3.790151   -1.073653
     40          6           0       -2.451414   -3.367856   -0.563180
     41          6           0       -5.804518   -2.523482   -1.913404
     42          6           0       -4.193293   -5.286712   -1.089012
     43          6           0       -6.759014   -3.598923   -2.117801
     44          1           0        4.329061   -2.123434    0.334167
     45          1           0        5.094045    0.569642    1.096882
     46          1           0        4.806265   -0.385948    2.265503
     47          1           0        2.626482    1.439543   -0.289665
     48          1           0        3.479469   -0.431664   -1.537070
     49          1           0       -0.462791    0.293021    3.668441
     50          1           0       -1.353838    0.396012    1.987020
     51          1           0        0.822231    2.971305   -0.134129
     52          1           0        3.233632   -1.509096    3.348294
     53          1           0        1.702402   -1.405186    4.200064
     54          1           0        1.820135   -2.469002    2.791815
     55          1           0        6.408499   -2.778894    1.339099
     56          1           0        7.137487   -1.290543    1.831767
     57          1           0        8.084181   -2.160680    0.577897
     58          1           0       -1.191362   -2.159887    1.551941
     59          1           0       -0.539720   -2.166208    3.226600
     60          1           0       -1.624504   -0.219092   -0.361699
     61          1           0       -2.418366    4.818092   -1.763639
     62          1           0       -0.772659    4.428806   -1.376485
     63          1           0        8.009958   -0.744739   -3.089542
     64          1           0       -1.557666    4.525139    1.036378
     65          1           0       -2.861360    5.283818    0.573823
     66          1           0       -3.990336    3.923677   -2.400987
     67          1           0       -5.370063    3.025355   -1.409155
     68          1           0       -4.546272    2.565601   -3.062580
     69          1           0       -4.885788   -0.146712   -1.953375
     70          1           0        9.460008   -0.417907   -0.432062
     71          1           0       10.236773   -0.770887   -1.984825
     72          1           0       -4.091586   -2.973616    3.130588
     73          1           0       -6.077295   -1.524085   -1.907365
     74          1           0       -5.120485   -5.495727   -0.366354
     75          1           0       -4.379122   -5.693581   -2.119500
     76          1           0       -3.482258   -5.883085   -0.580089
     77          1           0       -1.611362    8.068269    1.329887
     78          1           0       -7.845862   -3.536522   -2.466892
     79          1           0       -6.271862   -4.555564   -2.113701
 ---------------------------------------------------------------------

 SCF Done:  E(RB3LYP) =  -1947.84809419     A.U. after   19 cycles

 Excitation energies and oscillator strengths:

 Excited State   1:      Singlet-A      1.9690 eV  629.67 nm  f=0.3731  <S**2>=0.000
     154 ->156         0.20666
     155 ->156         0.67253
     155 <-156        -0.11290
 This state for optimization and/or second-order correction.
 Total Energy, E(TD-HF/TD-DFT) =  -1947.77573381
 Copying the excited state density for this state as the 1-particle RhoCI density.

 The electronic state is 1-A.
 Alpha  occ. eigenvalues --  -19.20389 -19.15375 -19.13559 -19.12316 -19.10651
 Alpha  occ. eigenvalues --  -19.10255 -14.38156 -14.36877 -14.36446 -14.28163
 Alpha  occ. eigenvalues --  -10.33757 -10.30116 -10.28926 -10.25977 -10.25447
 Alpha  occ. eigenvalues --  -10.25225 -10.24994 -10.23806 -10.23452 -10.23283
 Alpha  occ. eigenvalues --  -10.23047 -10.22073 -10.21767 -10.21682 -10.21474
 Alpha  occ. eigenvalues --  -10.21290 -10.21238 -10.20986 -10.20834 -10.20500
 Alpha  occ. eigenvalues --  -10.20375 -10.20266 -10.20121 -10.19958 -10.19839
 Alpha  occ. eigenvalues --  -10.19800 -10.19794 -10.19711 -10.19663 -10.19595
 Alpha  occ. eigenvalues --  -10.19367 -10.19241 -10.18399  -1.09656  -1.08385
 Alpha  occ. eigenvalues --   -1.04443  -1.04222  -0.99299  -0.98930  -0.97669
 Alpha  occ. eigenvalues --   -0.96918  -0.96674  -0.93030  -0.83592  -0.82820
 Alpha  occ. eigenvalues --   -0.82358  -0.81443  -0.80304  -0.79928  -0.79364
 Alpha  occ. eigenvalues --   -0.77756  -0.76708  -0.75586  -0.73973  -0.72641
 Alpha  occ. eigenvalues --   -0.71818  -0.71302  -0.70056  -0.69843  -0.69200
 Alpha  occ. eigenvalues --   -0.67074  -0.66957  -0.64341  -0.62540  -0.61598
 Alpha  occ. eigenvalues --   -0.61496  -0.59830  -0.58693  -0.57288  -0.56926
 Alpha  occ. eigenvalues --   -0.56691  -0.55907  -0.54665  -0.53989  -0.53669
 Alpha  occ. eigenvalues --   -0.52533  -0.52010  -0.51549  -0.51184  -0.50908
 Alpha  occ. eigenvalues --   -0.49991  -0.49344  -0.48812  -0.48325  -0.47412
 Alpha  occ. eigenvalues --   -0.47152  -0.46927  -0.46673  -0.46412  -0.46197
 Alpha  occ. eigenvalues --   -0.45923  -0.45290  -0.44770  -0.44660  -0.44360
 Alpha  occ. eigenvalues --   -0.44135  -0.43697  -0.43191  -0.43106  -0.42565
 Alpha  occ. eigenvalues --   -0.42168  -0.41982  -0.41957  -0.41748  -0.41422
 Alpha  occ. eigenvalues --   -0.41226  -0.40931  -0.40858  -0.40618  -0.40418
 Alpha  occ. eigenvalues --   -0.40000  -0.39812  -0.39228  -0.38947  -0.38571
 Alpha  occ. eigenvalues --   -0.38297  -0.37590  -0.37118  -0.37075  -0.36714
 Alpha  occ. eigenvalues --   -0.36589  -0.35690  -0.35359  -0.35244  -0.34731
 Alpha  occ. eigenvalues --   -0.34361  -0.33531  -0.33130  -0.32164  -0.32110
 Alpha  occ. eigenvalues --   -0.31106  -0.30306  -0.28630  -0.28480  -0.27472
 Alpha  occ. eigenvalues --   -0.27102  -0.26611  -0.26496  -0.26177  -0.25960
 Alpha  occ. eigenvalues --   -0.24520  -0.24175  -0.23578  -0.22067  -0.19629
 Alpha virt. eigenvalues --   -0.11822  -0.07609  -0.05868  -0.02911  -0.02010
 Alpha virt. eigenvalues --    0.00638   0.00976   0.02910   0.02999   0.03456
 Alpha virt. eigenvalues --    0.03801   0.03930   0.04565   0.04943   0.05324

 Mulliken charges:
               1
     1  O   -0.191871
     2  O   -0.335286
     3  O   -0.153274
     4  O   -0.178629
     5  O   -0.307610
     6  O   -0.131000
     7  N   -0.061510
     8  N   -0.124366
     9  N   -0.056294
    10  N   -0.274437
    11  C    0.060555
    12  C    0.167276
    13  C   -0.062994
    14  C   -0.124027
    15  C   -0.068315
    16  C   -0.013906
    17  C   -0.233662
    18  C    0.124360
    19  C   -0.005176
    20  C   -0.071413
    21  C    0.133181
    22  C    0.118151
    23  C   -0.162598
    24  C    0.085386
    25  C    0.143975
    26  C   -0.124054
    27  C   -0.038761
    28  C    0.073408
    29  C    0.142676
    30  C   -0.063388
    31  C    0.175613
    32  C    0.106482
    33  C   -0.099968
    34  C    0.132614
    35  C    0.030965
    36  C   -0.040372
    37  C    0.148262
    38  C    0.057325
    39  C   -0.217881
    40  C    0.110184
    41  C   -0.020333
    42  C    0.064531
    43  C   -0.018166
    44  H    0.018186
    45  H   -0.027086
    46  H    0.001374
    47  H    0.088513
    48  H    0.143233
    49  H    0.029679
    50  H   -0.011201
    51  H    0.023517
    52  H   -0.002363
    53  H    0.027190
    54  H    0.023139
    55  H    0.033230
    56  H   -0.006567
    57  H    0.041114
    58  H    0.106098
    59  H    0.013863
    60  H    0.112582
    61  H   -0.010860
    62  H    0.012684
    63  H    0.045352
    64  H    0.008161
    65  H   -0.015399
    66  H   -0.000272
    67  H    0.065640
    68  H    0.018193
    69  H    0.012840
    70  H   -0.020109
    71  H    0.042356
    72  H    0.220983
    73  H   -0.037976
    74  H    0.037710
    75  H    0.050030
    76  H    0.004305
    77  H    0.190176
    78  H    0.053237
    79  H    0.012794
 Sum of Mulliken charges =  -0.00000

 Dipole moment (field-independent basis, Debye):
    X=             -1.2353    Y=              2.9201    Z=              2.6329  Tot=              4.1213
 Quadrupole moment (field-independent basis, Debye-Ang):
   XX=           -222.8595   YY=           -249.5444   ZZ=           -261.7392
   XY=            -10.7116   XZ=             34.2295   YZ=              5.8156

 Normal termination of Gaussian 16 at Mon Sep 16 09:47:32 2019.
