 Gaussian 16, Revision A.03,
 Gaussian 16:  ES64L-G16RevA.03 25-Dec-2016

 --------------------------
 # td=(NStates=1) B3LYP/SVP
 --------------------------

 --
 TD
 --
 Symbolic Z-matrix:
 Charge =  0 Multiplicity = 1

                         Standard orientation:
 ---------------------------------------------------------------------
 Center     Atomic      Atomic             Coordinates (Angstroms)
 Number     Number       Type             X           Y           Z
 ---------------------------------------------------------------------
      1          8           0       -3.277976   -1.497617   -2.805027
      2          8           0        3.015571    3.304981    2.991692
      3          8           0        3.688608    1.517332    4.260511
      4          8           0        7.600261   -1.694496   -0.567382
      5          8           0        6.577055   -3.248489   -1.684387
      6          8           0       -2.485539    1.813332    1.549738
      7          7           0       -0.245927   -2.342001    0.914628
      8          7           0       -2.770428   -1.133702   -0.571956
      9          7           0        1.166057    0.077757   -0.760067
     10          7           0       -1.048191    1.395286   -0.299357
     11          6           0       -3.334107   -1.275888    0.692774
     12          6           0       -2.643348   -2.227747    1.661741
     13          6           0       -1.233751   -1.945935    1.825672
     14          6           0       -0.556343   -1.095069    2.803358
     15          6           0        0.787010   -0.964642    2.473724
     16          6           0        0.886824   -1.729568    1.257852
     17          6           0       -4.730873   -1.778177    0.343485
     18          6           0        1.906210   -0.259140    3.085263
     19          6           0       -4.846770   -2.014609   -0.950168
     20          6           0        2.027934   -1.915141    0.358321
     21          6           0        2.073819   -0.949036   -0.684607
     22          6           0       -3.618867   -1.561741   -1.624316
     23          6           0        3.012674   -0.796392   -1.801012
     24          6           0       -1.309909   -0.375197    3.876400
     25          6           0       -5.791537   -2.078524    1.364047
     26          6           0        2.538585    0.384107   -2.468792
     27          6           0        2.013845    1.189162    2.704743
     28          6           0        1.467127    0.883709   -1.845836
     29          6           0        4.222558   -1.644381   -2.068178
     30          6           0       -5.835694   -2.586194   -1.816332
     31          6           0        5.408502   -1.197953   -1.181789
     32          6           0        3.107329    1.052883   -3.701004
     33          6           0        0.511228    1.909914   -2.109664
     34          6           0        2.978008    2.032997    3.510625
     35          6           0       -0.627913    2.123515   -1.411029
     36          6           0       -6.919967   -3.431262   -1.458339
     37          6           0        6.566089   -2.181670   -1.221885
     38          6           0       -1.406112    3.458460   -1.333348
     39          6           0       -2.217410    3.451305   -0.359345
     40          6           0       -2.006093    2.175954    0.435024
     41          6           0       -1.083069    4.559220   -2.279536
     42          6           0       -3.219815    4.441557    0.197865
     43          6           0       -1.829629    5.650700   -2.600073
     44          1           0       -3.555347   -0.319299    1.285796
     45          1           0       -2.781790   -3.343145    1.366882
     46          1           0       -3.321412   -2.231258    2.553297
     47          1           0       -0.440251   -2.987685    0.068593
     48          1           0       -2.003057   -0.450264   -0.700771
     49          1           0        1.831699   -0.193138    4.199613
     50          1           0        2.874095   -0.719086    2.934576
     51          1           0        2.836579   -2.733290    0.160925
     52          1           0       -2.309711   -1.012941    4.227818
     53          1           0       -0.675360    0.077735    4.657076
     54          1           0       -1.877142    0.415386    3.392519
     55          1           0       -5.820696   -1.519046    2.322752
     56          1           0       -5.798338   -3.015244    1.686509
     57          1           0       -6.753301   -1.923597    0.886922
     58          1           0        2.208140    1.131966    1.562688
     59          1           0        1.013601    1.655464    2.676936
     60          1           0        0.377735    0.348053   -0.106817
     61          1           0        4.697761   -1.857281   -3.015851
     62          1           0        4.025836   -2.659021   -1.765658
     63          1           0       -5.507537   -2.445261   -2.925990
     64          1           0        5.026759   -1.248269   -0.068816
     65          1           0        5.730713   -0.159686   -1.508838
     66          1           0        3.821386    0.411944   -4.159488
     67          1           0        3.245842    2.124440   -3.860473
     68          1           0        2.080322    1.080046   -4.366052
     69          1           0        0.460365    2.435781   -3.090560
     70          1           0       -7.109229   -3.790263   -0.493011
     71          1           0       -7.535942   -3.850143   -2.265404
     72          1           0        3.679000    3.709093    3.750655
     73          1           0       -0.217684    4.131771   -3.107432
     74          1           0       -4.257402    4.404891   -0.501538
     75          1           0       -3.716970    4.079876    1.206011
     76          1           0       -2.753276    5.349398    0.353867
     77          1           0        8.204379   -2.401266   -0.844165
     78          1           0       -1.419400    6.278175   -3.438918
     79          1           0       -2.694006    5.852131   -2.071416
 ---------------------------------------------------------------------

 SCF Done:  E(RB3LYP) =  -1947.85669191     A.U. after   21 cycles

 Excitation energies and oscillator strengths:

 Excited State   1:      Singlet-A      0.7930 eV 1563.45 nm  f=0.0034  <S**2>=0.000
     155 ->156         0.70475
 This state for optimization and/or second-order correction.
 Total Energy, E(TD-HF/TD-DFT) =  -1947.82754907
 Copying the excited state density for this state as the 1-particle RhoCI density.

 The electronic state is 1-A.
 Alpha  occ. eigenvalues --  -19.19554 -19.18957 -19.14647 -19.13758 -19.11976
 Alpha  occ. eigenvalues --  -19.08517 -14.38338 -14.36856 -14.31693 -14.30783
 Alpha  occ. eigenvalues --  -10.33057 -10.31576 -10.28279 -10.26526 -10.25924
 Alpha  occ. eigenvalues --  -10.25834 -10.24631 -10.24276 -10.24212 -10.23209
 Alpha  occ. eigenvalues --  -10.22754 -10.22190 -10.22164 -10.22157 -10.21601
 Alpha  occ. eigenvalues --  -10.21582 -10.20817 -10.20692 -10.20608 -10.20307
 Alpha  occ. eigenvalues --  -10.20301 -10.19914 -10.19899 -10.19894 -10.19681
 Alpha  occ. eigenvalues --  -10.19036 -10.18768 -10.18298 -10.18149 -10.17787
 Alpha  occ. eigenvalues --  -10.17706 -10.17669 -10.17499  -1.14567  -1.10487
 Alpha  occ. eigenvalues --   -1.04273  -1.02094  -1.00263  -1.00023  -0.99853
 Alpha  occ. eigenvalues --   -0.97283  -0.92199  -0.91612  -0.83875  -0.82950
 Alpha  occ. eigenvalues --   -0.81076  -0.80936  -0.80633  -0.79294  -0.78605
 Alpha  occ. eigenvalues --   -0.76596  -0.75850  -0.74996  -0.74002  -0.73070
 Alpha  occ. eigenvalues --   -0.70456  -0.70168  -0.69949  -0.69437  -0.67651
 Alpha  occ. eigenvalues --   -0.66036  -0.65786  -0.62894  -0.61042  -0.60194
 Alpha  occ. eigenvalues --   -0.59989  -0.58374  -0.57777  -0.57451  -0.57038
 Alpha  occ. eigenvalues --   -0.56185  -0.55196  -0.54851  -0.53365  -0.52532
 Alpha  occ. eigenvalues --   -0.52185  -0.51643  -0.51305  -0.50788  -0.50616
 Alpha  occ. eigenvalues --   -0.50130  -0.49470  -0.49222  -0.49060  -0.48511
 Alpha  occ. eigenvalues --   -0.48012  -0.47437  -0.46360  -0.45888  -0.45731
 Alpha  occ. eigenvalues --   -0.45419  -0.45261  -0.45054  -0.44504  -0.44496
 Alpha  occ. eigenvalues --   -0.43793  -0.43298  -0.43238  -0.43077  -0.42686
 Alpha  occ. eigenvalues --   -0.42060  -0.41780  -0.41298  -0.40899  -0.40726
 Alpha  occ. eigenvalues --   -0.40405  -0.40351  -0.39973  -0.39781  -0.39692
 Alpha  occ. eigenvalues --   -0.39406  -0.39330  -0.38412  -0.38119  -0.37893
 Alpha  occ. eigenvalues --   -0.37663  -0.37262  -0.36837  -0.36673  -0.36526
 Alpha  occ. eigenvalues --   -0.36314  -0.35962  -0.35318  -0.34815  -0.34724
 Alpha  occ. eigenvalues --   -0.34437  -0.33851  -0.33522  -0.32093  -0.31749
 Alpha  occ. eigenvalues --   -0.31437  -0.30680  -0.30047  -0.28965  -0.28620
 Alpha  occ. eigenvalues --   -0.28072  -0.26506  -0.25308  -0.24506  -0.24175
 Alpha  occ. eigenvalues --   -0.23796  -0.23237  -0.22237  -0.21799  -0.18762
 Alpha virt. eigenvalues --   -0.13145  -0.07384  -0.04533  -0.02020  -0.00283
 Alpha virt. eigenvalues --    0.00454   0.00968   0.02019   0.02346   0.02625
 Alpha virt. eigenvalues --    0.03239   0.03666   0.04386   0.04589   0.05227

 Mulliken charges:
               1
     1  O   -0.244790
     2  O   -0.241894
     3  O   -0.161199
     4  O   -0.139676
     5  O   -0.186889
     6  O   -0.246355
     7  N   -0.059224
     8  N   -0.210839
     9  N   -0.115312
    10  N   -0.385744
    11  C    0.100328
    12  C    0.128829
    13  C   -0.040829
    14  C   -0.122636
    15  C   -0.044721
    16  C   -0.026763
    17  C   -0.210881
    18  C    0.139305
    19  C   -0.038304
    20  C   -0.082165
    21  C    0.033608
    22  C    0.154880
    23  C   -0.023927
    24  C    0.075086
    25  C    0.131571
    26  C   -0.128268
    27  C   -0.087518
    28  C    0.163594
    29  C    0.102920
    30  C   -0.044378
    31  C   -0.075316
    32  C    0.080255
    33  C   -0.106046
    34  C    0.162027
    35  C    0.114708
    36  C   -0.030027
    37  C    0.097644
    38  C    0.032492
    39  C   -0.190243
    40  C    0.210054
    41  C   -0.072163
    42  C    0.042600
    43  C    0.010801
    44  H    0.045183
    45  H   -0.017229
    46  H   -0.011343
    47  H    0.157502
    48  H    0.140059
    49  H   -0.003590
    50  H   -0.011712
    51  H    0.022766
    52  H    0.003275
    53  H    0.009892
    54  H    0.029804
    55  H    0.010558
    56  H   -0.010627
    57  H    0.021746
    58  H    0.035618
    59  H    0.035301
    60  H    0.205087
    61  H    0.015676
    62  H    0.001267
    63  H    0.039273
    64  H    0.066735
    65  H    0.056606
    66  H    0.016684
    67  H    0.038126
    68  H    0.033425
    69  H    0.009202
    70  H    0.004849
    71  H    0.027273
    72  H    0.207063
    73  H    0.022289
    74  H    0.054069
    75  H    0.045566
    76  H    0.025649
    77  H    0.160804
    78  H    0.043554
    79  H    0.005001
 Sum of Mulliken charges =  -0.00000

 Dipole moment (field-independent basis, Debye):
    X=              4.1449    Y=              1.7955    Z=             -1.1977  Tot=              4.6732
 Quadrupole moment (field-independent basis, Debye-Ang):
   XX=           -234.5268   YY=           -238.9433   ZZ=           -261.5175
   XY=              3.3154   XZ=            -23.9937   YZ=             -9.7535

 Normal termination of Gaussian 16 at Fri Jul 26 20:37:33 2019.
