 Gaussian 16, Revision A.03,
 Gaussian 16:  ES64L-G16RevA.03 25-Dec-2016

 --------------------------
 # td=(NStates=1) B3LYP/SVP
 --------------------------

 --
 TD
 --
 Symbolic Z-matrix:
 Charge =  0 Multiplicity = 1

                         Standard orientation:
 ---------------------------------------------------------------------
 Center     Atomic      Atomic             Coordinates (Angstroms)
 Number     Number       Type             X           Y           Z
 ---------------------------------------------------------------------
      1          8           0        5.454906   -0.154683   -3.304795
      2          8           0       -3.382823   -2.714434    3.025329
      3          8           0       -3.581988   -0.596729    2.694224
      4          8           0       -0.960169    7.262332    1.540381
      5          8           0        0.136845    6.929381   -0.505674
      6          8           0       -1.877225   -3.928887    0.106413
      7          7           0        2.317758    0.687151    0.602640
      8          7           0        4.326427   -0.691998   -1.303973
      9          7           0       -1.760464    0.860261   -0.336122
     10          7           0       -2.654231   -1.760766   -0.520080
     11          6           0        4.679322   -1.454557   -0.018121
     12          6           0        4.161298   -0.690514    1.263903
     13          6           0        2.865552   -0.292959    1.386705
     14          6           0        1.750320   -0.835821    2.140623
     15          6           0        0.565086    0.022846    1.757361
     16          6           0        0.900078    0.918813    0.877438
     17          6           0        6.157275   -1.618657   -0.226795
     18          6           0       -0.613143   -0.184013    2.622644
     19          6           0        6.579411   -1.077200   -1.330934
     20          6           0        0.251174    1.987497    0.292209
     21          6           0       -1.101037    1.933193   -0.269263
     22          6           0        5.415211   -0.518985   -2.173171
     23          6           0       -1.848671    2.967963   -0.828121
     24          6           0        1.915529   -1.883246    3.195739
     25          6           0        6.887683   -2.323622    0.983653
     26          6           0       -3.078999    2.452322   -1.228472
     27          6           0       -1.336474   -1.613560    2.480404
     28          6           0       -2.911381    1.067258   -1.041664
     29          6           0       -1.298604    4.410758   -0.963079
     30          6           0        7.974039   -0.955160   -1.895893
     31          6           0       -1.347143    5.133053    0.431745
     32          6           0       -4.226657    3.096853   -1.902196
     33          6           0       -3.818269    0.041307   -1.417202
     34          6           0       -2.839340   -1.514376    2.676435
     35          6           0       -3.651295   -1.365200   -1.207163
     36          6           0        9.189922   -0.991996   -1.294810
     37          6           0       -0.584071    6.575791    0.360810
     38          6           0       -4.656665   -2.465707   -1.466515
     39          6           0       -3.889412   -3.566834   -1.082530
     40          6           0       -2.736137   -3.263432   -0.353537
     41          6           0       -5.945328   -2.237072   -2.086800
     42          6           0       -4.408945   -4.997443   -1.122046
     43          6           0       -6.900500   -3.151289   -2.490946
     44          1           0        4.021965   -2.430637   -0.027994
     45          1           0        4.784087    0.278866    1.374931
     46          1           0        4.664444   -1.134912    2.056728
     47          1           0        2.769169    1.623305   -0.031694
     48          1           0        3.277217   -0.418355   -1.583554
     49          1           0       -0.273601   -0.029937    3.841886
     50          1           0       -1.323246    0.560461    2.276565
     51          1           0        0.865369    2.856064   -0.022985
     52          1           0        2.842161   -1.821954    3.759377
     53          1           0        1.154386   -1.837157    4.123464
     54          1           0        1.632564   -2.892416    2.911847
     55          1           0        6.307023   -3.339071    1.282732
     56          1           0        6.984935   -1.593979    1.864177
     57          1           0        7.720164   -2.911912    0.463379
     58          1           0       -1.109401   -1.938765    1.407014
     59          1           0       -0.820600   -2.387736    3.289718
     60          1           0       -1.351580   -0.074565   -0.165398
     61          1           0       -1.986168    4.911368   -1.732198
     62          1           0       -0.320863    4.314303   -1.548562
     63          1           0        7.946796   -0.580335   -2.968575
     64          1           0       -1.127568    4.541167    1.419319
     65          1           0       -2.357532    5.330612    0.779519
     66          1           0       -4.004614    4.202310   -1.970070
     67          1           0       -5.238822    3.107061   -1.203695
     68          1           0       -4.523911    2.562049   -2.827856
     69          1           0       -4.740224    0.248051   -2.087762
     70          1           0        9.122304   -1.368660   -0.253688
     71          1           0       10.073638   -0.853982   -1.943889
     72          1           0       -4.407173   -2.501931    3.171566
     73          1           0       -6.512170   -1.159189   -2.025065
     74          1           0       -5.304351   -4.916999   -0.569471
     75          1           0       -4.643742   -5.159592   -2.164109
     76          1           0       -3.690436   -5.751852   -0.780703
     77          1           0       -0.552917    8.103590    1.610861
     78          1           0       -7.746549   -2.874300   -3.132598
     79          1           0       -6.652520   -4.335420   -2.559949
 ---------------------------------------------------------------------

 SCF Done:  E(RB3LYP) =  -1947.79402284     A.U. after   18 cycles

 Excitation energies and oscillator strengths:

 Excited State   1:      Singlet-A      1.7185 eV  721.48 nm  f=0.4078  <S**2>=0.000
     155 ->156         0.69916
     155 ->157         0.12091
     155 <-156        -0.14706
 This state for optimization and/or second-order correction.
 Total Energy, E(TD-HF/TD-DFT) =  -1947.73087065
 Copying the excited state density for this state as the 1-particle RhoCI density.

 The electronic state is 1-A.
 Alpha  occ. eigenvalues --  -19.18162 -19.15604 -19.15209 -19.12156 -19.11052
 Alpha  occ. eigenvalues --  -19.10617 -14.38559 -14.36654 -14.35207 -14.28008
 Alpha  occ. eigenvalues --  -10.33785 -10.30109 -10.28674 -10.26731 -10.25924
 Alpha  occ. eigenvalues --  -10.24122 -10.23553 -10.23395 -10.23021 -10.22745
 Alpha  occ. eigenvalues --  -10.22545 -10.22406 -10.22239 -10.22194 -10.21768
 Alpha  occ. eigenvalues --  -10.21665 -10.21596 -10.21549 -10.21360 -10.21092
 Alpha  occ. eigenvalues --  -10.20694 -10.20688 -10.20657 -10.20329 -10.20194
 Alpha  occ. eigenvalues --  -10.20167 -10.20057 -10.19812 -10.19758 -10.19647
 Alpha  occ. eigenvalues --  -10.19601 -10.18819 -10.17974  -1.09514  -1.08241
 Alpha  occ. eigenvalues --   -1.04463  -1.03478  -1.02773  -1.02275  -0.97709
 Alpha  occ. eigenvalues --   -0.96435  -0.92497  -0.91947  -0.83232  -0.82319
 Alpha  occ. eigenvalues --   -0.80725  -0.80666  -0.79659  -0.79631  -0.76766
 Alpha  occ. eigenvalues --   -0.76629  -0.75367  -0.74478  -0.74337  -0.71880
 Alpha  occ. eigenvalues --   -0.71278  -0.70341  -0.69454  -0.68807  -0.67630
 Alpha  occ. eigenvalues --   -0.66700  -0.65204  -0.64214  -0.61476  -0.60673
 Alpha  occ. eigenvalues --   -0.59326  -0.58022  -0.57713  -0.57076  -0.56354
 Alpha  occ. eigenvalues --   -0.56339  -0.55444  -0.55363  -0.52519  -0.51914
 Alpha  occ. eigenvalues --   -0.51506  -0.50608  -0.50229  -0.49574  -0.48931
 Alpha  occ. eigenvalues --   -0.48607  -0.47929  -0.47254  -0.46965  -0.46874
 Alpha  occ. eigenvalues --   -0.46676  -0.46551  -0.46369  -0.46020  -0.45704
 Alpha  occ. eigenvalues --   -0.45547  -0.45018  -0.44729  -0.44531  -0.44047
 Alpha  occ. eigenvalues --   -0.43474  -0.43274  -0.43098  -0.42506  -0.42422
 Alpha  occ. eigenvalues --   -0.42169  -0.42050  -0.41731  -0.41512  -0.41192
 Alpha  occ. eigenvalues --   -0.40740  -0.40428  -0.40294  -0.39935  -0.39570
 Alpha  occ. eigenvalues --   -0.39459  -0.38840  -0.38773  -0.38452  -0.38261
 Alpha  occ. eigenvalues --   -0.37739  -0.37298  -0.36567  -0.36504  -0.36083
 Alpha  occ. eigenvalues --   -0.35914  -0.35208  -0.35145  -0.34542  -0.34431
 Alpha  occ. eigenvalues --   -0.33852  -0.33642  -0.33500  -0.31773  -0.31634
 Alpha  occ. eigenvalues --   -0.30933  -0.30230  -0.29905  -0.28992  -0.28664
 Alpha  occ. eigenvalues --   -0.26672  -0.26337  -0.25971  -0.25692  -0.25221
 Alpha  occ. eigenvalues --   -0.24576  -0.23295  -0.23033  -0.22142  -0.18115
 Alpha virt. eigenvalues --   -0.11569  -0.07838  -0.05114  -0.01383  -0.00730
 Alpha virt. eigenvalues --   -0.00611   0.01280   0.01833   0.02045   0.02896
 Alpha virt. eigenvalues --    0.03562   0.03790   0.04194   0.04817   0.05056

 Mulliken charges:
               1
     1  O   -0.182267
     2  O   -0.250905
     3  O   -0.205272
     4  O   -0.222451
     5  O   -0.165318
     6  O   -0.145819
     7  N   -0.222541
     8  N   -0.316789
     9  N    0.063716
    10  N   -0.314169
    11  C    0.101047
    12  C    0.173836
    13  C    0.004511
    14  C   -0.107414
    15  C   -0.110560
    16  C    0.124453
    17  C   -0.177074
    18  C    0.048254
    19  C   -0.059122
    20  C   -0.100578
    21  C   -0.031166
    22  C    0.187333
    23  C   -0.142827
    24  C    0.052704
    25  C    0.013222
    26  C   -0.099774
    27  C   -0.072482
    28  C    0.116497
    29  C    0.101355
    30  C   -0.053999
    31  C   -0.045564
    32  C    0.048284
    33  C   -0.121111
    34  C    0.147820
    35  C    0.017167
    36  C   -0.008230
    37  C    0.177059
    38  C    0.072403
    39  C   -0.224063
    40  C    0.169893
    41  C   -0.075290
    42  C    0.130034
    43  C   -0.093932
    44  H    0.048227
    45  H   -0.010240
    46  H   -0.043972
    47  H    0.183607
    48  H    0.158815
    49  H    0.045241
    50  H    0.003222
    51  H   -0.009903
    52  H    0.016872
    53  H    0.007815
    54  H    0.028628
    55  H    0.034997
    56  H    0.077184
    57  H    0.051610
    58  H    0.099187
    59  H    0.057228
    60  H    0.150518
    61  H    0.016664
    62  H    0.044975
    63  H    0.022770
    64  H    0.062422
    65  H    0.021621
    66  H    0.023258
    67  H    0.042402
    68  H    0.046091
    69  H   -0.006662
    70  H    0.016039
    71  H    0.039710
    72  H    0.204704
    73  H    0.051933
    74  H    0.025286
    75  H    0.016749
    76  H    0.027138
    77  H    0.161986
    78  H    0.037996
    79  H    0.045011
 Sum of Mulliken charges =  -0.00000

 Dipole moment (field-independent basis, Debye):
    X=             -0.9109    Y=              2.2662    Z=              2.6280  Tot=              3.5877
 Quadrupole moment (field-independent basis, Debye-Ang):
   XX=           -229.6149   YY=           -241.1695   ZZ=           -261.1177
   XY=             -9.3720   XZ=             36.1311   YZ=              5.0523

 Normal termination of Gaussian 16 at Thu Sep 12 19:50:44 2019.
