 Gaussian 16, Revision A.03,
 Gaussian 16:  ES64L-G16RevA.03 25-Dec-2016

 --------------------------
 # td=(NStates=1) B3LYP/SVP
 --------------------------

 --
 TD
 --
 Symbolic Z-matrix:
 Charge =  0 Multiplicity = 1

                         Standard orientation:
 ---------------------------------------------------------------------
 Center     Atomic      Atomic             Coordinates (Angstroms)
 Number     Number       Type             X           Y           Z
 ---------------------------------------------------------------------
      1          8           0       -3.179159   -1.357293   -2.849183
      2          8           0        2.922985    3.290696    3.001290
      3          8           0        3.490507    1.665000    4.351116
      4          8           0        7.737880   -1.599813   -0.673561
      5          8           0        6.750819   -2.944038   -2.131826
      6          8           0       -2.739846    1.620376    1.365027
      7          7           0       -0.157066   -2.441334    0.970312
      8          7           0       -2.615923   -1.218976   -0.571250
      9          7           0        1.166857    0.081713   -0.639991
     10          7           0       -0.985515    1.487520   -0.133736
     11          6           0       -3.390116   -1.442582    0.689972
     12          6           0       -2.509915   -2.464630    1.586534
     13          6           0       -1.164378   -2.082843    1.769335
     14          6           0       -0.603579   -1.233050    2.878094
     15          6           0        0.871938   -1.158786    2.647495
     16          6           0        1.027886   -1.868109    1.346195
     17          6           0       -4.724091   -1.931123    0.263142
     18          6           0        1.860512   -0.187575    3.265943
     19          6           0       -4.719928   -2.017042   -1.075148
     20          6           0        2.160978   -1.938134    0.392504
     21          6           0        2.173304   -0.822205   -0.569870
     22          6           0       -3.472572   -1.559448   -1.668869
     23          6           0        3.075782   -0.652070   -1.688375
     24          6           0       -1.184729   -0.462290    4.006815
     25          6           0       -5.791155   -2.256193    1.221689
     26          6           0        2.595859    0.464705   -2.431495
     27          6           0        1.828318    1.198131    2.797612
     28          6           0        1.397605    0.950207   -1.662035
     29          6           0        4.271082   -1.513377   -2.056309
     30          6           0       -5.744332   -2.560283   -2.026682
     31          6           0        5.377118   -1.104069   -1.143737
     32          6           0        3.162013    1.167594   -3.663512
     33          6           0        0.529319    2.041132   -1.957764
     34          6           0        2.781299    2.100691    3.488900
     35          6           0       -0.575945    2.313336   -1.156237
     36          6           0       -6.884508   -3.210213   -1.700425
     37          6           0        6.688011   -1.984345   -1.458365
     38          6           0       -1.502583    3.477990   -1.295043
     39          6           0       -2.410007    3.339957   -0.248259
     40          6           0       -2.080463    2.043040    0.438618
     41          6           0       -1.286833    4.440296   -2.365424
     42          6           0       -3.679989    4.106220    0.015051
     43          6           0       -2.061168    5.588229   -2.533846
     44          1           0       -3.318606   -0.382599    1.281945
     45          1           0       -2.636909   -3.468902    1.083882
     46          1           0       -3.040535   -2.696002    2.518688
     47          1           0       -0.189318   -2.972330    0.145816
     48          1           0       -2.027278   -0.456278   -0.693224
     49          1           0        1.799819   -0.190550    4.377741
     50          1           0        2.797640   -0.629011    3.192115
     51          1           0        2.889119   -2.731095    0.484628
     52          1           0       -2.079979   -1.030089    4.564275
     53          1           0       -0.533413   -0.006137    4.457765
     54          1           0       -1.752662    0.549595    3.637358
     55          1           0       -5.591833   -1.788079    2.228746
     56          1           0       -5.880781   -3.550772    1.391732
     57          1           0       -6.628391   -1.724146    0.829484
     58          1           0        1.947269    1.098298    1.653390
     59          1           0        0.875597    1.847942    2.847210
     60          1           0        0.397593    0.177767   -0.089498
     61          1           0        4.577090   -1.585037   -3.146598
     62          1           0        4.295457   -2.642962   -1.751505
     63          1           0       -5.410875   -2.494180   -3.078952
     64          1           0        5.105717   -1.378634   -0.108891
     65          1           0        5.784160   -0.184738   -1.532536
     66          1           0        4.067381    0.709349   -4.040067
     67          1           0        3.479234    2.130474   -3.264405
     68          1           0        2.411193    0.957485   -4.486040
     69          1           0        0.876760    2.632692   -2.805907
     70          1           0       -7.236468   -3.427497   -0.659358
     71          1           0       -7.483610   -3.453674   -2.578777
     72          1           0        3.502715    4.052723    3.517102
     73          1           0       -0.551771    4.130180   -3.055948
     74          1           0       -4.277808    4.298316   -0.900824
     75          1           0       -4.267771    3.504018    0.955762
     76          1           0       -3.440933    5.099984    0.452278
     77          1           0        8.644840   -1.937071   -0.964321
     78          1           0       -2.019067    6.283390   -3.260627
     79          1           0       -2.895927    5.796712   -1.721714
 ---------------------------------------------------------------------

 SCF Done:  E(RB3LYP) =  -1947.84405419     A.U. after   20 cycles

 Excitation energies and oscillator strengths:

 Excited State   1:      Singlet-A      0.7764 eV 1596.98 nm  f=0.0002  <S**2>=0.000
     155 ->156         0.70350
 This state for optimization and/or second-order correction.
 Total Energy, E(TD-HF/TD-DFT) =  -1947.81552316
 Copying the excited state density for this state as the 1-particle RhoCI density.

 The electronic state is 1-A.
 Alpha  occ. eigenvalues --  -19.18479 -19.18303 -19.14299 -19.11402 -19.10311
 Alpha  occ. eigenvalues --  -19.08227 -14.38085 -14.37421 -14.31339 -14.30007
 Alpha  occ. eigenvalues --  -10.32986 -10.30489 -10.27258 -10.27119 -10.26736
 Alpha  occ. eigenvalues --  -10.26118 -10.24990 -10.23739 -10.23724 -10.23680
 Alpha  occ. eigenvalues --  -10.22607 -10.22474 -10.22316 -10.22259 -10.21278
 Alpha  occ. eigenvalues --  -10.21238 -10.21137 -10.21064 -10.20785 -10.20735
 Alpha  occ. eigenvalues --  -10.20528 -10.20491 -10.20469 -10.20071 -10.19806
 Alpha  occ. eigenvalues --  -10.19162 -10.18753 -10.18464 -10.18254 -10.18089
 Alpha  occ. eigenvalues --  -10.17989 -10.17863 -10.17172  -1.10615  -1.09461
 Alpha  occ. eigenvalues --   -1.02977  -1.01845  -1.01227  -0.99439  -0.99429
 Alpha  occ. eigenvalues --   -0.97471  -0.92924  -0.90345  -0.84332  -0.81819
 Alpha  occ. eigenvalues --   -0.80603  -0.80411  -0.80156  -0.79455  -0.78182
 Alpha  occ. eigenvalues --   -0.76100  -0.75445  -0.74833  -0.74229  -0.73236
 Alpha  occ. eigenvalues --   -0.70474  -0.70141  -0.69520  -0.68773  -0.67439
 Alpha  occ. eigenvalues --   -0.67058  -0.65275  -0.62885  -0.61522  -0.61087
 Alpha  occ. eigenvalues --   -0.60256  -0.59731  -0.58445  -0.57951  -0.57159
 Alpha  occ. eigenvalues --   -0.55977  -0.55741  -0.54915  -0.53574  -0.53135
 Alpha  occ. eigenvalues --   -0.52466  -0.51306  -0.50780  -0.50426  -0.49947
 Alpha  occ. eigenvalues --   -0.48885  -0.48655  -0.48258  -0.47902  -0.47748
 Alpha  occ. eigenvalues --   -0.47533  -0.46911  -0.46359  -0.45681  -0.45529
 Alpha  occ. eigenvalues --   -0.44983  -0.44929  -0.44445  -0.44303  -0.43989
 Alpha  occ. eigenvalues --   -0.43836  -0.43693  -0.43253  -0.42885  -0.42319
 Alpha  occ. eigenvalues --   -0.41743  -0.41510  -0.41054  -0.40888  -0.40565
 Alpha  occ. eigenvalues --   -0.40326  -0.40234  -0.39977  -0.39741  -0.39573
 Alpha  occ. eigenvalues --   -0.38958  -0.38524  -0.38335  -0.38047  -0.37853
 Alpha  occ. eigenvalues --   -0.37711  -0.37042  -0.36913  -0.36349  -0.36084
 Alpha  occ. eigenvalues --   -0.35502  -0.35230  -0.34974  -0.34510  -0.34275
 Alpha  occ. eigenvalues --   -0.33568  -0.33136  -0.32146  -0.31479  -0.31236
 Alpha  occ. eigenvalues --   -0.30603  -0.29775  -0.29341  -0.28586  -0.28143
 Alpha  occ. eigenvalues --   -0.27290  -0.26380  -0.25389  -0.23914  -0.23304
 Alpha  occ. eigenvalues --   -0.22998  -0.22661  -0.22107  -0.21973  -0.18285
 Alpha virt. eigenvalues --   -0.12780  -0.07715  -0.04439  -0.02086  -0.00228
 Alpha virt. eigenvalues --    0.00642   0.01696   0.02014   0.02105   0.02530
 Alpha virt. eigenvalues --    0.03248   0.03719   0.03987   0.04380   0.04558

 Mulliken charges:
               1
     1  O   -0.251514
     2  O   -0.212624
     3  O   -0.228109
     4  O   -0.234393
     5  O   -0.173623
     6  O   -0.204959
     7  N    0.035662
     8  N   -0.231301
     9  N    0.024988
    10  N   -0.306576
    11  C   -0.022545
    12  C    0.168635
    13  C   -0.056592
    14  C   -0.152143
    15  C   -0.090685
    16  C   -0.092283
    17  C   -0.122333
    18  C    0.162729
    19  C   -0.063491
    20  C   -0.064841
    21  C    0.071996
    22  C    0.157276
    23  C   -0.016775
    24  C    0.178133
    25  C    0.041834
    26  C   -0.172729
    27  C   -0.052711
    28  C    0.049514
    29  C    0.008500
    30  C   -0.011812
    31  C    0.017364
    32  C    0.124052
    33  C   -0.093900
    34  C    0.113168
    35  C    0.131570
    36  C   -0.032684
    37  C    0.092276
    38  C    0.055604
    39  C   -0.203292
    40  C    0.164183
    41  C    0.009384
    42  C    0.014176
    43  C   -0.001099
    44  H    0.097038
    45  H   -0.031031
    46  H   -0.010495
    47  H    0.096313
    48  H    0.112177
    49  H    0.004318
    50  H   -0.028599
    51  H    0.019217
    52  H    0.024694
    53  H   -0.101807
    54  H    0.026433
    55  H    0.025363
    56  H    0.068577
    57  H    0.039879
    58  H    0.039325
    59  H    0.044377
    60  H    0.128665
    61  H    0.038612
    62  H    0.033125
    63  H    0.012303
    64  H    0.068846
    65  H    0.024078
    66  H    0.001216
    67  H    0.049255
    68  H    0.061115
    69  H   -0.016991
    70  H    0.025252
    71  H    0.020765
    72  H    0.246681
    73  H   -0.028385
    74  H    0.050492
    75  H    0.059952
    76  H    0.032918
    77  H    0.207256
    78  H   -0.003840
    79  H    0.034876
 Sum of Mulliken charges =  -0.00000

 Dipole moment (field-independent basis, Debye):
    X=              4.6802    Y=              3.2827    Z=             -1.8513  Tot=              6.0089
 Quadrupole moment (field-independent basis, Debye-Ang):
   XX=           -226.7529   YY=           -232.7478   ZZ=           -267.7198
   XY=              7.4950   XZ=            -25.7711   YZ=            -10.1161

 Normal termination of Gaussian 16 at Tue Jul 30 22:09:44 2019.
