 Gaussian 16, Revision A.03,
 Gaussian 16:  ES64L-G16RevA.03 25-Dec-2016

 --------------------------
 # td=(NStates=1) B3LYP/SVP
 --------------------------

 --
 TD
 --
 Symbolic Z-matrix:
 Charge =  0 Multiplicity = 1

                         Standard orientation:
 ---------------------------------------------------------------------
 Center     Atomic      Atomic             Coordinates (Angstroms)
 Number     Number       Type             X           Y           Z
 ---------------------------------------------------------------------
      1          8           0        5.150075   -0.113099   -3.203564
      2          8           0       -2.955968   -2.692474    3.129413
      3          8           0       -3.316074   -0.450061    3.228588
      4          8           0       -1.297484    7.126322    1.479583
      5          8           0       -0.372021    6.994412   -0.505690
      6          8           0       -1.935624   -4.054316    0.162832
      7          7           0        2.392300    0.784210    0.516846
      8          7           0        4.330469   -0.874177   -1.265739
      9          7           0       -1.882224    0.628438   -0.379310
     10          7           0       -2.529964   -1.895043   -0.544042
     11          6           0        4.806327   -1.315764    0.020396
     12          6           0        4.419702   -0.467826    1.199155
     13          6           0        3.004782   -0.136673    1.351001
     14          6           0        2.047184   -0.620074    2.141296
     15          6           0        0.828427    0.044551    1.893058
     16          6           0        1.045279    0.907721    0.763669
     17          6           0        6.270654   -1.476934   -0.214583
     18          6           0       -0.473917   -0.090630    2.705564
     19          6           0        6.610537   -0.981357   -1.494916
     20          6           0        0.119705    1.955715    0.250308
     21          6           0       -1.143736    1.804465   -0.232170
     22          6           0        5.343684   -0.627897   -2.119048
     23          6           0       -1.943188    2.785361   -0.935268
     24          6           0        2.230686   -1.671955    3.228893
     25          6           0        7.131547   -1.910277    0.827642
     26          6           0       -3.148313    2.272405   -1.407890
     27          6           0       -1.184480   -1.432791    2.511453
     28          6           0       -3.039453    0.867945   -1.097269
     29          6           0       -1.604462    4.311841   -1.056043
     30          6           0        7.836145   -0.836999   -2.161162
     31          6           0       -1.778402    5.089661    0.356774
     32          6           0       -4.220888    3.144784   -1.964513
     33          6           0       -3.976813   -0.098257   -1.433128
     34          6           0       -2.613326   -1.413868    3.010359
     35          6           0       -3.700162   -1.463254   -1.125313
     36          6           0        9.076272   -0.677352   -1.542484
     37          6           0       -1.095620    6.411252    0.259644
     38          6           0       -4.628728   -2.589315   -1.400779
     39          6           0       -4.056517   -3.772307   -1.044948
     40          6           0       -2.704469   -3.389970   -0.428259
     41          6           0       -5.936443   -2.315481   -2.006355
     42          6           0       -4.460194   -5.217872   -1.017760
     43          6           0       -6.813257   -3.259641   -2.525783
     44          1           0        4.372381   -2.341329    0.060792
     45          1           0        5.009789    0.462297    1.207758
     46          1           0        4.557613   -0.915057    2.282493
     47          1           0        2.917956    1.294594   -0.045521
     48          1           0        3.266431   -0.582622   -1.403428
     49          1           0       -0.193095   -0.111225    3.842172
     50          1           0       -1.013789    0.983957    2.348538
     51          1           0        0.557208    2.870657   -0.016822
     52          1           0        3.357894   -1.797064    3.643844
     53          1           0        1.585218   -1.660109    4.084776
     54          1           0        2.079055   -2.916038    2.821124
     55          1           0        6.635204   -2.596857    1.311049
     56          1           0        7.619892   -1.128910    1.433513
     57          1           0        7.961234   -2.409282    0.631989
     58          1           0       -1.385795   -1.436700    1.338351
     59          1           0       -0.660927   -2.177939    2.989251
     60          1           0       -1.499191   -0.296688   -0.227159
     61          1           0       -2.049729    4.844207   -1.847706
     62          1           0       -0.370806    4.168937   -1.464591
     63          1           0        7.896300   -0.906519   -3.261009
     64          1           0       -1.224764    4.589339    1.304919
     65          1           0       -2.833070    5.115743    0.593189
     66          1           0       -3.809772    4.133238   -2.310049
     67          1           0       -5.163535    3.240191   -1.369706
     68          1           0       -4.767219    2.298402   -2.729996
     69          1           0       -4.930569    0.254940   -1.944904
     70          1           0        9.251744   -0.491186   -0.421713
     71          1           0       10.095032   -0.736355   -1.992519
     72          1           0       -3.797040   -2.559511    3.605060
     73          1           0       -6.408536   -1.256528   -2.037794
     74          1           0       -5.581668   -5.075122   -0.384187
     75          1           0       -4.452437   -5.694483   -1.952746
     76          1           0       -3.698049   -5.760362   -0.298840
     77          1           0       -0.875395    8.006616    1.322703
     78          1           0       -7.681738   -3.033933   -2.972644
     79          1           0       -6.614525   -4.344826   -2.633022
 ---------------------------------------------------------------------

 SCF Done:  E(RB3LYP) =  -1947.81775388     A.U. after   16 cycles

 Excitation energies and oscillator strengths:

 Excited State   1:      Singlet-A      2.1036 eV  589.39 nm  f=0.3674  <S**2>=0.000
     155 ->156         0.69462
 This state for optimization and/or second-order correction.
 Total Energy, E(TD-HF/TD-DFT) =  -1947.74044831
 Copying the excited state density for this state as the 1-particle RhoCI density.

 The electronic state is 1-A.
 Alpha  occ. eigenvalues --  -19.17654 -19.15982 -19.14115 -19.12204 -19.11535
 Alpha  occ. eigenvalues --  -19.07779 -14.37741 -14.36504 -14.34918 -14.29894
 Alpha  occ. eigenvalues --  -10.33031 -10.30326 -10.27503 -10.26730 -10.25290
 Alpha  occ. eigenvalues --  -10.24717 -10.24401 -10.24186 -10.23878 -10.23809
 Alpha  occ. eigenvalues --  -10.23530 -10.23044 -10.22226 -10.22079 -10.21982
 Alpha  occ. eigenvalues --  -10.21959 -10.21939 -10.21874 -10.21855 -10.21478
 Alpha  occ. eigenvalues --  -10.21386 -10.20998 -10.20820 -10.20702 -10.20685
 Alpha  occ. eigenvalues --  -10.20650 -10.20028 -10.19978 -10.19776 -10.19022
 Alpha  occ. eigenvalues --  -10.18520 -10.18262 -10.17978  -1.09799  -1.08742
 Alpha  occ. eigenvalues --   -1.04617  -1.01744  -0.99800  -0.99423  -0.98726
 Alpha  occ. eigenvalues --   -0.98285  -0.93784  -0.90248  -0.82626  -0.82585
 Alpha  occ. eigenvalues --   -0.82125  -0.81525  -0.80373  -0.79744  -0.78253
 Alpha  occ. eigenvalues --   -0.77701  -0.76503  -0.76201  -0.74655  -0.72506
 Alpha  occ. eigenvalues --   -0.71829  -0.70867  -0.69829  -0.68951  -0.68729
 Alpha  occ. eigenvalues --   -0.66984  -0.66209  -0.64064  -0.61596  -0.60980
 Alpha  occ. eigenvalues --   -0.58951  -0.58439  -0.57787  -0.57400  -0.57034
 Alpha  occ. eigenvalues --   -0.56118  -0.55934  -0.55053  -0.54445  -0.53772
 Alpha  occ. eigenvalues --   -0.52293  -0.51567  -0.50683  -0.50461  -0.50033
 Alpha  occ. eigenvalues --   -0.49114  -0.48755  -0.48030  -0.48008  -0.47871
 Alpha  occ. eigenvalues --   -0.47836  -0.47325  -0.47120  -0.46663  -0.45952
 Alpha  occ. eigenvalues --   -0.45519  -0.45198  -0.44958  -0.44769  -0.44222
 Alpha  occ. eigenvalues --   -0.44045  -0.43792  -0.43202  -0.43078  -0.42622
 Alpha  occ. eigenvalues --   -0.42348  -0.41813  -0.41319  -0.41133  -0.41120
 Alpha  occ. eigenvalues --   -0.40978  -0.40556  -0.40436  -0.40196  -0.39856
 Alpha  occ. eigenvalues --   -0.39491  -0.39024  -0.38800  -0.38734  -0.37960
 Alpha  occ. eigenvalues --   -0.37820  -0.37544  -0.37396  -0.37155  -0.37078
 Alpha  occ. eigenvalues --   -0.36408  -0.36104  -0.35558  -0.34884  -0.34737
 Alpha  occ. eigenvalues --   -0.34187  -0.33145  -0.32737  -0.31660  -0.31508
 Alpha  occ. eigenvalues --   -0.31213  -0.30801  -0.28806  -0.28628  -0.28549
 Alpha  occ. eigenvalues --   -0.26840  -0.25790  -0.25499  -0.24569  -0.24496
 Alpha  occ. eigenvalues --   -0.24171  -0.23894  -0.23167  -0.22569  -0.19638
 Alpha virt. eigenvalues --   -0.11100  -0.06875  -0.06474  -0.01699  -0.01227
 Alpha virt. eigenvalues --    0.00811   0.01162   0.01957   0.02031   0.02568
 Alpha virt. eigenvalues --    0.03694   0.04057   0.04461   0.05055   0.05369

 Mulliken charges:
               1
     1  O   -0.231149
     2  O   -0.146726
     3  O   -0.232799
     4  O   -0.269137
     5  O   -0.202754
     6  O   -0.129940
     7  N   -0.019329
     8  N   -0.225921
     9  N   -0.083880
    10  N   -0.370643
    11  C    0.143226
    12  C    0.200676
    13  C   -0.141241
    14  C   -0.027615
    15  C   -0.103890
    16  C    0.023139
    17  C   -0.211993
    18  C   -0.003197
    19  C    0.014091
    20  C   -0.062820
    21  C    0.121465
    22  C    0.106524
    23  C   -0.087955
    24  C   -0.031085
    25  C    0.250261
    26  C   -0.081167
    27  C    0.031595
    28  C    0.139630
    29  C   -0.013454
    30  C   -0.029789
    31  C   -0.006775
    32  C    0.038447
    33  C   -0.147978
    34  C    0.099738
    35  C    0.119201
    36  C   -0.092666
    37  C    0.158559
    38  C    0.083812
    39  C   -0.208917
    40  C    0.164844
    41  C   -0.075029
    42  C    0.023934
    43  C   -0.003691
    44  H    0.017895
    45  H   -0.007984
    46  H    0.019824
    47  H    0.059258
    48  H    0.162053
    49  H    0.010229
    50  H    0.053719
    51  H   -0.033544
    52  H    0.024755
    53  H    0.018716
    54  H    0.038319
    55  H   -0.041775
    56  H    0.032332
    57  H   -0.042343
    58  H    0.099892
    59  H    0.003265
    60  H    0.152704
    61  H    0.015816
    62  H    0.054575
    63  H    0.025897
    64  H    0.094052
    65  H    0.056041
    66  H    0.048383
    67  H    0.042739
    68  H    0.031575
    69  H   -0.006762
    70  H    0.021804
    71  H    0.035655
    72  H    0.158496
    73  H    0.025446
    74  H    0.060536
    75  H    0.040900
    76  H    0.055030
    77  H    0.181633
    78  H   -0.009326
    79  H    0.022595
 Sum of Mulliken charges =  -0.00000

 Dipole moment (field-independent basis, Debye):
    X=             -0.9621    Y=              0.4866    Z=              2.6002  Tot=              2.8148
 Quadrupole moment (field-independent basis, Debye-Ang):
   XX=           -212.3449   YY=           -250.7880   ZZ=           -265.6041
   XY=             -9.5520   XZ=             37.5606   YZ=             -1.2059

 Normal termination of Gaussian 16 at Fri Sep 20 19:26:04 2019.
