 Gaussian 16, Revision A.03,
 Gaussian 16:  ES64L-G16RevA.03 25-Dec-2016

 --------------------------
 # td=(NStates=1) B3LYP/SVP
 --------------------------

 --
 TD
 --
 Symbolic Z-matrix:
 Charge =  0 Multiplicity = 1

                         Standard orientation:
 ---------------------------------------------------------------------
 Center     Atomic      Atomic             Coordinates (Angstroms)
 Number     Number       Type             X           Y           Z
 ---------------------------------------------------------------------
      1          8           0       -3.090928   -1.819748   -2.657729
      2          8           0        2.938958    3.526886    2.790163
      3          8           0        3.718308    1.861077    4.191150
      4          8           0        7.815743   -1.697592   -0.645109
      5          8           0        6.666789   -3.204471   -1.772267
      6          8           0       -2.785939    1.856078    1.247787
      7          7           0       -0.260230   -2.267139    1.246428
      8          7           0       -2.645300   -1.321352   -0.501821
      9          7           0        1.161237    0.008753   -0.755251
     10          7           0       -1.115216    1.530280   -0.331469
     11          6           0       -3.366793   -1.313513    0.774844
     12          6           0       -2.644467   -2.149077    1.841610
     13          6           0       -1.286529   -1.796941    1.979728
     14          6           0       -0.501084   -0.906832    2.879084
     15          6           0        0.826967   -0.968581    2.649209
     16          6           0        1.025577   -1.746170    1.497500
     17          6           0       -4.754496   -1.851737    0.387611
     18          6           0        1.858070    0.022867    3.236445
     19          6           0       -4.772017   -2.214233   -0.896822
     20          6           0        2.035289   -1.798379    0.483799
     21          6           0        2.120370   -0.902101   -0.552146
     22          6           0       -3.457063   -1.761376   -1.479298
     23          6           0        3.116795   -0.736997   -1.677459
     24          6           0       -1.285206    0.070233    3.810921
     25          6           0       -5.841443   -2.058363    1.418581
     26          6           0        2.667157    0.333042   -2.440069
     27          6           0        1.894833    1.488577    2.711942
     28          6           0        1.374918    0.756946   -1.853172
     29          6           0        4.317111   -1.567800   -1.769588
     30          6           0       -5.702110   -2.831238   -1.725534
     31          6           0        5.559749   -1.276744   -0.999979
     32          6           0        3.176692    0.797123   -3.689063
     33          6           0        0.489232    1.856630   -2.134239
     34          6           0        2.954938    2.264484    3.294844
     35          6           0       -0.743216    2.128773   -1.479159
     36          6           0       -6.848593   -3.594570   -1.404563
     37          6           0        6.773654   -2.201890   -1.212343
     38          6           0       -1.553552    3.250294   -1.661231
     39          6           0       -2.421487    3.351343   -0.535765
     40          6           0       -2.104032    2.136966    0.226557
     41          6           0       -1.443861    4.278947   -2.770701
     42          6           0       -3.423358    4.312232   -0.013037
     43          6           0       -2.136863    5.419038   -2.905792
     44          1           0       -3.426272   -0.396732    1.137508
     45          1           0       -2.784573   -3.229828    1.494566
     46          1           0       -3.197402   -2.230928    2.898001
     47          1           0       -0.663886   -2.742574    0.344188
     48          1           0       -1.974775   -0.604666   -0.779976
     49          1           0        1.757848    0.004937    4.380785
     50          1           0        2.877726   -0.356791    2.903536
     51          1           0        2.796034   -2.599702    0.418646
     52          1           0       -1.942737   -0.492207    4.529286
     53          1           0       -0.432724    0.534761    4.330351
     54          1           0       -1.800325    0.777972    3.129479
     55          1           0       -5.741422   -1.464365    2.557507
     56          1           0       -5.809688   -3.239201    1.601746
     57          1           0       -6.752164   -1.789026    1.197141
     58          1           0        1.831796    1.485200    1.698204
     59          1           0        0.893712    1.955113    3.008830
     60          1           0        0.487053    0.289604   -0.055306
     61          1           0        4.813307   -1.601695   -2.994419
     62          1           0        4.191637   -2.836234   -1.707958
     63          1           0       -5.605699   -2.795521   -2.819870
     64          1           0        5.444000   -1.248997    0.162027
     65          1           0        5.929673   -0.120693   -1.214447
     66          1           0        3.987285    0.213914   -4.116980
     67          1           0        3.415398    1.828678   -3.539205
     68          1           0        2.155781    0.712181   -4.397127
     69          1           0        0.772945    2.343163   -3.167759
     70          1           0       -7.056322   -4.180221   -0.608493
     71          1           0       -7.357369   -4.144151   -2.166125
     72          1           0        3.784125    3.996942    3.064016
     73          1           0       -0.818659    3.960744   -3.667083
     74          1           0       -4.248413    4.469099   -0.788339
     75          1           0       -3.940030    3.804975    0.913725
     76          1           0       -3.179911    5.335256    0.226715
     77          1           0        8.651984   -2.228920   -0.906479
     78          1           0       -1.778045    6.143148   -3.710992
     79          1           0       -2.797853    5.869423   -2.149166
 ---------------------------------------------------------------------

 SCF Done:  E(RB3LYP) =  -1947.82635593     A.U. after   21 cycles

 Excitation energies and oscillator strengths:

 Excited State   1:      Singlet-A      0.7730 eV 1603.84 nm  f=0.0006  <S**2>=0.000
     155 ->156         0.70435
 This state for optimization and/or second-order correction.
 Total Energy, E(TD-HF/TD-DFT) =  -1947.79794703
 Copying the excited state density for this state as the 1-particle RhoCI density.

 The electronic state is 1-A.
 Alpha  occ. eigenvalues --  -19.20776 -19.18529 -19.13970 -19.12331 -19.11026
 Alpha  occ. eigenvalues --  -19.07830 -14.38756 -14.37302 -14.33355 -14.29529
 Alpha  occ. eigenvalues --  -10.33015 -10.31856 -10.27998 -10.26438 -10.26372
 Alpha  occ. eigenvalues --  -10.25789 -10.25391 -10.24902 -10.24151 -10.23827
 Alpha  occ. eigenvalues --  -10.23330 -10.22837 -10.22677 -10.22505 -10.21737
 Alpha  occ. eigenvalues --  -10.21237 -10.21208 -10.21059 -10.20996 -10.20843
 Alpha  occ. eigenvalues --  -10.20836 -10.20791 -10.20123 -10.19913 -10.19833
 Alpha  occ. eigenvalues --  -10.19799 -10.19729 -10.19391 -10.18657 -10.17885
 Alpha  occ. eigenvalues --  -10.17434 -10.16940 -10.16520  -1.13805  -1.08279
 Alpha  occ. eigenvalues --   -1.05012  -1.02228  -1.01416  -1.00509  -0.99125
 Alpha  occ. eigenvalues --   -0.96560  -0.94821  -0.92290  -0.84994  -0.83205
 Alpha  occ. eigenvalues --   -0.81602  -0.80569  -0.80048  -0.79346  -0.78819
 Alpha  occ. eigenvalues --   -0.77090  -0.76391  -0.75163  -0.74559  -0.74090
 Alpha  occ. eigenvalues --   -0.71676  -0.70310  -0.70065  -0.69655  -0.67517
 Alpha  occ. eigenvalues --   -0.66790  -0.65828  -0.64063  -0.62678  -0.61596
 Alpha  occ. eigenvalues --   -0.60555  -0.59562  -0.59180  -0.58503  -0.56846
 Alpha  occ. eigenvalues --   -0.56336  -0.55374  -0.54023  -0.53818  -0.53290
 Alpha  occ. eigenvalues --   -0.52272  -0.51913  -0.51340  -0.50858  -0.50546
 Alpha  occ. eigenvalues --   -0.49971  -0.49771  -0.49650  -0.48889  -0.48331
 Alpha  occ. eigenvalues --   -0.47863  -0.47205  -0.47192  -0.47089  -0.46688
 Alpha  occ. eigenvalues --   -0.45936  -0.45130  -0.44869  -0.44354  -0.43979
 Alpha  occ. eigenvalues --   -0.43810  -0.43603  -0.43387  -0.42929  -0.42360
 Alpha  occ. eigenvalues --   -0.41886  -0.41493  -0.40948  -0.40835  -0.40645
 Alpha  occ. eigenvalues --   -0.40448  -0.40277  -0.40145  -0.39798  -0.39285
 Alpha  occ. eigenvalues --   -0.39032  -0.38594  -0.38504  -0.38311  -0.38302
 Alpha  occ. eigenvalues --   -0.37914  -0.37686  -0.36695  -0.36620  -0.36377
 Alpha  occ. eigenvalues --   -0.35937  -0.35577  -0.35283  -0.34734  -0.33962
 Alpha  occ. eigenvalues --   -0.33742  -0.33285  -0.32265  -0.31884  -0.31332
 Alpha  occ. eigenvalues --   -0.30875  -0.30691  -0.29806  -0.28854  -0.27983
 Alpha  occ. eigenvalues --   -0.27867  -0.27670  -0.25157  -0.24877  -0.23998
 Alpha  occ. eigenvalues --   -0.23663  -0.22954  -0.22611  -0.22357  -0.18777
 Alpha virt. eigenvalues --   -0.13365  -0.07929  -0.05443  -0.01711  -0.00628
 Alpha virt. eigenvalues --    0.00544   0.00591   0.01330   0.01835   0.01904
 Alpha virt. eigenvalues --    0.02748   0.03101   0.03854   0.04417   0.04516

 Mulliken charges:
               1
     1  O   -0.257882
     2  O   -0.207436
     3  O   -0.252875
     4  O   -0.157120
     5  O   -0.162343
     6  O   -0.259658
     7  N   -0.095412
     8  N   -0.182830
     9  N   -0.015815
    10  N   -0.231411
    11  C    0.194174
    12  C    0.114658
    13  C   -0.061364
    14  C   -0.191688
    15  C   -0.064093
    16  C    0.026449
    17  C   -0.168031
    18  C    0.032961
    19  C    0.041611
    20  C   -0.086302
    21  C    0.035617
    22  C    0.102705
    23  C    0.071195
    24  C    0.085479
    25  C    0.050720
    26  C   -0.109277
    27  C    0.050242
    28  C    0.043523
    29  C   -0.110132
    30  C   -0.056681
    31  C   -0.084892
    32  C    0.069190
    33  C   -0.101242
    34  C    0.154864
    35  C    0.131520
    36  C   -0.023785
    37  C    0.097349
    38  C    0.007027
    39  C   -0.154733
    40  C    0.117841
    41  C   -0.013409
    42  C    0.032292
    43  C   -0.047888
    44  H   -0.027910
    45  H   -0.013336
    46  H    0.032507
    47  H    0.139208
    48  H    0.141847
    49  H    0.039979
    50  H    0.003147
    51  H    0.006163
    52  H    0.013866
    53  H   -0.011503
    54  H    0.058276
    55  H    0.039680
    56  H    0.055578
    57  H   -0.005545
    58  H   -0.018044
    59  H    0.054520
    60  H    0.174257
    61  H    0.036946
    62  H    0.077299
    63  H    0.021903
    64  H    0.055385
    65  H    0.044861
    66  H    0.028248
    67  H    0.033133
    68  H    0.068319
    69  H    0.017388
    70  H   -0.021221
    71  H    0.001728
    72  H    0.197795
    73  H    0.007149
    74  H    0.031922
    75  H    0.056659
    76  H    0.034828
    77  H    0.211255
    78  H    0.033998
    79  H    0.016594
 Sum of Mulliken charges =  -0.00000

 Dipole moment (field-independent basis, Debye):
    X=              5.2466    Y=              2.0308    Z=             -2.2099  Tot=              6.0444
 Quadrupole moment (field-independent basis, Debye-Ang):
   XX=           -217.1290   YY=           -241.7565   ZZ=           -270.8771
   XY=              5.9120   XZ=            -28.1733   YZ=            -14.6150

 Normal termination of Gaussian 16 at Thu Jul 25 18:03:46 2019.
