 Gaussian 16, Revision A.03,
 Gaussian 16:  ES64L-G16RevA.03 25-Dec-2016

 --------------------------
 # td=(NStates=1) B3LYP/SVP
 --------------------------

 --
 TD
 --
 Symbolic Z-matrix:
 Charge =  0 Multiplicity = 1

                         Standard orientation:
 ---------------------------------------------------------------------
 Center     Atomic      Atomic             Coordinates (Angstroms)
 Number     Number       Type             X           Y           Z
 ---------------------------------------------------------------------
      1          8           0        5.124649   -0.125235   -3.281911
      2          8           0       -2.994675   -2.884427    3.239970
      3          8           0       -3.382575   -0.678458    2.933119
      4          8           0       -1.501840    7.214649    1.427283
      5          8           0       -0.871190    7.175225   -0.730368
      6          8           0       -1.587059   -3.938265   -0.017071
      7          7           0        2.348172    0.901408    0.713006
      8          7           0        4.381023   -0.726947   -1.163799
      9          7           0       -1.796077    0.686199   -0.274482
     10          7           0       -2.521279   -1.893091   -0.394703
     11          6           0        4.789277   -1.188558    0.127604
     12          6           0        4.399612   -0.349927    1.390686
     13          6           0        2.925789   -0.195313    1.395878
     14          6           0        1.872864   -0.668442    2.195354
     15          6           0        0.708223   -0.001334    1.862360
     16          6           0        1.065991    0.955997    0.838039
     17          6           0        6.309667   -1.297483   -0.165860
     18          6           0       -0.653013   -0.196978    2.554464
     19          6           0        6.548584   -0.840730   -1.400241
     20          6           0        0.257653    1.796204    0.049173
     21          6           0       -1.105815    1.792648   -0.244517
     22          6           0        5.290692   -0.521349   -2.072039
     23          6           0       -1.877058    2.925138   -0.932885
     24          6           0        2.140042   -1.685058    3.366308
     25          6           0        7.247415   -1.814639    0.836042
     26          6           0       -3.074962    2.346483   -1.311258
     27          6           0       -1.225633   -1.655043    2.407617
     28          6           0       -3.070112    0.948683   -1.058142
     29          6           0       -1.465355    4.356473   -0.841502
     30          6           0        7.740625   -0.839163   -2.167014
     31          6           0       -1.636647    5.176915    0.402413
     32          6           0       -4.273514    3.002697   -1.922965
     33          6           0       -3.951707   -0.057949   -1.316065
     34          6           0       -2.657843   -1.611852    2.911185
     35          6           0       -3.771766   -1.487061   -0.953409
     36          6           0        9.098358   -0.702538   -1.656288
     37          6           0       -1.247675    6.591255    0.340798
     38          6           0       -4.613989   -2.647703   -1.397676
     39          6           0       -3.832429   -3.774766   -1.074107
     40          6           0       -2.573005   -3.345112   -0.487233
     41          6           0       -5.969362   -2.492571   -1.973893
     42          6           0       -4.078869   -5.237806   -1.233921
     43          6           0       -6.795481   -3.515563   -2.558547
     44          1           0        4.403231   -2.263004    0.009505
     45          1           0        4.911254    0.754548    1.168223
     46          1           0        4.813557   -0.736837    2.319535
     47          1           0        2.905138    1.467123    0.180512
     48          1           0        3.368277   -0.757742   -1.432127
     49          1           0       -0.791842    0.072510    3.569693
     50          1           0       -1.236789    0.505931    2.180646
     51          1           0        0.797932    2.622449   -0.442143
     52          1           0        3.361567   -1.494901    3.801190
     53          1           0        1.438316   -1.574470    4.241830
     54          1           0        2.180028   -2.773214    2.964556
     55          1           0        6.704592   -2.500845    1.626094
     56          1           0        7.908904   -1.018872    1.396740
     57          1           0        7.917916   -2.351889    0.141424
     58          1           0       -1.226505   -1.898650    1.392235
     59          1           0       -0.587288   -2.477165    3.003220
     60          1           0       -1.519014   -0.225895   -0.143337
     61          1           0       -1.885979    4.873133   -1.842688
     62          1           0       -0.397610    4.379969   -1.045393
     63          1           0        7.528710   -0.916404   -3.362742
     64          1           0       -0.927532    4.687981    1.182486
     65          1           0       -2.680603    5.218191    0.784165
     66          1           0       -4.207120    4.060168   -2.143068
     67          1           0       -5.348635    2.846745   -1.511848
     68          1           0       -4.354490    2.540779   -2.997577
     69          1           0       -4.819781    0.129971   -1.785707
     70          1           0        9.304323   -0.709050   -0.567013
     71          1           0       10.179403   -0.886952   -2.274433
     72          1           0       -3.952239   -2.896360    3.555548
     73          1           0       -6.320873   -1.507081   -2.060226
     74          1           0       -5.179921   -5.540117   -0.811553
     75          1           0       -3.961210   -5.417206   -2.271387
     76          1           0       -3.322530   -5.928650   -0.828674
     77          1           0       -0.930656    8.142677    1.430117
     78          1           0       -7.840348   -3.202224   -2.953263
     79          1           0       -6.536887   -4.698877   -2.665036
 ---------------------------------------------------------------------

 SCF Done:  E(RB3LYP) =  -1947.82575939     A.U. after   20 cycles

 Excitation energies and oscillator strengths:

 Excited State   1:      Singlet-A      1.6718 eV  741.61 nm  f=0.3789  <S**2>=0.000
     154 ->156         0.13014
     155 ->156         0.70214
     155 <-156        -0.16223
 This state for optimization and/or second-order correction.
 Total Energy, E(TD-HF/TD-DFT) =  -1947.76432092
 Copying the excited state density for this state as the 1-particle RhoCI density.

 The electronic state is 1-A.
 Alpha  occ. eigenvalues --  -19.20962 -19.16419 -19.11896 -19.11411 -19.10379
 Alpha  occ. eigenvalues --  -19.08568 -14.38472 -14.36316 -14.35836 -14.29156
 Alpha  occ. eigenvalues --  -10.32514 -10.29843 -10.27607 -10.26225 -10.25897
 Alpha  occ. eigenvalues --  -10.24698 -10.24436 -10.24351 -10.24185 -10.23278
 Alpha  occ. eigenvalues --  -10.23246 -10.22916 -10.22603 -10.22132 -10.22129
 Alpha  occ. eigenvalues --  -10.22115 -10.22079 -10.21947 -10.21933 -10.21917
 Alpha  occ. eigenvalues --  -10.21874 -10.21536 -10.21483 -10.21258 -10.21177
 Alpha  occ. eigenvalues --  -10.20767 -10.19787 -10.19624 -10.19526 -10.19500
 Alpha  occ. eigenvalues --  -10.19186 -10.17793 -10.17281  -1.11669  -1.07894
 Alpha  occ. eigenvalues --   -1.01414  -1.00919  -0.99966  -0.99757  -0.97848
 Alpha  occ. eigenvalues --   -0.97415  -0.93781  -0.88853  -0.83125  -0.82866
 Alpha  occ. eigenvalues --   -0.82036  -0.81358  -0.80536  -0.79121  -0.77915
 Alpha  occ. eigenvalues --   -0.76860  -0.75841  -0.75116  -0.74256  -0.72253
 Alpha  occ. eigenvalues --   -0.70851  -0.70629  -0.69155  -0.69119  -0.68629
 Alpha  occ. eigenvalues --   -0.67184  -0.66484  -0.64426  -0.61604  -0.61240
 Alpha  occ. eigenvalues --   -0.61020  -0.59325  -0.58566  -0.57700  -0.57058
 Alpha  occ. eigenvalues --   -0.56817  -0.55783  -0.55535  -0.54357  -0.53282
 Alpha  occ. eigenvalues --   -0.52450  -0.50918  -0.50722  -0.50461  -0.50133
 Alpha  occ. eigenvalues --   -0.49102  -0.48521  -0.48461  -0.47945  -0.47580
 Alpha  occ. eigenvalues --   -0.47130  -0.46748  -0.46539  -0.45784  -0.45198
 Alpha  occ. eigenvalues --   -0.44851  -0.44256  -0.43923  -0.43734  -0.43630
 Alpha  occ. eigenvalues --   -0.43288  -0.43253  -0.43059  -0.42336  -0.42325
 Alpha  occ. eigenvalues --   -0.41687  -0.41454  -0.40938  -0.40750  -0.40583
 Alpha  occ. eigenvalues --   -0.40326  -0.40243  -0.39778  -0.39606  -0.39037
 Alpha  occ. eigenvalues --   -0.38880  -0.38659  -0.38451  -0.38085  -0.38038
 Alpha  occ. eigenvalues --   -0.37640  -0.37446  -0.37299  -0.37213  -0.36853
 Alpha  occ. eigenvalues --   -0.36284  -0.35817  -0.35190  -0.35038  -0.34174
 Alpha  occ. eigenvalues --   -0.33875  -0.33654  -0.32794  -0.31587  -0.31257
 Alpha  occ. eigenvalues --   -0.30887  -0.30520  -0.27885  -0.27420  -0.27322
 Alpha  occ. eigenvalues --   -0.26985  -0.26364  -0.25647  -0.25199  -0.24451
 Alpha  occ. eigenvalues --   -0.24217  -0.23862  -0.23466  -0.21735  -0.17954
 Alpha virt. eigenvalues --   -0.11727  -0.07450  -0.06276  -0.02361  -0.01495
 Alpha virt. eigenvalues --    0.00016   0.00239   0.00950   0.02312   0.02856
 Alpha virt. eigenvalues --    0.03286   0.04000   0.04133   0.04503   0.04947

 Mulliken charges:
               1
     1  O   -0.301454
     2  O   -0.208390
     3  O   -0.198770
     4  O   -0.173046
     5  O   -0.296922
     6  O   -0.211854
     7  N    0.027116
     8  N   -0.143680
     9  N   -0.046636
    10  N   -0.356732
    11  C    0.093437
    12  C    0.159316
    13  C   -0.074659
    14  C   -0.070073
    15  C   -0.144464
    16  C    0.043766
    17  C   -0.200501
    18  C    0.180943
    19  C   -0.004585
    20  C   -0.073316
    21  C    0.053549
    22  C    0.118592
    23  C   -0.092290
    24  C   -0.017216
    25  C    0.010060
    26  C   -0.052637
    27  C   -0.008257
    28  C    0.152737
    29  C    0.063966
    30  C   -0.072291
    31  C    0.031551
    32  C    0.034899
    33  C   -0.035244
    34  C    0.120812
    35  C    0.080651
    36  C   -0.110920
    37  C    0.107148
    38  C    0.046020
    39  C   -0.180396
    40  C    0.169705
    41  C   -0.000399
    42  C    0.073098
    43  C   -0.095480
    44  H    0.037401
    45  H    0.034387
    46  H    0.010803
    47  H    0.077855
    48  H    0.141273
    49  H   -0.020561
    50  H   -0.062260
    51  H   -0.022787
    52  H    0.018983
    53  H    0.051356
    54  H    0.057639
    55  H    0.038812
    56  H    0.063961
    57  H    0.047794
    58  H    0.055474
    59  H    0.039697
    60  H    0.103583
    61  H    0.040504
    62  H    0.000038
    63  H    0.068626
    64  H    0.051128
    65  H    0.048890
    66  H    0.010547
    67  H    0.046937
    68  H    0.033567
    69  H   -0.091288
    70  H    0.025545
    71  H    0.064559
    72  H    0.182905
    73  H   -0.014848
    74  H    0.049110
    75  H    0.021128
    76  H    0.025913
    77  H    0.248904
    78  H    0.049351
    79  H    0.067921
 Sum of Mulliken charges =  -0.00000

 Dipole moment (field-independent basis, Debye):
    X=             -0.6714    Y=              1.7020    Z=              4.6375  Tot=              4.9854
 Quadrupole moment (field-independent basis, Debye-Ang):
   XX=           -220.5943   YY=           -242.6131   ZZ=           -264.5513
   XY=             -2.4702   XZ=             37.7649   YZ=             14.8942

 Normal termination of Gaussian 16 at Tue Oct  1 07:21:17 2019.
