 Gaussian 16, Revision A.03,
 Gaussian 16:  ES64L-G16RevA.03 25-Dec-2016

 --------------------------
 # td=(NStates=1) B3LYP/SVP
 --------------------------

 --
 TD
 --
 Symbolic Z-matrix:
 Charge =  0 Multiplicity = 1

                         Standard orientation:
 ---------------------------------------------------------------------
 Center     Atomic      Atomic             Coordinates (Angstroms)
 Number     Number       Type             X           Y           Z
 ---------------------------------------------------------------------
      1          8           0       -3.332874   -1.257363   -2.815754
      2          8           0        3.096670    3.327698    3.082550
      3          8           0        3.726720    1.517117    4.340169
      4          8           0        7.719795   -1.612641   -0.657564
      5          8           0        6.699105   -3.072181   -1.998280
      6          8           0       -2.659875    1.700445    1.348452
      7          7           0       -0.331048   -2.483488    1.008237
      8          7           0       -2.722158   -1.301676   -0.619197
      9          7           0        1.174496    0.048136   -0.720998
     10          7           0       -0.974906    1.352069   -0.314945
     11          6           0       -3.362164   -1.367956    0.646085
     12          6           0       -2.688657   -2.263375    1.765756
     13          6           0       -1.293015   -1.980816    1.913552
     14          6           0       -0.572835   -1.126326    2.914968
     15          6           0        0.764338   -1.123260    2.497454
     16          6           0        0.924188   -1.879338    1.357004
     17          6           0       -4.813289   -1.911247    0.303160
     18          6           0        1.933132   -0.272201    3.053721
     19          6           0       -4.835681   -1.916012   -0.945440
     20          6           0        2.009451   -1.897115    0.307509
     21          6           0        2.073944   -0.891664   -0.574349
     22          6           0       -3.555530   -1.553957   -1.625908
     23          6           0        3.006915   -0.769203   -1.775959
     24          6           0       -1.239276   -0.414551    4.001054
     25          6           0       -5.798545   -2.090508    1.440865
     26          6           0        2.512628    0.347639   -2.474326
     27          6           0        1.913213    1.222092    2.666201
     28          6           0        1.307692    0.771122   -1.895587
     29          6           0        4.168158   -1.647043   -1.944739
     30          6           0       -5.914414   -2.378815   -1.905267
     31          6           0        5.424272   -1.205135   -1.121284
     32          6           0        3.084456    0.862330   -3.770966
     33          6           0        0.548757    1.968423   -2.053951
     34          6           0        2.954269    2.012176    3.434945
     35          6           0       -0.583081    2.269849   -1.300640
     36          6           0       -6.880082   -3.352033   -1.742407
     37          6           0        6.615146   -2.072810   -1.336639
     38          6           0       -1.413898    3.463652   -1.394830
     39          6           0       -2.378748    3.386570   -0.322942
     40          6           0       -1.987675    2.094571    0.305745
     41          6           0       -1.130637    4.507774   -2.248098
     42          6           0       -3.221942    4.533736    0.285153
     43          6           0       -1.689761    5.786896   -2.451114
     44          1           0       -3.633951   -0.337985    1.359886
     45          1           0       -2.850066   -3.292635    1.455506
     46          1           0       -3.313120   -1.976266    2.597205
     47          1           0       -0.524257   -3.289637    0.262281
     48          1           0       -2.110160   -0.334396   -0.906052
     49          1           0        1.594538   -0.476434    4.104860
     50          1           0        2.857477   -0.807487    2.883990
     51          1           0        2.613084   -2.760949    0.695132
     52          1           0       -1.927291   -1.201227    4.612064
     53          1           0       -0.467467   -0.005401    4.803503
     54          1           0       -1.636679    0.565868    3.486696
     55          1           0       -5.983833   -0.979878    2.031821
     56          1           0       -5.286647   -3.074726    2.084331
     57          1           0       -6.799119   -2.345206    0.791699
     58          1           0        2.139316    1.230997    1.526362
     59          1           0        0.988599    1.481227    2.946799
     60          1           0        0.343866    0.297936   -0.214893
     61          1           0        4.466233   -1.735182   -3.140225
     62          1           0        3.820841   -2.787864   -1.702662
     63          1           0       -5.921786   -1.749981   -2.875913
     64          1           0        5.204738   -1.192858   -0.159689
     65          1           0        5.492143   -0.134156   -1.299587
     66          1           0        4.129413    0.278306   -3.901277
     67          1           0        3.291353    1.964824   -3.805590
     68          1           0        2.222845    0.642509   -4.696201
     69          1           0        0.709604    2.359648   -3.053692
     70          1           0       -6.768679   -4.041082   -0.933619
     71          1           0       -7.507074   -3.572352   -2.657104
     72          1           0        3.596093    3.795275    3.477944
     73          1           0       -0.269515    4.251653   -2.918464
     74          1           0       -4.142811    4.547051   -0.307021
     75          1           0       -3.586731    4.203295    1.228648
     76          1           0       -2.539637    5.649982    0.260850
     77          1           0        8.379943   -2.204170   -0.720306
     78          1           0       -1.392417    6.213693   -3.334399
     79          1           0       -2.497849    6.006939   -1.903514
 ---------------------------------------------------------------------

 SCF Done:  E(RB3LYP) =  -1947.68176542     A.U. after   23 cycles

 Excitation energies and oscillator strengths:

 Excited State   1:      Singlet-A      0.5896 eV 2102.96 nm  f=0.0058  <S**2>=0.000
     155 ->156         0.70435
 This state for optimization and/or second-order correction.
 Total Energy, E(TD-HF/TD-DFT) =  -1947.66009908
 Copying the excited state density for this state as the 1-particle RhoCI density.

 The electronic state is 1-A.
 Alpha  occ. eigenvalues --  -19.18103 -19.16961 -19.14445 -19.12150 -19.11343
 Alpha  occ. eigenvalues --  -19.08342 -14.37375 -14.37157 -14.33495 -14.32269
 Alpha  occ. eigenvalues --  -10.33879 -10.33204 -10.28471 -10.26809 -10.26254
 Alpha  occ. eigenvalues --  -10.25842 -10.25824 -10.24404 -10.24125 -10.23935
 Alpha  occ. eigenvalues --  -10.23516 -10.23076 -10.22985 -10.22780 -10.22702
 Alpha  occ. eigenvalues --  -10.22270 -10.22181 -10.21840 -10.21436 -10.21374
 Alpha  occ. eigenvalues --  -10.20873 -10.20863 -10.20470 -10.19987 -10.19814
 Alpha  occ. eigenvalues --  -10.19524 -10.19202 -10.19048 -10.18817 -10.18438
 Alpha  occ. eigenvalues --  -10.17658 -10.17407 -10.17285  -1.11428  -1.10825
 Alpha  occ. eigenvalues --   -1.02532  -1.01619  -1.00261  -0.99233  -0.97889
 Alpha  occ. eigenvalues --   -0.93758  -0.92677  -0.92222  -0.84345  -0.83317
 Alpha  occ. eigenvalues --   -0.82089  -0.80595  -0.80514  -0.79949  -0.78421
 Alpha  occ. eigenvalues --   -0.76880  -0.76514  -0.75487  -0.73680  -0.72879
 Alpha  occ. eigenvalues --   -0.71638  -0.70960  -0.69926  -0.68865  -0.68277
 Alpha  occ. eigenvalues --   -0.67268  -0.65179  -0.63858  -0.63276  -0.62551
 Alpha  occ. eigenvalues --   -0.61760  -0.59633  -0.57908  -0.57646  -0.56696
 Alpha  occ. eigenvalues --   -0.55880  -0.54899  -0.54138  -0.53695  -0.52859
 Alpha  occ. eigenvalues --   -0.52350  -0.52228  -0.50474  -0.50257  -0.49897
 Alpha  occ. eigenvalues --   -0.49623  -0.49054  -0.49008  -0.48201  -0.47999
 Alpha  occ. eigenvalues --   -0.47370  -0.47111  -0.46592  -0.46386  -0.45497
 Alpha  occ. eigenvalues --   -0.44499  -0.44371  -0.44285  -0.43819  -0.43569
 Alpha  occ. eigenvalues --   -0.43018  -0.42566  -0.42346  -0.41868  -0.41687
 Alpha  occ. eigenvalues --   -0.41484  -0.41267  -0.40975  -0.40850  -0.40676
 Alpha  occ. eigenvalues --   -0.40282  -0.40190  -0.39918  -0.39469  -0.39430
 Alpha  occ. eigenvalues --   -0.39169  -0.39126  -0.38876  -0.38370  -0.38298
 Alpha  occ. eigenvalues --   -0.37435  -0.36839  -0.36765  -0.36625  -0.36144
 Alpha  occ. eigenvalues --   -0.35963  -0.35418  -0.35139  -0.35010  -0.33903
 Alpha  occ. eigenvalues --   -0.33809  -0.32748  -0.32338  -0.32190  -0.31286
 Alpha  occ. eigenvalues --   -0.31046  -0.30264  -0.30127  -0.29311  -0.28735
 Alpha  occ. eigenvalues --   -0.27223  -0.26989  -0.25399  -0.24756  -0.24098
 Alpha  occ. eigenvalues --   -0.23484  -0.23228  -0.23197  -0.22798  -0.18114
 Alpha virt. eigenvalues --   -0.13660  -0.09091  -0.03307  -0.02901  -0.01785
 Alpha virt. eigenvalues --   -0.01570   0.00863   0.01280   0.01511   0.02281
 Alpha virt. eigenvalues --    0.03123   0.03512   0.03857   0.04181   0.05239

 Mulliken charges:
               1
     1  O   -0.270394
     2  O   -0.076612
     3  O   -0.284360
     4  O   -0.155971
     5  O   -0.200336
     6  O   -0.290632
     7  N   -0.173728
     8  N   -0.179690
     9  N   -0.016535
    10  N   -0.345778
    11  C   -0.078737
    12  C    0.228980
    13  C   -0.058891
    14  C   -0.115824
    15  C   -0.113143
    16  C   -0.082491
    17  C   -0.126248
    18  C    0.056210
    19  C   -0.069077
    20  C   -0.134654
    21  C    0.203096
    22  C    0.127374
    23  C   -0.055794
    24  C   -0.019699
    25  C   -0.057086
    26  C   -0.106104
    27  C    0.103861
    28  C    0.067112
    29  C   -0.050562
    30  C   -0.053704
    31  C    0.105865
    32  C   -0.020964
    33  C   -0.083832
    34  C    0.154140
    35  C    0.128505
    36  C   -0.028930
    37  C    0.146370
    38  C    0.098867
    39  C   -0.162310
    40  C    0.198157
    41  C   -0.145487
    42  C    0.083231
    43  C    0.096895
    44  H    0.086210
    45  H   -0.038011
    46  H   -0.019425
    47  H    0.163767
    48  H    0.209889
    49  H    0.022914
    50  H   -0.007201
    51  H    0.050448
    52  H    0.048371
    53  H    0.010636
    54  H    0.075801
    55  H    0.078839
    56  H    0.075565
    57  H    0.057873
    58  H    0.060840
    59  H    0.003835
    60  H    0.157155
    61  H    0.055787
    62  H    0.060336
    63  H    0.033378
    64  H   -0.011673
    65  H    0.034456
    66  H    0.045960
    67  H    0.046420
    68  H    0.072751
    69  H    0.006883
    70  H    0.012781
    71  H    0.037432
    72  H    0.072034
    73  H   -0.006878
    74  H    0.034888
    75  H    0.019119
    76  H    0.077289
    77  H    0.136465
    78  H    0.013303
    79  H   -0.019328
 Sum of Mulliken charges =  -0.00000

 Dipole moment (field-independent basis, Debye):
    X=              3.1771    Y=              2.5575    Z=             -1.3716  Tot=              4.3030
 Quadrupole moment (field-independent basis, Debye-Ang):
   XX=           -248.1514   YY=           -232.9412   ZZ=           -271.9015
   XY=              0.3345   XZ=            -21.0348   YZ=            -14.7879

 Normal termination of Gaussian 16 at Sun Jul 28 16:19:35 2019.
