 Gaussian 16, Revision A.03,
 Gaussian 16:  ES64L-G16RevA.03 25-Dec-2016

 --------------------------
 # td=(NStates=1) B3LYP/SVP
 --------------------------

 --
 TD
 --
 Symbolic Z-matrix:
 Charge =  0 Multiplicity = 1

                         Standard orientation:
 ---------------------------------------------------------------------
 Center     Atomic      Atomic             Coordinates (Angstroms)
 Number     Number       Type             X           Y           Z
 ---------------------------------------------------------------------
      1          8           0       -3.319280   -1.576466   -2.894279
      2          8           0        3.151823    3.163130    3.046086
      3          8           0        3.589245    1.368410    4.388619
      4          8           0        7.757470   -1.596275   -0.832789
      5          8           0        6.554345   -3.222245   -1.886421
      6          8           0       -2.671680    1.624930    1.298380
      7          7           0       -0.257222   -2.383469    1.007880
      8          7           0       -2.683673   -1.286162   -0.662512
      9          7           0        1.243907    0.054702   -0.675391
     10          7           0       -0.900453    1.428985   -0.267063
     11          6           0       -3.355996   -1.321549    0.645482
     12          6           0       -2.676951   -2.307291    1.708988
     13          6           0       -1.252128   -1.922795    1.842731
     14          6           0       -0.653434   -1.004852    2.735449
     15          6           0        0.717767   -0.998770    2.495958
     16          6           0        0.889820   -1.810652    1.366851
     17          6           0       -4.804921   -1.867960    0.188556
     18          6           0        1.771311   -0.283883    3.208754
     19          6           0       -4.787976   -2.025482   -1.088149
     20          6           0        2.093863   -1.883556    0.384139
     21          6           0        2.113459   -1.001700   -0.674355
     22          6           0       -3.550992   -1.533489   -1.647209
     23          6           0        3.001105   -0.742880   -1.732831
     24          6           0       -1.362638   -0.275349    3.956818
     25          6           0       -5.808514   -2.083554    1.342627
     26          6           0        2.553815    0.397432   -2.411246
     27          6           0        2.055477    1.133099    2.648630
     28          6           0        1.465306    0.906135   -1.645988
     29          6           0        4.301638   -1.576769   -2.050928
     30          6           0       -5.959223   -2.509199   -2.017500
     31          6           0        5.473393   -1.115605   -1.149519
     32          6           0        3.171170    1.045362   -3.601908
     33          6           0        0.705618    2.132895   -1.866617
     34          6           0        3.001218    1.879245    3.472935
     35          6           0       -0.500576    2.279534   -1.170843
     36          6           0       -6.914917   -3.376086   -1.515416
     37          6           0        6.655385   -2.045937   -1.472415
     38          6           0       -1.346623    3.474811   -1.311848
     39          6           0       -2.323169    3.389779   -0.320585
     40          6           0       -2.018187    2.000099    0.371270
     41          6           0       -1.153561    4.601071   -2.256915
     42          6           0       -3.490523    4.346318    0.076878
     43          6           0       -2.086004    5.690317   -2.425070
     44          1           0       -3.320182   -0.149177    1.123541
     45          1           0       -2.842258   -3.356460    1.602467
     46          1           0       -3.230384   -2.159791    2.583526
     47          1           0       -0.342188   -3.192876    0.228917
     48          1           0       -2.229308   -0.422461   -0.968086
     49          1           0        1.740303   -0.181696    4.341877
     50          1           0        2.797639   -0.794573    3.044306
     51          1           0        2.827792   -2.407847    0.466059
     52          1           0       -2.277471   -0.863707    4.252209
     53          1           0       -0.588302    0.010348    4.655783
     54          1           0       -1.695071    0.641085    3.483520
     55          1           0       -5.915106   -1.141120    1.954899
     56          1           0       -5.641700   -2.897136    1.975870
     57          1           0       -6.707228   -2.132365    0.904600
     58          1           0        2.107753    1.274041    1.604328
     59          1           0        1.053581    1.787834    2.800311
     60          1           0        0.530598    0.504294   -0.106009
     61          1           0        4.859337   -1.248637   -3.050263
     62          1           0        4.121156   -2.613766   -1.756896
     63          1           0       -5.952173   -2.064442   -2.963293
     64          1           0        5.217391   -1.283767   -0.156516
     65          1           0        5.780023    0.000038   -1.362315
     66          1           0        4.107724    0.845511   -3.990394
     67          1           0        3.379347    2.090048   -3.456885
     68          1           0        2.402445    1.055565   -4.347538
     69          1           0        0.894161    2.502362   -2.922677
     70          1           0       -6.685347   -3.958116   -0.571148
     71          1           0       -8.018584   -3.682169   -2.046691
     72          1           0        4.086560    3.548733    3.415891
     73          1           0       -0.365982    4.516492   -3.000507
     74          1           0       -4.206034    4.393646   -0.738529
     75          1           0       -4.184534    3.717883    0.704859
     76          1           0       -3.178328    5.292088    0.451877
     77          1           0        8.435862   -2.309648   -0.665180
     78          1           0       -1.887666    6.523816   -3.135109
     79          1           0       -2.931187    5.833283   -1.654311
 ---------------------------------------------------------------------

 SCF Done:  E(RB3LYP) =  -1947.81106297     A.U. after   19 cycles

 Excitation energies and oscillator strengths:

 Excited State   1:      Singlet-A      1.2078 eV 1026.55 nm  f=0.0085  <S**2>=0.000
     155 ->156         0.70399
 This state for optimization and/or second-order correction.
 Total Energy, E(TD-HF/TD-DFT) =  -1947.76667809
 Copying the excited state density for this state as the 1-particle RhoCI density.

 The electronic state is 1-A.
 Alpha  occ. eigenvalues --  -19.19914 -19.18290 -19.14223 -19.12976 -19.12257
 Alpha  occ. eigenvalues --  -19.07442 -14.37836 -14.36487 -14.32811 -14.30897
 Alpha  occ. eigenvalues --  -10.33953 -10.31305 -10.28967 -10.25628 -10.25628
 Alpha  occ. eigenvalues --  -10.25403 -10.24662 -10.23033 -10.22993 -10.22858
 Alpha  occ. eigenvalues --  -10.22657 -10.22247 -10.22159 -10.21869 -10.21428
 Alpha  occ. eigenvalues --  -10.21298 -10.21163 -10.21005 -10.20451 -10.20444
 Alpha  occ. eigenvalues --  -10.20176 -10.20063 -10.20048 -10.19988 -10.19913
 Alpha  occ. eigenvalues --  -10.19753 -10.19589 -10.18932 -10.18305 -10.17957
 Alpha  occ. eigenvalues --  -10.17755 -10.16891 -10.16801  -1.09886  -1.08177
 Alpha  occ. eigenvalues --   -1.05007  -1.02029  -1.00354  -1.00041  -0.99086
 Alpha  occ. eigenvalues --   -0.97340  -0.94736  -0.91428  -0.83887  -0.82487
 Alpha  occ. eigenvalues --   -0.80436  -0.80388  -0.80180  -0.79542  -0.77989
 Alpha  occ. eigenvalues --   -0.76355  -0.75787  -0.74186  -0.73372  -0.73258
 Alpha  occ. eigenvalues --   -0.70728  -0.70351  -0.69977  -0.69191  -0.67675
 Alpha  occ. eigenvalues --   -0.66583  -0.65613  -0.62663  -0.62199  -0.61278
 Alpha  occ. eigenvalues --   -0.59486  -0.58336  -0.57735  -0.57611  -0.57166
 Alpha  occ. eigenvalues --   -0.56264  -0.55066  -0.54626  -0.53674  -0.53423
 Alpha  occ. eigenvalues --   -0.52343  -0.51643  -0.50862  -0.50424  -0.50119
 Alpha  occ. eigenvalues --   -0.49309  -0.48863  -0.48755  -0.47902  -0.47857
 Alpha  occ. eigenvalues --   -0.47450  -0.47119  -0.46600  -0.45894  -0.45557
 Alpha  occ. eigenvalues --   -0.45126  -0.44824  -0.44506  -0.44043  -0.43781
 Alpha  occ. eigenvalues --   -0.43396  -0.43128  -0.42899  -0.42493  -0.42295
 Alpha  occ. eigenvalues --   -0.42120  -0.41652  -0.41495  -0.41051  -0.40785
 Alpha  occ. eigenvalues --   -0.40350  -0.40190  -0.39728  -0.39664  -0.39531
 Alpha  occ. eigenvalues --   -0.39388  -0.38654  -0.38386  -0.38124  -0.38039
 Alpha  occ. eigenvalues --   -0.37747  -0.37427  -0.37198  -0.36745  -0.36505
 Alpha  occ. eigenvalues --   -0.36427  -0.36060  -0.35133  -0.34676  -0.34406
 Alpha  occ. eigenvalues --   -0.34237  -0.33342  -0.32426  -0.31799  -0.31325
 Alpha  occ. eigenvalues --   -0.31057  -0.30013  -0.29523  -0.29265  -0.29003
 Alpha  occ. eigenvalues --   -0.27898  -0.26745  -0.25587  -0.24593  -0.23537
 Alpha  occ. eigenvalues --   -0.23177  -0.23003  -0.22791  -0.22314  -0.19170
 Alpha virt. eigenvalues --   -0.12167  -0.07744  -0.03660  -0.03163  -0.02303
 Alpha virt. eigenvalues --    0.00181   0.00981   0.01929   0.02106   0.02821
 Alpha virt. eigenvalues --    0.03598   0.04224   0.04500   0.05258   0.05506

 Mulliken charges:
               1
     1  O   -0.296059
     2  O   -0.254445
     3  O   -0.218142
     4  O   -0.199477
     5  O   -0.257509
     6  O   -0.186053
     7  N   -0.064564
     8  N   -0.128794
     9  N    0.003244
    10  N   -0.304907
    11  C   -0.081274
    12  C    0.265712
    13  C   -0.110540
    14  C   -0.158627
    15  C   -0.037750
    16  C   -0.027010
    17  C   -0.174908
    18  C    0.076480
    19  C   -0.050697
    20  C    0.036100
    21  C    0.129775
    22  C    0.087365
    23  C   -0.078088
    24  C    0.142508
    25  C    0.171164
    26  C   -0.106338
    27  C   -0.054439
    28  C   -0.050102
    29  C    0.088512
    30  C    0.055560
    31  C   -0.022095
    32  C    0.155190
    33  C   -0.086529
    34  C    0.156073
    35  C    0.104422
    36  C   -0.100078
    37  C    0.167509
    38  C    0.039506
    39  C   -0.242336
    40  C    0.178089
    41  C   -0.017898
    42  C    0.117692
    43  C   -0.053830
    44  H    0.118537
    45  H   -0.031834
    46  H   -0.044489
    47  H    0.173636
    48  H    0.138640
    49  H    0.031821
    50  H   -0.000435
    51  H   -0.139850
    52  H    0.017968
    53  H   -0.000051
    54  H    0.016581
    55  H    0.019510
    56  H    0.022172
    57  H   -0.025828
    58  H    0.007192
    59  H    0.046681
    60  H    0.168636
    61  H    0.043047
    62  H    0.029896
    63  H   -0.003254
    64  H    0.026231
    65  H    0.054201
    66  H   -0.010512
    67  H    0.005903
    68  H    0.025097
    69  H    0.017669
    70  H    0.038999
    71  H    0.055171
    72  H    0.226848
    73  H   -0.008666
    74  H    0.025966
    75  H    0.016443
    76  H    0.049585
    77  H    0.204259
    78  H    0.038719
    79  H    0.033098
 Sum of Mulliken charges =  -0.00000

 Dipole moment (field-independent basis, Debye):
    X=              4.4198    Y=              2.6838    Z=              0.0500  Tot=              5.1711
 Quadrupole moment (field-independent basis, Debye-Ang):
   XX=           -221.3776   YY=           -240.0601   ZZ=           -272.9166
   XY=              4.1412   XZ=            -20.6933   YZ=            -18.5103

 Normal termination of Gaussian 16 at Tue Jul 30 14:31:07 2019.
