 Gaussian 16, Revision A.03,
 Gaussian 16:  ES64L-G16RevA.03 25-Dec-2016

 --------------------------
 # td=(NStates=1) B3LYP/SVP
 --------------------------

 --
 TD
 --
 Symbolic Z-matrix:
 Charge =  0 Multiplicity = 1

                         Standard orientation:
 ---------------------------------------------------------------------
 Center     Atomic      Atomic             Coordinates (Angstroms)
 Number     Number       Type             X           Y           Z
 ---------------------------------------------------------------------
      1          8           0       -3.277105   -0.739957   -3.054022
      2          8           0        3.072290    2.454722    3.751025
      3          8           0        3.818759    0.395108    4.464829
      4          8           0        7.679476   -1.215787   -0.890229
      5          8           0        6.714304   -2.294602   -2.607784
      6          8           0       -2.693678    1.338876    1.699640
      7          7           0       -0.187825   -2.617470    0.485657
      8          7           0       -2.698099   -1.017600   -0.817760
      9          7           0        1.104616    0.142186   -0.744954
     10          7           0       -1.153907    1.525267   -0.035379
     11          6           0       -3.316572   -1.514635    0.371422
     12          6           0       -2.512407   -2.719467    1.196465
     13          6           0       -1.067324   -2.522129    1.352336
     14          6           0       -0.495238   -1.823323    2.616688
     15          6           0        0.892000   -1.611128    2.260345
     16          6           0        1.054669   -2.050843    0.878801
     17          6           0       -4.707852   -1.856327   -0.036699
     18          6           0        2.089058   -1.005459    2.973868
     19          6           0       -4.784658   -1.808700   -1.378657
     20          6           0        2.027101   -2.011111   -0.172201
     21          6           0        2.088128   -0.810552   -0.933514
     22          6           0       -3.517764   -1.088861   -1.928441
     23          6           0        2.940663   -0.293347   -1.976861
     24          6           0       -1.151502   -1.458204    3.866991
     25          6           0       -5.732317   -2.335727    1.004598
     26          6           0        2.452016    0.927505   -2.423785
     27          6           0        1.956825    0.479286    2.863112
     28          6           0        1.267144    1.308969   -1.656343
     29          6           0        4.214151   -0.965086   -2.381340
     30          6           0       -5.866832   -2.080522   -2.335142
     31          6           0        5.386999   -0.731980   -1.342670
     32          6           0        3.127901    1.711852   -3.470000
     33          6           0        0.413657    2.394269   -1.625148
     34          6           0        3.078923    1.076208    3.739540
     35          6           0       -0.647672    2.499803   -0.715195
     36          6           0       -6.804570   -3.037789   -2.227807
     37          6           0        6.647583   -1.471681   -1.731406
     38          6           0       -1.464899    3.766896   -0.557675
     39          6           0       -2.385232    3.401488    0.472057
     40          6           0       -2.188447    1.976941    0.804050
     41          6           0       -1.383023    4.972353   -1.299720
     42          6           0       -3.397612    4.149856    1.144641
     43          6           0       -2.278503    6.049832   -1.170168
     44          1           0       -3.296982   -0.550336    1.062764
     45          1           0       -2.689778   -3.581597    0.785957
     46          1           0       -3.117131   -2.782992    2.071297
     47          1           0       -0.241706   -2.970853   -0.465540
     48          1           0       -2.052153   -0.209542   -0.823337
     49          1           0        2.120322   -1.491483    3.958239
     50          1           0        2.932011   -1.549226    2.258488
     51          1           0        2.952043   -2.514850    0.079098
     52          1           0       -2.038396   -2.092934    4.088385
     53          1           0       -0.433256   -1.450274    4.612020
     54          1           0       -1.564978   -0.406999    3.651485
     55          1           0       -5.752284   -1.584703    1.902593
     56          1           0       -5.611068   -3.278700    1.275567
     57          1           0       -6.675214   -2.420077    0.319538
     58          1           0        1.996900    0.843836    1.802895
     59          1           0        1.041123    0.859076    3.234711
     60          1           0        0.293097    0.156279   -0.030132
     61          1           0        4.314540   -0.403149   -3.297592
     62          1           0        4.139822   -1.996995   -2.570938
     63          1           0       -5.773357   -1.481540   -3.127903
     64          1           0        5.069203   -1.034970   -0.297403
     65          1           0        5.694138    0.328286   -1.218794
     66          1           0        3.871133    1.066312   -3.979823
     67          1           0        3.282969    2.770484   -3.188038
     68          1           0        2.329543    2.008898   -4.421589
     69          1           0        0.645447    3.129699   -2.363911
     70          1           0       -6.879509   -3.670079   -1.209349
     71          1           0       -7.466154   -3.001937   -2.886275
     72          1           0        3.649267    2.798120    4.491244
     73          1           0       -0.678783    5.062883   -1.991895
     74          1           0       -4.070206    4.505311    0.286786
     75          1           0       -3.957599    3.498647    1.994940
     76          1           0       -3.112489    5.078316    1.779625
     77          1           0        8.577245   -1.394905   -1.394037
     78          1           0       -1.871814    6.950431   -2.045850
     79          1           0       -3.198168    5.967671   -0.556695
 ---------------------------------------------------------------------

 SCF Done:  E(RB3LYP) =  -1947.80400055     A.U. after   19 cycles

 Excitation energies and oscillator strengths:

 Excited State   1:      Singlet-A      0.6731 eV 1841.93 nm  f=0.0203  <S**2>=0.000
     155 ->156         0.71181
     155 <-156        -0.10990
 This state for optimization and/or second-order correction.
 Total Energy, E(TD-HF/TD-DFT) =  -1947.77926381
 Copying the excited state density for this state as the 1-particle RhoCI density.

 The electronic state is 1-A.
 Alpha  occ. eigenvalues --  -19.18986 -19.18228 -19.13473 -19.13425 -19.12621
 Alpha  occ. eigenvalues --  -19.08527 -14.37663 -14.36833 -14.32025 -14.30934
 Alpha  occ. eigenvalues --  -10.32809 -10.32165 -10.28718 -10.26834 -10.26233
 Alpha  occ. eigenvalues --  -10.25412 -10.25226 -10.23176 -10.22888 -10.22713
 Alpha  occ. eigenvalues --  -10.22670 -10.22159 -10.22143 -10.21788 -10.21242
 Alpha  occ. eigenvalues --  -10.21211 -10.21163 -10.21131 -10.21088 -10.21039
 Alpha  occ. eigenvalues --  -10.20957 -10.20588 -10.20228 -10.20014 -10.19726
 Alpha  occ. eigenvalues --  -10.19482 -10.18553 -10.18332 -10.17817 -10.17776
 Alpha  occ. eigenvalues --  -10.17755 -10.17731 -10.17571  -1.09628  -1.07549
 Alpha  occ. eigenvalues --   -1.04700  -1.01123  -1.00941  -0.99167  -0.99099
 Alpha  occ. eigenvalues --   -0.96648  -0.94763  -0.91875  -0.83511  -0.82362
 Alpha  occ. eigenvalues --   -0.81779  -0.80813  -0.80011  -0.78648  -0.78221
 Alpha  occ. eigenvalues --   -0.76706  -0.76218  -0.75845  -0.74275  -0.72902
 Alpha  occ. eigenvalues --   -0.70612  -0.70019  -0.69620  -0.69403  -0.67712
 Alpha  occ. eigenvalues --   -0.66433  -0.65959  -0.64147  -0.61392  -0.60184
 Alpha  occ. eigenvalues --   -0.59957  -0.59767  -0.59275  -0.57514  -0.56102
 Alpha  occ. eigenvalues --   -0.55912  -0.55586  -0.55114  -0.53649  -0.53122
 Alpha  occ. eigenvalues --   -0.51932  -0.51472  -0.50694  -0.50225  -0.49803
 Alpha  occ. eigenvalues --   -0.48973  -0.48800  -0.48361  -0.48065  -0.47611
 Alpha  occ. eigenvalues --   -0.47456  -0.47246  -0.46887  -0.46690  -0.45905
 Alpha  occ. eigenvalues --   -0.45311  -0.45113  -0.44536  -0.44142  -0.43991
 Alpha  occ. eigenvalues --   -0.43611  -0.43124  -0.42733  -0.42563  -0.41968
 Alpha  occ. eigenvalues --   -0.41712  -0.41337  -0.41160  -0.40978  -0.40908
 Alpha  occ. eigenvalues --   -0.40799  -0.40718  -0.40504  -0.40177  -0.39808
 Alpha  occ. eigenvalues --   -0.39704  -0.39079  -0.39038  -0.38728  -0.38262
 Alpha  occ. eigenvalues --   -0.37706  -0.37538  -0.37259  -0.37119  -0.36914
 Alpha  occ. eigenvalues --   -0.36604  -0.36112  -0.35727  -0.35538  -0.35308
 Alpha  occ. eigenvalues --   -0.34017  -0.33071  -0.32880  -0.32049  -0.31852
 Alpha  occ. eigenvalues --   -0.30992  -0.29909  -0.29485  -0.29181  -0.28925
 Alpha  occ. eigenvalues --   -0.27973  -0.26453  -0.25990  -0.23869  -0.23740
 Alpha  occ. eigenvalues --   -0.23425  -0.23022  -0.22587  -0.22152  -0.17492
 Alpha virt. eigenvalues --   -0.13179  -0.08606  -0.03527  -0.02689  -0.01223
 Alpha virt. eigenvalues --   -0.00495   0.02026   0.02372   0.02429   0.03072
 Alpha virt. eigenvalues --    0.03235   0.03370   0.03912   0.04244   0.05148

 Mulliken charges:
               1
     1  O   -0.217738
     2  O   -0.222801
     3  O   -0.248171
     4  O   -0.234226
     5  O   -0.209462
     6  O   -0.181170
     7  N    0.071609
     8  N   -0.213996
     9  N   -0.218065
    10  N   -0.271205
    11  C    0.031330
    12  C    0.309523
    13  C   -0.144308
    14  C   -0.202733
    15  C   -0.119159
    16  C   -0.079644
    17  C   -0.181990
    18  C    0.087559
    19  C   -0.109367
    20  C   -0.093679
    21  C    0.114278
    22  C    0.126262
    23  C   -0.122771
    24  C    0.119963
    25  C    0.100607
    26  C   -0.081752
    27  C    0.035695
    28  C    0.135752
    29  C    0.191677
    30  C    0.016483
    31  C   -0.031855
    32  C    0.037066
    33  C   -0.083422
    34  C    0.165128
    35  C    0.129859
    36  C    0.065293
    37  C    0.140151
    38  C    0.063707
    39  C   -0.173486
    40  C    0.181282
    41  C    0.016278
    42  C   -0.036883
    43  C   -0.059495
    44  H    0.065978
    45  H   -0.083258
    46  H   -0.032405
    47  H    0.117524
    48  H    0.142506
    49  H    0.028590
    50  H    0.024362
    51  H    0.007509
    52  H    0.007284
    53  H   -0.005920
    54  H    0.044533
    55  H    0.050393
    56  H   -0.004670
    57  H    0.029306
    58  H    0.043196
    59  H    0.031829
    60  H    0.206578
    61  H   -0.016347
    62  H    0.016447
    63  H   -0.042199
    64  H    0.061450
    65  H    0.032941
    66  H    0.039178
    67  H    0.036697
    68  H    0.034047
    69  H   -0.034094
    70  H    0.035373
    71  H   -0.050565
    72  H    0.196402
    73  H   -0.070099
    74  H    0.058016
    75  H    0.054314
    76  H    0.051931
    77  H    0.223204
    78  H    0.063977
    79  H    0.033866
 Sum of Mulliken charges =  -0.00000

 Dipole moment (field-independent basis, Debye):
    X=              2.9589    Y=              4.2074    Z=              0.2206  Tot=              5.1484
 Quadrupole moment (field-independent basis, Debye-Ang):
   XX=           -237.0679   YY=           -235.5654   ZZ=           -266.2161
   XY=             13.3008   XZ=            -22.3930   YZ=             -8.0746

 Normal termination of Gaussian 16 at Thu Jul 25 06:57:26 2019.
