 Gaussian 16, Revision A.03,
 Gaussian 16:  ES64L-G16RevA.03 25-Dec-2016

 --------------------------
 # td=(NStates=1) B3LYP/SVP
 --------------------------

 --
 TD
 --
 Symbolic Z-matrix:
 Charge =  0 Multiplicity = 1

                         Standard orientation:
 ---------------------------------------------------------------------
 Center     Atomic      Atomic             Coordinates (Angstroms)
 Number     Number       Type             X           Y           Z
 ---------------------------------------------------------------------
      1          8           0        5.410778   -0.012401   -3.315096
      2          8           0       -3.068300   -2.862610    3.186975
      3          8           0       -3.365670   -0.638253    2.882353
      4          8           0       -2.297944    6.984243    1.368910
      5          8           0       -1.034217    6.998753   -0.539324
      6          8           0       -1.211306   -3.954970    0.205821
      7          7           0        2.220443    1.273790    0.660792
      8          7           0        4.305347   -0.352116   -1.254282
      9          7           0       -1.933376    0.559747   -0.473636
     10          7           0       -2.279734   -1.977911   -0.468449
     11          6           0        4.724506   -0.834766   -0.009537
     12          6           0        4.349566    0.122452    1.210222
     13          6           0        2.892613    0.336524    1.458614
     14          6           0        1.872632   -0.266918    2.232154
     15          6           0        0.622118    0.226470    1.845246
     16          6           0        0.807893    1.151531    0.784094
     17          6           0        6.217573   -0.985007   -0.116481
     18          6           0       -0.590889   -0.090710    2.567241
     19          6           0        6.677906   -0.697563   -1.364053
     20          6           0        0.041030    2.032940    0.112984
     21          6           0       -1.298451    1.782203   -0.386057
     22          6           0        5.404952   -0.212520   -2.131539
     23          6           0       -2.205140    2.766998   -1.039661
     24          6           0        2.172151   -1.187449    3.368225
     25          6           0        7.047867   -1.590772    1.172327
     26          6           0       -3.261738    2.107131   -1.513493
     27          6           0       -1.095368   -1.502814    2.706810
     28          6           0       -3.071993    0.623933   -1.227525
     29          6           0       -1.855509    4.211701   -1.119499
     30          6           0        8.018299   -0.722858   -1.905492
     31          6           0       -2.359614    4.906733    0.137129
     32          6           0       -4.477586    2.708821   -2.212818
     33          6           0       -3.826549   -0.407866   -1.487591
     34          6           0       -2.622025   -1.545246    3.065834
     35          6           0       -3.365504   -1.714444   -1.161530
     36          6           0        9.270006   -0.830547   -1.309354
     37          6           0       -1.815734    6.396802    0.208676
     38          6           0       -4.232125   -3.007921   -1.487604
     39          6           0       -3.356045   -4.078927   -0.997934
     40          6           0       -2.174727   -3.353330   -0.377418
     41          6           0       -5.541871   -3.002893   -1.946848
     42          6           0       -3.488103   -5.542849   -0.926170
     43          6           0       -6.238798   -4.233354   -2.262389
     44          1           0        4.350611   -1.954034    0.054275
     45          1           0        4.990526    0.968358    0.723985
     46          1           0        4.697595   -0.421494    2.020316
     47          1           0        2.713032    1.734322   -0.083500
     48          1           0        3.354599   -0.442546   -1.629739
     49          1           0       -0.349498    0.490602    3.426189
     50          1           0       -1.620915    0.563812    2.104058
     51          1           0        0.201210    3.213753    0.037486
     52          1           0        3.507764   -1.269040    3.505778
     53          1           0        1.821762   -0.865311    4.167386
     54          1           0        1.751025   -2.321227    3.283066
     55          1           0        6.345826   -2.017200    1.950941
     56          1           0        7.869272   -0.634357    1.330422
     57          1           0        7.781543   -2.566222    0.747432
     58          1           0       -0.728279   -2.105869    1.776723
     59          1           0       -0.735559   -2.138761    3.633259
     60          1           0       -1.357938   -0.368618   -0.287962
     61          1           0       -2.174791    4.701667   -2.075117
     62          1           0       -0.814208    4.469626   -0.956560
     63          1           0        8.159429   -0.799194   -3.089026
     64          1           0       -2.179223    4.516767    1.007940
     65          1           0       -3.340269    4.861873    0.281279
     66          1           0       -4.131374    3.709318   -2.955088
     67          1           0       -5.357597    2.986248   -1.553696
     68          1           0       -4.909810    1.926728   -2.980184
     69          1           0       -4.799040   -0.169745   -1.979730
     70          1           0        9.535613   -1.062052   -0.308348
     71          1           0       10.086953   -0.836258   -1.923191
     72          1           0       -4.016940   -2.812534    3.357129
     73          1           0       -6.026215   -1.880492   -2.084264
     74          1           0       -4.517837   -5.970673   -0.396329
     75          1           0       -3.670790   -6.001354   -1.986347
     76          1           0       -2.555810   -5.944840   -0.524121
     77          1           0       -1.923436    7.897225    1.301288
     78          1           0       -7.178547   -4.232855   -2.647636
     79          1           0       -5.882223   -5.261203   -2.135588
 ---------------------------------------------------------------------

 SCF Done:  E(RB3LYP) =  -1947.75212570     A.U. after   17 cycles

 Excitation energies and oscillator strengths:

 Excited State   1:      Singlet-A      1.9295 eV  642.58 nm  f=0.3732  <S**2>=0.000
     154 ->156         0.10384
     155 ->156         0.69722
     155 <-156        -0.10188
 This state for optimization and/or second-order correction.
 Total Energy, E(TD-HF/TD-DFT) =  -1947.68121871
 Copying the excited state density for this state as the 1-particle RhoCI density.

 The electronic state is 1-A.
 Alpha  occ. eigenvalues --  -19.19061 -19.16761 -19.14609 -19.12813 -19.10651
 Alpha  occ. eigenvalues --  -19.10384 -14.37546 -14.36269 -14.35918 -14.30282
 Alpha  occ. eigenvalues --  -10.33749 -10.31414 -10.29317 -10.27115 -10.25359
 Alpha  occ. eigenvalues --  -10.25019 -10.24527 -10.24283 -10.24156 -10.23485
 Alpha  occ. eigenvalues --  -10.23168 -10.22756 -10.22701 -10.22657 -10.22319
 Alpha  occ. eigenvalues --  -10.21921 -10.21726 -10.21195 -10.21168 -10.21101
 Alpha  occ. eigenvalues --  -10.20944 -10.20901 -10.20855 -10.20755 -10.20603
 Alpha  occ. eigenvalues --  -10.20455 -10.20441 -10.20092 -10.19586 -10.19520
 Alpha  occ. eigenvalues --  -10.19359 -10.19223 -10.18913  -1.09173  -1.08383
 Alpha  occ. eigenvalues --   -1.03423  -1.00427  -1.00273  -0.99140  -0.97728
 Alpha  occ. eigenvalues --   -0.97064  -0.95152  -0.91991  -0.83630  -0.82285
 Alpha  occ. eigenvalues --   -0.81509  -0.81244  -0.80006  -0.79657  -0.78636
 Alpha  occ. eigenvalues --   -0.76907  -0.75862  -0.74675  -0.74264  -0.72038
 Alpha  occ. eigenvalues --   -0.70854  -0.69589  -0.68855  -0.67955  -0.67749
 Alpha  occ. eigenvalues --   -0.66976  -0.65771  -0.63973  -0.62018  -0.61173
 Alpha  occ. eigenvalues --   -0.60317  -0.59681  -0.58346  -0.57215  -0.56821
 Alpha  occ. eigenvalues --   -0.56321  -0.55666  -0.54571  -0.53667  -0.52762
 Alpha  occ. eigenvalues --   -0.52170  -0.51830  -0.51062  -0.50238  -0.49480
 Alpha  occ. eigenvalues --   -0.49021  -0.48732  -0.48124  -0.47506  -0.47450
 Alpha  occ. eigenvalues --   -0.47362  -0.46871  -0.46113  -0.45404  -0.45161
 Alpha  occ. eigenvalues --   -0.45055  -0.44616  -0.43885  -0.43686  -0.43378
 Alpha  occ. eigenvalues --   -0.43083  -0.42834  -0.42752  -0.42624  -0.42239
 Alpha  occ. eigenvalues --   -0.42066  -0.41946  -0.41492  -0.41187  -0.40901
 Alpha  occ. eigenvalues --   -0.40786  -0.40739  -0.40537  -0.40266  -0.39876
 Alpha  occ. eigenvalues --   -0.39544  -0.39011  -0.38718  -0.38204  -0.38048
 Alpha  occ. eigenvalues --   -0.37646  -0.37346  -0.37133  -0.36758  -0.36619
 Alpha  occ. eigenvalues --   -0.35913  -0.35661  -0.35345  -0.35045  -0.34908
 Alpha  occ. eigenvalues --   -0.34480  -0.33448  -0.33103  -0.31860  -0.31217
 Alpha  occ. eigenvalues --   -0.31031  -0.30753  -0.29734  -0.28458  -0.27733
 Alpha  occ. eigenvalues --   -0.27488  -0.26815  -0.26316  -0.25709  -0.24766
 Alpha  occ. eigenvalues --   -0.24454  -0.24286  -0.23842  -0.21348  -0.18637
 Alpha virt. eigenvalues --   -0.11016  -0.07127  -0.05890  -0.02159  -0.01490
 Alpha virt. eigenvalues --   -0.00396  -0.00128   0.00271   0.01671   0.02573
 Alpha virt. eigenvalues --    0.03676   0.03964   0.04248   0.04995   0.05112

 Mulliken charges:
               1
     1  O   -0.190628
     2  O   -0.209976
     3  O   -0.194331
     4  O   -0.209705
     5  O   -0.244372
     6  O   -0.264173
     7  N   -0.117435
     8  N   -0.207296
     9  N   -0.118054
    10  N   -0.233398
    11  C    0.044052
    12  C    0.218665
    13  C   -0.053014
    14  C   -0.126291
    15  C   -0.037145
    16  C    0.153641
    17  C   -0.189219
    18  C   -0.020578
    19  C    0.010541
    20  C   -0.137383
    21  C   -0.019062
    22  C    0.146969
    23  C   -0.060023
    24  C    0.097560
    25  C   -0.060549
    26  C   -0.090803
    27  C   -0.057136
    28  C    0.136745
    29  C    0.125152
    30  C   -0.076796
    31  C    0.113673
    32  C   -0.033007
    33  C   -0.147933
    34  C    0.159401
    35  C    0.093238
    36  C   -0.010271
    37  C    0.160335
    38  C    0.039721
    39  C   -0.150157
    40  C    0.175469
    41  C   -0.091874
    42  C    0.013579
    43  C   -0.002673
    44  H    0.040687
    45  H    0.026093
    46  H   -0.048368
    47  H    0.104513
    48  H    0.142767
    49  H    0.010115
    50  H    0.067013
    51  H    0.031097
    52  H    0.017908
    53  H   -0.045542
    54  H    0.052734
    55  H    0.060862
    56  H    0.087147
    57  H    0.070561
    58  H    0.108446
    59  H    0.031619
    60  H    0.204189
    61  H    0.029378
    62  H    0.004974
    63  H    0.046676
    64  H   -0.027775
    65  H   -0.026066
    66  H    0.050346
    67  H    0.056393
    68  H    0.038585
    69  H   -0.022856
    70  H   -0.000441
    71  H    0.004908
    72  H    0.170934
    73  H    0.043435
    74  H    0.047207
    75  H    0.037640
    76  H    0.039819
    77  H    0.184454
    78  H   -0.000544
    79  H    0.025636
 Sum of Mulliken charges =  -0.00000

 Dipole moment (field-independent basis, Debye):
    X=             -1.4415    Y=              1.4836    Z=              2.8133  Tot=              3.4920
 Quadrupole moment (field-independent basis, Debye-Ang):
   XX=           -220.9376   YY=           -250.8810   ZZ=           -261.6521
   XY=             -7.2174   XZ=             27.6267   YZ=              5.7925

 Normal termination of Gaussian 16 at Mon Oct  7 07:41:09 2019.
