 Gaussian 16, Revision A.03,
 Gaussian 16:  ES64L-G16RevA.03 25-Dec-2016

 --------------------------
 # td=(NStates=1) B3LYP/SVP
 --------------------------

 --
 TD
 --
 Symbolic Z-matrix:
 Charge =  0 Multiplicity = 1

                         Standard orientation:
 ---------------------------------------------------------------------
 Center     Atomic      Atomic             Coordinates (Angstroms)
 Number     Number       Type             X           Y           Z
 ---------------------------------------------------------------------
      1          8           0        5.303986   -0.190902   -3.267705
      2          8           0       -3.317331   -2.873995    2.922969
      3          8           0       -3.382670   -0.667693    2.891051
      4          8           0       -1.610107    7.244276    1.426415
      5          8           0       -0.738151    7.072638   -0.709084
      6          8           0       -1.470668   -3.951728    0.017946
      7          7           0        2.309234    0.869417    0.549505
      8          7           0        4.338575   -0.592018   -1.224328
      9          7           0       -1.854549    0.670719   -0.390597
     10          7           0       -2.501975   -1.866429   -0.394333
     11          6           0        4.732405   -1.019221    0.065313
     12          6           0        4.398404   -0.265285    1.262803
     13          6           0        2.938672   -0.021095    1.379083
     14          6           0        1.963575   -0.551068    2.255770
     15          6           0        0.713934    0.013717    1.930292
     16          6           0        0.935401    1.033806    0.858166
     17          6           0        6.299784   -1.176358   -0.152606
     18          6           0       -0.646934   -0.156590    2.696435
     19          6           0        6.597100   -0.824200   -1.363652
     20          6           0        0.183592    1.965416    0.154697
     21          6           0       -1.154866    1.824415   -0.311329
     22          6           0        5.457925   -0.458971   -2.102822
     23          6           0       -1.968776    2.895149   -1.027550
     24          6           0        2.109290   -1.569994    3.226379
     25          6           0        7.143613   -1.803336    0.993601
     26          6           0       -3.168321    2.318210   -1.261386
     27          6           0       -1.200247   -1.555574    2.557936
     28          6           0       -3.026016    0.892239   -1.039703
     29          6           0       -1.570463    4.361256   -1.014165
     30          6           0        7.943644   -0.839904   -2.025346
     31          6           0       -1.778240    5.126257    0.331418
     32          6           0       -4.448926    2.861894   -1.887844
     33          6           0       -3.897418   -0.227866   -1.298528
     34          6           0       -2.723319   -1.622975    2.890292
     35          6           0       -3.653073   -1.577526   -1.012711
     36          6           0        9.179297   -0.720348   -1.418942
     37          6           0       -1.393379    6.604608    0.208885
     38          6           0       -4.490266   -2.740504   -1.431452
     39          6           0       -3.721443   -3.833172   -1.056098
     40          6           0       -2.413005   -3.376247   -0.380748
     41          6           0       -5.767561   -2.631025   -2.042249
     42          6           0       -3.981200   -5.306119   -1.121504
     43          6           0       -6.606138   -3.590315   -2.494817
     44          1           0        4.450525   -2.245813    0.290490
     45          1           0        4.980928    0.601431    1.447088
     46          1           0        4.659547   -0.847479    2.083942
     47          1           0        2.650788    1.521930   -0.286367
     48          1           0        3.383153   -0.901565   -1.725740
     49          1           0       -0.482539    0.188575    3.723541
     50          1           0       -1.238059    0.530469    2.192316
     51          1           0        0.649116    2.897309   -0.185120
     52          1           0        3.125662   -1.816726    3.751505
     53          1           0        1.511913   -1.498041    4.073425
     54          1           0        1.639374   -2.567970    3.001318
     55          1           0        6.468377   -2.626845    1.457133
     56          1           0        7.390407   -1.131993    1.841258
     57          1           0        8.151785   -2.222349    0.463330
     58          1           0       -1.001031   -2.062839    1.562038
     59          1           0       -0.658382   -2.385626    3.213212
     60          1           0       -1.627989   -0.349121   -0.082051
     61          1           0       -2.105311    4.802729   -1.933631
     62          1           0       -0.493030    4.415537   -1.387999
     63          1           0        7.953972   -1.156425   -3.156363
     64          1           0       -1.179548    4.707342    1.227682
     65          1           0       -2.811832    5.204303    0.836449
     66          1           0       -4.456514    3.952207   -1.781017
     67          1           0       -5.289209    2.474379   -1.424226
     68          1           0       -4.413884    2.483528   -3.126320
     69          1           0       -4.727988    0.003024   -1.811380
     70          1           0        9.103828   -0.953977   -0.330795
     71          1           0       10.245590   -0.685178   -1.826125
     72          1           0       -4.148196   -2.654541    3.501358
     73          1           0       -6.239726   -1.504228   -2.143921
     74          1           0       -4.940017   -5.602683   -0.614478
     75          1           0       -4.168913   -5.500680   -2.161915
     76          1           0       -3.174909   -5.990881   -0.853973
     77          1           0       -1.506644    8.216202    1.137400
     78          1           0       -7.598706   -3.330945   -2.765320
     79          1           0       -6.344286   -4.771277   -2.446917
 ---------------------------------------------------------------------

 SCF Done:  E(RB3LYP) =  -1947.87558641     A.U. after   17 cycles

 Excitation energies and oscillator strengths:

 Excited State   1:      Singlet-A      1.9341 eV  641.06 nm  f=0.4331  <S**2>=0.000
     155 ->156         0.70058
     155 <-156        -0.12663
 This state for optimization and/or second-order correction.
 Total Energy, E(TD-HF/TD-DFT) =  -1947.80451115
 Copying the excited state density for this state as the 1-particle RhoCI density.

 The electronic state is 1-A.
 Alpha  occ. eigenvalues --  -19.19136 -19.16056 -19.14123 -19.11544 -19.11439
 Alpha  occ. eigenvalues --  -19.10543 -14.38678 -14.35723 -14.35136 -14.28105
 Alpha  occ. eigenvalues --  -10.33065 -10.30082 -10.28344 -10.26874 -10.25674
 Alpha  occ. eigenvalues --  -10.23937 -10.23707 -10.23266 -10.23212 -10.22955
 Alpha  occ. eigenvalues --  -10.22760 -10.22608 -10.22364 -10.22065 -10.21856
 Alpha  occ. eigenvalues --  -10.21339 -10.21224 -10.21120 -10.21004 -10.20742
 Alpha  occ. eigenvalues --  -10.20474 -10.20379 -10.20363 -10.20246 -10.20171
 Alpha  occ. eigenvalues --  -10.20139 -10.19749 -10.19713 -10.18953 -10.18813
 Alpha  occ. eigenvalues --  -10.18792 -10.18565 -10.17362  -1.08829  -1.08640
 Alpha  occ. eigenvalues --   -1.03910  -1.03467  -1.00801  -0.99071  -0.98063
 Alpha  occ. eigenvalues --   -0.96837  -0.93997  -0.89908  -0.82494  -0.81796
 Alpha  occ. eigenvalues --   -0.81714  -0.80738  -0.79943  -0.79266  -0.77188
 Alpha  occ. eigenvalues --   -0.76495  -0.75675  -0.74794  -0.73956  -0.72057
 Alpha  occ. eigenvalues --   -0.71365  -0.70463  -0.69563  -0.68558  -0.67668
 Alpha  occ. eigenvalues --   -0.65460  -0.65081  -0.63092  -0.60494  -0.60086
 Alpha  occ. eigenvalues --   -0.58553  -0.58264  -0.57405  -0.56892  -0.55990
 Alpha  occ. eigenvalues --   -0.55584  -0.55298  -0.54237  -0.53491  -0.52567
 Alpha  occ. eigenvalues --   -0.51063  -0.50992  -0.50550  -0.49744  -0.48952
 Alpha  occ. eigenvalues --   -0.48695  -0.48400  -0.48157  -0.47691  -0.47317
 Alpha  occ. eigenvalues --   -0.46657  -0.46321  -0.46069  -0.45567  -0.45329
 Alpha  occ. eigenvalues --   -0.44694  -0.44564  -0.44076  -0.44040  -0.43625
 Alpha  occ. eigenvalues --   -0.43092  -0.42843  -0.42600  -0.42440  -0.42288
 Alpha  occ. eigenvalues --   -0.42109  -0.41989  -0.41504  -0.41405  -0.41318
 Alpha  occ. eigenvalues --   -0.40874  -0.40600  -0.40051  -0.39920  -0.39818
 Alpha  occ. eigenvalues --   -0.39681  -0.39382  -0.39077  -0.38799  -0.38477
 Alpha  occ. eigenvalues --   -0.38129  -0.37925  -0.37683  -0.37165  -0.36668
 Alpha  occ. eigenvalues --   -0.36165  -0.35816  -0.35314  -0.34569  -0.34401
 Alpha  occ. eigenvalues --   -0.34153  -0.33147  -0.33087  -0.32522  -0.30793
 Alpha  occ. eigenvalues --   -0.30651  -0.30261  -0.29125  -0.28520  -0.28144
 Alpha  occ. eigenvalues --   -0.26833  -0.26446  -0.26063  -0.25933  -0.24996
 Alpha  occ. eigenvalues --   -0.24100  -0.23395  -0.23229  -0.21481  -0.17675
 Alpha virt. eigenvalues --   -0.10161  -0.06264  -0.05872  -0.01965  -0.01157
 Alpha virt. eigenvalues --    0.00010   0.01219   0.01792   0.02132   0.02767
 Alpha virt. eigenvalues --    0.03371   0.03780   0.03999   0.04749   0.05297

 Mulliken charges:
               1
     1  O   -0.189197
     2  O   -0.246336
     3  O   -0.176333
     4  O   -0.232853
     5  O   -0.224881
     6  O   -0.146821
     7  N   -0.136660
     8  N   -0.252682
     9  N   -0.061272
    10  N   -0.383233
    11  C   -0.024580
    12  C    0.357323
    13  C   -0.098641
    14  C   -0.048467
    15  C   -0.162290
    16  C    0.100872
    17  C   -0.157454
    18  C    0.217105
    19  C   -0.007073
    20  C   -0.103462
    21  C    0.031242
    22  C    0.127792
    23  C   -0.111685
    24  C    0.070856
    25  C    0.016962
    26  C   -0.121174
    27  C   -0.092040
    28  C    0.069580
    29  C    0.078576
    30  C   -0.052639
    31  C   -0.022765
    32  C    0.089352
    33  C   -0.045090
    34  C    0.140854
    35  C    0.114606
    36  C   -0.060804
    37  C    0.152707
    38  C    0.120789
    39  C   -0.234208
    40  C    0.190984
    41  C   -0.086396
    42  C    0.101876
    43  C   -0.059249
    44  H    0.037673
    45  H   -0.017300
    46  H   -0.063499
    47  H    0.163180
    48  H    0.176976
    49  H    0.015104
    50  H   -0.023182
    51  H   -0.014321
    52  H    0.012826
    53  H   -0.030688
    54  H    0.021644
    55  H    0.042310
    56  H    0.048761
    57  H    0.070099
    58  H    0.086180
    59  H    0.019909
    60  H    0.185992
    61  H    0.029439
    62  H    0.032225
    63  H    0.047334
    64  H    0.066588
    65  H    0.047419
    66  H    0.016695
    67  H    0.014905
    68  H    0.059489
    69  H   -0.110154
    70  H    0.008701
    71  H    0.054681
    72  H    0.197365
    73  H    0.032683
    74  H    0.034469
    75  H    0.014487
    76  H    0.021915
    77  H    0.199581
    78  H    0.015854
    79  H    0.041470
 Sum of Mulliken charges =  -0.00000

 Dipole moment (field-independent basis, Debye):
    X=              0.3790    Y=              1.4506    Z=              3.7230  Tot=              4.0135
 Quadrupole moment (field-independent basis, Debye-Ang):
   XX=           -217.2859   YY=           -242.8322   ZZ=           -259.2832
   XY=            -13.8334   XZ=             26.7649   YZ=              2.6812

 Normal termination of Gaussian 16 at Sun Sep 22 02:29:56 2019.
