 Gaussian 16, Revision A.03,
 Gaussian 16:  ES64L-G16RevA.03 25-Dec-2016

 --------------------------
 # td=(NStates=1) B3LYP/SVP
 --------------------------

 --
 TD
 --
 Symbolic Z-matrix:
 Charge =  0 Multiplicity = 1

                         Standard orientation:
 ---------------------------------------------------------------------
 Center     Atomic      Atomic             Coordinates (Angstroms)
 Number     Number       Type             X           Y           Z
 ---------------------------------------------------------------------
      1          8           0       -2.881029   -2.002994   -2.648120
      2          8           0        2.932926    3.843902    2.513631
      3          8           0        3.553058    2.285245    4.127137
      4          8           0        7.831101   -1.842229   -0.629547
      5          8           0        6.383190   -3.476263   -1.437582
      6          8           0       -2.710351    1.871807    1.162444
      7          7           0       -0.348159   -2.194476    1.351443
      8          7           0       -2.544333   -1.434929   -0.360712
      9          7           0        1.153163   -0.009863   -0.602886
     10          7           0       -1.063752    1.499219   -0.449334
     11          6           0       -3.330595   -1.176486    0.754846
     12          6           0       -2.709464   -2.033713    1.969757
     13          6           0       -1.267226   -1.634505    2.160516
     14          6           0       -0.663028   -0.621540    2.977701
     15          6           0        0.691429   -0.645253    2.634925
     16          6           0        0.808898   -1.532030    1.642720
     17          6           0       -4.648910   -1.909622    0.467074
     18          6           0        1.874263    0.259880    3.271420
     19          6           0       -4.649196   -2.261697   -0.840795
     20          6           0        2.024969   -1.771962    0.652742
     21          6           0        2.096038   -0.933226   -0.482236
     22          6           0       -3.225457   -1.944133   -1.466936
     23          6           0        3.082728   -0.864603   -1.489989
     24          6           0       -1.312433    0.193594    3.945790
     25          6           0       -5.849199   -1.825332    1.512798
     26          6           0        2.547933    0.055706   -2.383140
     27          6           0        1.845790    1.657034    2.667237
     28          6           0        1.372438    0.562959   -1.784209
     29          6           0        4.265581   -1.716919   -1.640922
     30          6           0       -5.650062   -2.891034   -1.723128
     31          6           0        5.520048   -1.206523   -0.971108
     32          6           0        3.090381    0.425547   -3.726995
     33          6           0        0.554796    1.617881   -2.158735
     34          6           0        2.829329    2.641761    3.150308
     35          6           0       -0.626521    2.006545   -1.608590
     36          6           0       -6.641672   -3.653927   -1.161333
     37          6           0        6.578319   -2.298185   -1.063448
     38          6           0       -1.465325    3.198962   -1.886768
     39          6           0       -2.390281    3.304751   -0.794560
     40          6           0       -2.074739    2.177620    0.171589
     41          6           0       -1.237458    4.057705   -3.052376
     42          6           0       -3.516899    4.194983   -0.509630
     43          6           0       -1.963689    5.207965   -3.359508
     44          1           0       -3.481044   -0.097480    1.191403
     45          1           0       -2.754555   -3.203564    1.553910
     46          1           0       -3.346762   -1.909430    2.661693
     47          1           0       -0.620968   -2.626417    0.444010
     48          1           0       -1.950701   -0.499291   -0.502023
     49          1           0        1.747143    0.357061    4.227354
     50          1           0        2.898185   -0.233363    3.027904
     51          1           0        2.919157   -2.552618    1.031415
     52          1           0       -1.890975   -0.384671    4.813473
     53          1           0       -0.838433    0.844314    4.663917
     54          1           0       -1.908574    1.043823    3.526090
     55          1           0       -5.591601   -1.098269    2.191082
     56          1           0       -5.649183   -2.773468    2.105790
     57          1           0       -6.772000   -1.778889    1.160093
     58          1           0        2.008047    1.746210    1.519364
     59          1           0        0.738782    1.889902    2.638010
     60          1           0        0.382174    0.164221    0.054524
     61          1           0        4.620594   -1.746887   -2.667468
     62          1           0        4.053960   -2.702689   -1.332282
     63          1           0       -5.470237   -2.792669   -2.780216
     64          1           0        5.255356   -0.808845    0.160745
     65          1           0        5.884265   -0.252553   -1.521153
     66          1           0        4.297852    0.210047   -3.712364
     67          1           0        2.910112    1.635854   -4.113354
     68          1           0        2.495302   -0.457217   -4.741778
     69          1           0        1.012965    2.163355   -2.989915
     70          1           0       -6.833718   -3.809982   -0.143978
     71          1           0       -7.274704   -4.260348   -1.730028
     72          1           0        3.835415    4.196107    2.562445
     73          1           0       -0.247304    3.965030   -3.684581
     74          1           0       -4.140857    4.259297   -1.514681
     75          1           0       -3.811876    3.606433    0.516289
     76          1           0       -3.125409    5.185048   -0.240096
     77          1           0        8.322108   -2.765036   -0.801748
     78          1           0       -1.737244    5.704329   -4.316293
     79          1           0       -2.949574    5.474056   -2.780949
 ---------------------------------------------------------------------

 SCF Done:  E(RB3LYP) =  -1947.74638624     A.U. after   20 cycles

 Excitation energies and oscillator strengths:

 Excited State   1:      Singlet-A      0.9607 eV 1290.55 nm  f=0.0008  <S**2>=0.000
     155 ->156         0.70344
 This state for optimization and/or second-order correction.
 Total Energy, E(TD-HF/TD-DFT) =  -1947.71108098
 Copying the excited state density for this state as the 1-particle RhoCI density.

 The electronic state is 1-A.
 Alpha  occ. eigenvalues --  -19.20779 -19.18850 -19.15971 -19.12649 -19.12057
 Alpha  occ. eigenvalues --  -19.09984 -14.38456 -14.36985 -14.33618 -14.29547
 Alpha  occ. eigenvalues --  -10.35141 -10.32510 -10.27974 -10.27857 -10.27318
 Alpha  occ. eigenvalues --  -10.26460 -10.25846 -10.25221 -10.25000 -10.24570
 Alpha  occ. eigenvalues --  -10.23514 -10.23467 -10.22106 -10.21976 -10.21765
 Alpha  occ. eigenvalues --  -10.21317 -10.21165 -10.20900 -10.20859 -10.20707
 Alpha  occ. eigenvalues --  -10.20502 -10.20297 -10.20287 -10.20263 -10.19655
 Alpha  occ. eigenvalues --  -10.19217 -10.19020 -10.18767 -10.18589 -10.17843
 Alpha  occ. eigenvalues --  -10.17716 -10.17599 -10.17084  -1.09404  -1.08333
 Alpha  occ. eigenvalues --   -1.03822  -1.03568  -1.00996  -1.00678  -0.98518
 Alpha  occ. eigenvalues --   -0.98313  -0.93520  -0.93116  -0.86018  -0.83234
 Alpha  occ. eigenvalues --   -0.80899  -0.80564  -0.79555  -0.79424  -0.77910
 Alpha  occ. eigenvalues --   -0.77141  -0.76453  -0.74931  -0.73970  -0.72362
 Alpha  occ. eigenvalues --   -0.70844  -0.70060  -0.69698  -0.69537  -0.67968
 Alpha  occ. eigenvalues --   -0.67263  -0.65858  -0.62867  -0.60443  -0.60320
 Alpha  occ. eigenvalues --   -0.60174  -0.59857  -0.58970  -0.58145  -0.57386
 Alpha  occ. eigenvalues --   -0.56443  -0.55598  -0.55358  -0.54097  -0.53064
 Alpha  occ. eigenvalues --   -0.52076  -0.51888  -0.51523  -0.50758  -0.50598
 Alpha  occ. eigenvalues --   -0.50228  -0.49551  -0.49268  -0.48077  -0.47935
 Alpha  occ. eigenvalues --   -0.47421  -0.46909  -0.46443  -0.46142  -0.45527
 Alpha  occ. eigenvalues --   -0.45408  -0.44882  -0.44645  -0.44146  -0.43933
 Alpha  occ. eigenvalues --   -0.43719  -0.43347  -0.43071  -0.42503  -0.42421
 Alpha  occ. eigenvalues --   -0.41968  -0.41928  -0.41575  -0.41135  -0.40998
 Alpha  occ. eigenvalues --   -0.40758  -0.40509  -0.40391  -0.40180  -0.39422
 Alpha  occ. eigenvalues --   -0.39184  -0.38896  -0.38737  -0.38506  -0.38362
 Alpha  occ. eigenvalues --   -0.37684  -0.37419  -0.37086  -0.36994  -0.36554
 Alpha  occ. eigenvalues --   -0.36402  -0.36147  -0.35754  -0.34607  -0.34176
 Alpha  occ. eigenvalues --   -0.34102  -0.33969  -0.32934  -0.31617  -0.31489
 Alpha  occ. eigenvalues --   -0.31084  -0.30811  -0.30058  -0.28968  -0.28324
 Alpha  occ. eigenvalues --   -0.28228  -0.27089  -0.25940  -0.25059  -0.24898
 Alpha  occ. eigenvalues --   -0.23889  -0.22789  -0.22220  -0.21674  -0.19299
 Alpha virt. eigenvalues --   -0.13210  -0.08186  -0.04365  -0.03729  -0.02444
 Alpha virt. eigenvalues --   -0.01675  -0.00770   0.00867   0.01099   0.02163
 Alpha virt. eigenvalues --    0.02575   0.02998   0.04112   0.04473   0.04792

 Mulliken charges:
               1
     1  O   -0.233989
     2  O   -0.194746
     3  O   -0.277547
     4  O   -0.241202
     5  O   -0.256308
     6  O   -0.221156
     7  N   -0.022484
     8  N   -0.238533
     9  N    0.013938
    10  N   -0.338721
    11  C   -0.054028
    12  C    0.218681
    13  C   -0.088266
    14  C   -0.051625
    15  C   -0.111885
    16  C   -0.124927
    17  C   -0.175218
    18  C    0.271263
    19  C   -0.107374
    20  C   -0.148388
    21  C    0.079666
    22  C    0.173060
    23  C   -0.036990
    24  C    0.006622
    25  C    0.199941
    26  C   -0.058215
    27  C   -0.093228
    28  C    0.111269
    29  C    0.140842
    30  C    0.022489
    31  C   -0.099408
    32  C   -0.122954
    33  C   -0.111460
    34  C    0.190733
    35  C    0.160198
    36  C   -0.001059
    37  C    0.209299
    38  C    0.055526
    39  C   -0.239066
    40  C    0.198217
    41  C   -0.074400
    42  C    0.014813
    43  C   -0.063834
    44  H    0.097494
    45  H    0.006872
    46  H   -0.097889
    47  H    0.146104
    48  H    0.181850
    49  H   -0.043750
    50  H    0.007336
    51  H    0.072599
    52  H    0.019044
    53  H   -0.023254
    54  H    0.031362
    55  H   -0.008591
    56  H    0.024770
    57  H   -0.001550
    58  H    0.026881
    59  H    0.061012
    60  H    0.187501
    61  H    0.006063
    62  H    0.024011
    63  H    0.003115
    64  H    0.083751
    65  H    0.057263
    66  H    0.059199
    67  H    0.080389
    68  H    0.077452
    69  H   -0.040486
    70  H   -0.002849
    71  H    0.001430
    72  H    0.193787
    73  H    0.027437
    74  H    0.067638
    75  H    0.067915
    76  H    0.038600
    77  H    0.217080
    78  H    0.031803
    79  H    0.039065
 Sum of Mulliken charges =  -0.00000

 Dipole moment (field-independent basis, Debye):
    X=              4.5819    Y=              1.9101    Z=             -2.2177  Tot=              5.4369
 Quadrupole moment (field-independent basis, Debye-Ang):
   XX=           -230.7974   YY=           -250.5811   ZZ=           -267.8213
   XY=              2.3718   XZ=            -26.3695   YZ=            -17.5134

 Normal termination of Gaussian 16 at Fri Jul 26 00:53:43 2019.
