 Gaussian 16, Revision A.03,
 Gaussian 16:  ES64L-G16RevA.03 25-Dec-2016

 --------------------------
 # td=(NStates=1) B3LYP/SVP
 --------------------------

 --
 TD
 --
 Symbolic Z-matrix:
 Charge =  0 Multiplicity = 1

                         Standard orientation:
 ---------------------------------------------------------------------
 Center     Atomic      Atomic             Coordinates (Angstroms)
 Number     Number       Type             X           Y           Z
 ---------------------------------------------------------------------
      1          8           0       -3.293588   -1.090953   -2.877268
      2          8           0        3.202155    2.996627    3.127153
      3          8           0        3.721283    1.056993    4.304538
      4          8           0        7.798619   -1.556235   -0.854948
      5          8           0        6.664038   -2.869532   -2.300435
      6          8           0       -2.685631    1.565520    1.422812
      7          7           0       -0.329122   -2.472869    0.787450
      8          7           0       -2.686919   -1.134449   -0.700456
      9          7           0        1.102378    0.056886   -0.620736
     10          7           0       -1.019883    1.527617   -0.154900
     11          6           0       -3.368179   -1.418046    0.531371
     12          6           0       -2.673504   -2.418801    1.562221
     13          6           0       -1.281139   -2.099111    1.740791
     14          6           0       -0.620477   -1.364804    2.769019
     15          6           0        0.826727   -1.281140    2.468802
     16          6           0        0.922747   -1.988844    1.121464
     17          6           0       -4.759788   -1.937821    0.112679
     18          6           0        1.868316   -0.494043    3.133118
     19          6           0       -4.788779   -2.022951   -1.205916
     20          6           0        2.111404   -1.905079    0.186842
     21          6           0        2.121355   -0.909109   -0.605177
     22          6           0       -3.517578   -1.425352   -1.725414
     23          6           0        3.104117   -0.534401   -1.715905
     24          6           0       -1.347369   -0.689078    3.889553
     25          6           0       -5.842761   -2.296266    1.122205
     26          6           0        2.541127    0.566040   -2.337122
     27          6           0        1.953451    0.960506    2.707770
     28          6           0        1.364038    1.002871   -1.609603
     29          6           0        4.295710   -1.368225   -2.132297
     30          6           0       -5.730895   -2.544838   -2.228305
     31          6           0        5.431893   -1.048261   -1.195094
     32          6           0        3.194572    1.390092   -3.466617
     33          6           0        0.514069    2.178272   -1.762043
     34          6           0        2.953156    1.639234    3.524490
     35          6           0       -0.597894    2.358679   -1.066222
     36          6           0       -7.035852   -3.015856   -1.824421
     37          6           0        6.655049   -1.938472   -1.509957
     38          6           0       -1.413851    3.573807   -1.052465
     39          6           0       -2.258730    3.377952   -0.026296
     40          6           0       -2.045129    2.143042    0.593326
     41          6           0       -1.246891    4.722217   -1.958896
     42          6           0       -3.447730    4.263799    0.480913
     43          6           0       -2.069000    5.816322   -2.052948
     44          1           0       -3.427170   -0.581493    1.204528
     45          1           0       -2.845905   -3.463857    1.161513
     46          1           0       -3.343810   -2.542516    2.437604
     47          1           0       -0.279908   -2.903402   -0.045854
     48          1           0       -1.973871   -0.174445   -0.765752
     49          1           0        1.607069   -0.593790    4.207023
     50          1           0        2.843262   -1.026949    3.169091
     51          1           0        2.991826   -2.583596    0.368893
     52          1           0       -1.917050   -1.533744    4.594541
     53          1           0       -0.583628   -0.202806    4.610988
     54          1           0       -2.190836   -0.025268    3.586604
     55          1           0       -5.911484   -1.616511    1.833459
     56          1           0       -5.822564   -3.373121    1.358303
     57          1           0       -6.945197   -2.004608    0.567632
     58          1           0        2.348103    0.974425    1.519832
     59          1           0        1.130540    1.539429    2.944188
     60          1           0        0.329985    0.312594    0.024440
     61          1           0        4.555504   -1.332257   -3.100037
     62          1           0        4.189992   -2.357238   -1.782019
     63          1           0       -5.348877   -2.589543   -3.254294
     64          1           0        5.426196   -1.451442   -0.125042
     65          1           0        5.560697   -0.045985   -1.091331
     66          1           0        3.921251    0.749425   -3.996281
     67          1           0        3.735190    2.337993   -3.342606
     68          1           0        2.402975    1.504458   -4.113457
     69          1           0        0.679978    2.924179   -2.409877
     70          1           0       -7.147941   -3.217446   -0.752494
     71          1           0       -7.663561   -3.194545   -2.689631
     72          1           0        3.760905    3.334505    3.955042
     73          1           0       -0.296270    4.908316   -2.690936
     74          1           0       -4.378239    4.292509   -0.271813
     75          1           0       -3.766507    3.727942    1.361696
     76          1           0       -3.156160    5.398113    0.493790
     77          1           0        8.449592   -2.265704   -1.220173
     78          1           0       -1.629955    6.589941   -2.723512
     79          1           0       -2.897428    6.072767   -1.597583
 ---------------------------------------------------------------------

 SCF Done:  E(RB3LYP) =  -1947.81156864     A.U. after   19 cycles

 Excitation energies and oscillator strengths:

 Excited State   1:      Singlet-A      1.0882 eV 1139.31 nm  f=0.0073  <S**2>=0.000
     155 ->156         0.70390
 This state for optimization and/or second-order correction.
 Total Energy, E(TD-HF/TD-DFT) =  -1947.77157663
 Copying the excited state density for this state as the 1-particle RhoCI density.

 The electronic state is 1-A.
 Alpha  occ. eigenvalues --  -19.20061 -19.17931 -19.14768 -19.13289 -19.12011
 Alpha  occ. eigenvalues --  -19.06594 -14.37956 -14.37085 -14.32317 -14.29311
 Alpha  occ. eigenvalues --  -10.34129 -10.32113 -10.27781 -10.27089 -10.25614
 Alpha  occ. eigenvalues --  -10.24827 -10.24236 -10.23435 -10.23002 -10.22906
 Alpha  occ. eigenvalues --  -10.22885 -10.22655 -10.22127 -10.21581 -10.21315
 Alpha  occ. eigenvalues --  -10.21204 -10.21084 -10.21048 -10.21029 -10.20718
 Alpha  occ. eigenvalues --  -10.20097 -10.20062 -10.19719 -10.19495 -10.19494
 Alpha  occ. eigenvalues --  -10.19470 -10.19412 -10.19277 -10.19270 -10.18722
 Alpha  occ. eigenvalues --  -10.18596 -10.18154 -10.17470  -1.10476  -1.06361
 Alpha  occ. eigenvalues --   -1.04479  -1.01387  -0.99581  -0.99209  -0.98396
 Alpha  occ. eigenvalues --   -0.96308  -0.95043  -0.90733  -0.85127  -0.83389
 Alpha  occ. eigenvalues --   -0.81199  -0.81068  -0.80124  -0.79444  -0.79116
 Alpha  occ. eigenvalues --   -0.77923  -0.75753  -0.75303  -0.73632  -0.72911
 Alpha  occ. eigenvalues --   -0.70487  -0.70269  -0.70027  -0.69232  -0.67490
 Alpha  occ. eigenvalues --   -0.67093  -0.65597  -0.62981  -0.61495  -0.60094
 Alpha  occ. eigenvalues --   -0.59478  -0.58867  -0.58482  -0.57767  -0.56373
 Alpha  occ. eigenvalues --   -0.55792  -0.55234  -0.54637  -0.54059  -0.53396
 Alpha  occ. eigenvalues --   -0.53033  -0.52097  -0.51514  -0.50207  -0.49899
 Alpha  occ. eigenvalues --   -0.49640  -0.49430  -0.48720  -0.48472  -0.47904
 Alpha  occ. eigenvalues --   -0.47893  -0.47154  -0.46812  -0.46458  -0.46199
 Alpha  occ. eigenvalues --   -0.45515  -0.45304  -0.44676  -0.44396  -0.44170
 Alpha  occ. eigenvalues --   -0.43882  -0.43486  -0.42893  -0.42640  -0.42552
 Alpha  occ. eigenvalues --   -0.42192  -0.41981  -0.41522  -0.41276  -0.41154
 Alpha  occ. eigenvalues --   -0.40611  -0.40145  -0.39673  -0.39275  -0.39157
 Alpha  occ. eigenvalues --   -0.39142  -0.38949  -0.38353  -0.38237  -0.38017
 Alpha  occ. eigenvalues --   -0.37734  -0.37516  -0.37232  -0.36949  -0.36793
 Alpha  occ. eigenvalues --   -0.36327  -0.36164  -0.36123  -0.34919  -0.34480
 Alpha  occ. eigenvalues --   -0.33887  -0.33619  -0.33077  -0.31931  -0.31774
 Alpha  occ. eigenvalues --   -0.31377  -0.30257  -0.29633  -0.29101  -0.28835
 Alpha  occ. eigenvalues --   -0.28209  -0.27729  -0.25958  -0.24314  -0.23567
 Alpha  occ. eigenvalues --   -0.22774  -0.22400  -0.22127  -0.21615  -0.18854
 Alpha virt. eigenvalues --   -0.12492  -0.07585  -0.03981  -0.02346  -0.01386
 Alpha virt. eigenvalues --   -0.01311   0.00641   0.02024   0.02485   0.03086
 Alpha virt. eigenvalues --    0.03475   0.03650   0.04065   0.04698   0.04813

 Mulliken charges:
               1
     1  O   -0.254559
     2  O   -0.283609
     3  O   -0.246346
     4  O   -0.221120
     5  O   -0.238476
     6  O   -0.176137
     7  N    0.000528
     8  N   -0.235261
     9  N   -0.111778
    10  N   -0.344387
    11  C    0.084854
    12  C    0.129143
    13  C    0.007699
    14  C   -0.105484
    15  C   -0.109827
    16  C   -0.105032
    17  C   -0.191703
    18  C    0.086029
    19  C   -0.034319
    20  C   -0.201327
    21  C    0.242432
    22  C    0.100402
    23  C   -0.081262
    24  C    0.011250
    25  C    0.092246
    26  C   -0.150148
    27  C    0.052076
    28  C    0.135810
    29  C    0.272116
    30  C   -0.035211
    31  C   -0.047446
    32  C    0.128757
    33  C   -0.026198
    34  C    0.145645
    35  C    0.091379
    36  C   -0.017407
    37  C    0.148854
    38  C    0.116873
    39  C   -0.199319
    40  C    0.156059
    41  C   -0.085109
    42  C    0.035070
    43  C    0.020999
    44  H    0.019847
    45  H   -0.026345
    46  H   -0.007474
    47  H    0.078204
    48  H    0.215273
    49  H    0.005242
    50  H    0.006906
    51  H    0.030667
    52  H    0.016292
    53  H    0.013740
    54  H    0.053169
    55  H   -0.016849
    56  H    0.052339
    57  H    0.039131
    58  H    0.090665
    59  H    0.016768
    60  H    0.191801
    61  H   -0.006193
    62  H   -0.005261
    63  H    0.013173
    64  H    0.059480
    65  H    0.012914
    66  H    0.002262
    67  H    0.049217
    68  H    0.007862
    69  H   -0.103264
    70  H    0.028961
    71  H    0.026653
    72  H    0.213676
    73  H    0.043528
    74  H    0.047953
    75  H    0.031284
    76  H    0.043518
    77  H    0.206929
    78  H    0.027022
    79  H   -0.035845
 Sum of Mulliken charges =  -0.00000

 Dipole moment (field-independent basis, Debye):
    X=              4.5701    Y=              2.7325    Z=             -0.1715  Tot=              5.3275
 Quadrupole moment (field-independent basis, Debye-Ang):
   XX=           -239.2735   YY=           -234.4354   ZZ=           -265.6193
   XY=              0.8966   XZ=            -23.2652   YZ=            -10.7121

 Normal termination of Gaussian 16 at Wed Jul 24 16:51:30 2019.
