 Gaussian 16, Revision A.03,
 Gaussian 16:  ES64L-G16RevA.03 25-Dec-2016

 --------------------------
 # td=(NStates=1) B3LYP/SVP
 --------------------------

 --
 TD
 --
 Symbolic Z-matrix:
 Charge =  0 Multiplicity = 1

                         Standard orientation:
 ---------------------------------------------------------------------
 Center     Atomic      Atomic             Coordinates (Angstroms)
 Number     Number       Type             X           Y           Z
 ---------------------------------------------------------------------
      1          8           0       -3.035494   -1.195153   -2.962256
      2          8           0        3.144588    2.843590    3.330090
      3          8           0        3.458563    1.010403    4.744581
      4          8           0        7.744484   -1.560229   -0.821087
      5          8           0        6.629673   -2.730383   -2.461219
      6          8           0       -2.912913    1.548993    1.527886
      7          7           0       -0.198704   -2.421532    0.704587
      8          7           0       -2.719300   -1.197148   -0.653744
      9          7           0        1.179498    0.244328   -0.570396
     10          7           0       -1.191591    1.552231    0.024839
     11          6           0       -3.391443   -1.459169    0.592833
     12          6           0       -2.603885   -2.434819    1.457844
     13          6           0       -1.158108   -2.176713    1.616685
     14          6           0       -0.536731   -1.549783    2.695857
     15          6           0        0.830629   -1.392057    2.366959
     16          6           0        0.976724   -1.916408    1.095518
     17          6           0       -4.802213   -1.851886    0.145648
     18          6           0        1.951326   -0.671230    3.169745
     19          6           0       -4.741325   -1.979951   -1.281709
     20          6           0        2.060103   -1.934860    0.078164
     21          6           0        2.086479   -0.767434   -0.723747
     22          6           0       -3.418187   -1.427384   -1.850248
     23          6           0        3.003029   -0.473221   -1.832006
     24          6           0       -1.295473   -0.883179    3.830132
     25          6           0       -5.837104   -2.363944    1.091760
     26          6           0        2.551324    0.765067   -2.352746
     27          6           0        2.155568    0.766638    2.631088
     28          6           0        1.355713    1.126362   -1.583910
     29          6           0        4.178840   -1.255892   -2.083328
     30          6           0       -5.746092   -2.371754   -2.181730
     31          6           0        5.421947   -0.984314   -1.243442
     32          6           0        3.185535    1.401127   -3.550515
     33          6           0        0.497436    2.219380   -1.798492
     34          6           0        3.025451    1.481782    3.693892
     35          6           0       -0.680500    2.412347   -0.991691
     36          6           0       -6.863253   -3.111279   -1.941152
     37          6           0        6.632916   -1.892960   -1.639813
     38          6           0       -1.427441    3.663486   -1.016546
     39          6           0       -2.424706    3.343971   -0.001019
     40          6           0       -2.216355    2.035268    0.626553
     41          6           0       -1.252096    4.792979   -1.864315
     42          6           0       -3.485742    4.296391    0.412483
     43          6           0       -1.873629    6.011672   -1.795357
     44          1           0       -3.338261   -0.460836    1.255697
     45          1           0       -2.635337   -3.441053    0.981119
     46          1           0       -3.087769   -2.484072    2.405280
     47          1           0       -0.380309   -2.767462   -0.156647
     48          1           0       -2.026536   -0.520587   -0.801534
     49          1           0        1.551471   -0.600835    4.336997
     50          1           0        3.001210   -1.309162    3.114339
     51          1           0        2.746734   -2.679822    0.188122
     52          1           0       -2.244253   -1.456555    4.282502
     53          1           0       -0.743078   -0.585942    4.535499
     54          1           0       -1.444502    0.075254    3.440095
     55          1           0       -5.706437   -2.256085    2.378360
     56          1           0       -5.779433   -3.621173    1.014969
     57          1           0       -6.838306   -1.899212    0.719477
     58          1           0        2.628969    0.926621    1.629211
     59          1           0        1.120138    1.410842    2.290452
     60          1           0        0.286250    0.389138   -0.124603
     61          1           0        4.520772   -1.300219   -3.132942
     62          1           0        4.047610   -2.215668   -1.867882
     63          1           0       -5.535912   -1.918529   -3.174091
     64          1           0        5.192984   -1.160095   -0.295545
     65          1           0        5.781389   -0.040307   -1.372760
     66          1           0        3.882592    0.398441   -3.874477
     67          1           0        3.843325    2.220270   -3.153459
     68          1           0        2.448809    1.914421   -4.266734
     69          1           0        0.778254    3.057921   -2.467087
     70          1           0       -7.113115   -3.646180   -1.048404
     71          1           0       -7.638613   -3.369269   -2.790356
     72          1           0        3.961781    3.175997    3.930870
     73          1           0       -0.662813    4.701163   -2.785565
     74          1           0       -3.943120    4.711076   -0.558793
     75          1           0       -4.292588    3.721439    1.034670
     76          1           0       -2.945368    5.101440    0.949439
     77          1           0        8.495800   -2.090992   -1.015868
     78          1           0       -1.858318    6.831313   -2.595458
     79          1           0       -2.746981    6.096396   -1.046214
 ---------------------------------------------------------------------

 SCF Done:  E(RB3LYP) =  -1947.81202158     A.U. after   20 cycles

 Excitation energies and oscillator strengths:

 Excited State   1:      Singlet-A      0.8158 eV 1519.70 nm  f=0.0002  <S**2>=0.000
     155 ->156         0.70270
 This state for optimization and/or second-order correction.
 Total Energy, E(TD-HF/TD-DFT) =  -1947.78203974
 Copying the excited state density for this state as the 1-particle RhoCI density.

 The electronic state is 1-A.
 Alpha  occ. eigenvalues --  -19.18827 -19.17951 -19.16116 -19.13546 -19.11061
 Alpha  occ. eigenvalues --  -19.09398 -14.38817 -14.36040 -14.31785 -14.30077
 Alpha  occ. eigenvalues --  -10.34561 -10.32347 -10.27696 -10.27093 -10.26952
 Alpha  occ. eigenvalues --  -10.26734 -10.26457 -10.23991 -10.23854 -10.23824
 Alpha  occ. eigenvalues --  -10.23178 -10.22970 -10.22345 -10.22042 -10.21974
 Alpha  occ. eigenvalues --  -10.21756 -10.21638 -10.21623 -10.21501 -10.21461
 Alpha  occ. eigenvalues --  -10.21224 -10.21150 -10.21038 -10.20209 -10.20127
 Alpha  occ. eigenvalues --  -10.19069 -10.18684 -10.18674 -10.18651 -10.18489
 Alpha  occ. eigenvalues --  -10.17034 -10.16283 -10.15917  -1.11171  -1.06464
 Alpha  occ. eigenvalues --   -1.03447  -1.02068  -1.01920  -1.01658  -0.98855
 Alpha  occ. eigenvalues --   -0.98700  -0.93366  -0.91572  -0.86205  -0.82870
 Alpha  occ. eigenvalues --   -0.81236  -0.80867  -0.79762  -0.79633  -0.78909
 Alpha  occ. eigenvalues --   -0.76872  -0.75631  -0.75402  -0.74295  -0.73201
 Alpha  occ. eigenvalues --   -0.71304  -0.71057  -0.70582  -0.68328  -0.67864
 Alpha  occ. eigenvalues --   -0.66012  -0.65019  -0.63419  -0.62370  -0.61210
 Alpha  occ. eigenvalues --   -0.60590  -0.59336  -0.59074  -0.57507  -0.56968
 Alpha  occ. eigenvalues --   -0.56008  -0.55199  -0.54494  -0.54133  -0.53826
 Alpha  occ. eigenvalues --   -0.52935  -0.52606  -0.51325  -0.50553  -0.50029
 Alpha  occ. eigenvalues --   -0.49406  -0.49311  -0.48714  -0.48389  -0.48095
 Alpha  occ. eigenvalues --   -0.47314  -0.46920  -0.46288  -0.45777  -0.45416
 Alpha  occ. eigenvalues --   -0.45078  -0.44981  -0.44825  -0.44398  -0.44062
 Alpha  occ. eigenvalues --   -0.43665  -0.43568  -0.43028  -0.42716  -0.42459
 Alpha  occ. eigenvalues --   -0.42090  -0.41851  -0.41544  -0.41312  -0.40986
 Alpha  occ. eigenvalues --   -0.40715  -0.40604  -0.40502  -0.40196  -0.39989
 Alpha  occ. eigenvalues --   -0.39553  -0.38929  -0.38847  -0.38438  -0.38315
 Alpha  occ. eigenvalues --   -0.38190  -0.37787  -0.37338  -0.36984  -0.36546
 Alpha  occ. eigenvalues --   -0.35941  -0.35715  -0.34894  -0.34810  -0.34725
 Alpha  occ. eigenvalues --   -0.34013  -0.33447  -0.32659  -0.31830  -0.31661
 Alpha  occ. eigenvalues --   -0.31253  -0.30976  -0.29660  -0.28752  -0.28636
 Alpha  occ. eigenvalues --   -0.28216  -0.27887  -0.25299  -0.24649  -0.23971
 Alpha  occ. eigenvalues --   -0.23079  -0.22808  -0.22325  -0.21387  -0.19290
 Alpha virt. eigenvalues --   -0.13743  -0.08388  -0.05026  -0.02889  -0.01477
 Alpha virt. eigenvalues --   -0.01258   0.01608   0.02314   0.02655   0.03033
 Alpha virt. eigenvalues --    0.03377   0.03673   0.04003   0.04714   0.05177

 Mulliken charges:
               1
     1  O   -0.210606
     2  O   -0.275235
     3  O   -0.229427
     4  O   -0.228380
     5  O   -0.159350
     6  O   -0.232630
     7  N    0.057199
     8  N   -0.213054
     9  N   -0.016462
    10  N   -0.284049
    11  C    0.033628
    12  C    0.290620
    13  C   -0.166965
    14  C   -0.165481
    15  C   -0.070514
    16  C   -0.087211
    17  C   -0.076735
    18  C    0.027588
    19  C   -0.125315
    20  C   -0.061500
    21  C    0.112326
    22  C    0.155380
    23  C   -0.030399
    24  C    0.243498
    25  C   -0.077296
    26  C   -0.135791
    27  C   -0.098889
    28  C    0.096976
    29  C    0.133708
    30  C    0.005754
    31  C    0.096070
    32  C    0.032733
    33  C   -0.097880
    34  C    0.196045
    35  C    0.105645
    36  C   -0.071721
    37  C    0.130802
    38  C    0.074491
    39  C   -0.218778
    40  C    0.152124
    41  C   -0.043677
    42  C    0.034682
    43  C   -0.089509
    44  H    0.085153
    45  H   -0.036841
    46  H   -0.036376
    47  H    0.064308
    48  H    0.104930
    49  H    0.061452
    50  H    0.035335
    51  H   -0.012254
    52  H    0.030098
    53  H   -0.104638
    54  H   -0.004416
    55  H    0.058063
    56  H    0.067230
    57  H    0.071223
    58  H    0.040087
    59  H    0.084487
    60  H    0.160403
    61  H    0.019512
    62  H   -0.036656
    63  H    0.012238
    64  H   -0.003656
    65  H    0.005319
    66  H    0.062207
    67  H    0.042920
    68  H    0.057887
    69  H   -0.000620
    70  H    0.009231
    71  H    0.032849
    72  H    0.213467
    73  H    0.000840
    74  H    0.052515
    75  H    0.054620
    76  H    0.055182
    77  H    0.169233
    78  H    0.045181
    79  H    0.027075
 Sum of Mulliken charges =  -0.00000

 Dipole moment (field-independent basis, Debye):
    X=              5.6558    Y=              2.0753    Z=             -2.0619  Tot=              6.3676
 Quadrupole moment (field-independent basis, Debye-Ang):
   XX=           -228.1436   YY=           -238.4544   ZZ=           -275.3815
   XY=              2.8236   XZ=            -19.3855   YZ=            -14.0446

 Normal termination of Gaussian 16 at Fri Jul 26 15:15:18 2019.
