 Gaussian 16, Revision A.03,
 Gaussian 16:  ES64L-G16RevA.03 25-Dec-2016

 --------------------------
 # td=(NStates=1) B3LYP/SVP
 --------------------------

 --
 TD
 --
 Symbolic Z-matrix:
 Charge =  0 Multiplicity = 1

                         Standard orientation:
 ---------------------------------------------------------------------
 Center     Atomic      Atomic             Coordinates (Angstroms)
 Number     Number       Type             X           Y           Z
 ---------------------------------------------------------------------
      1          8           0       -3.312781   -0.767054   -2.900538
      2          8           0        3.249363    2.867574    3.269558
      3          8           0        3.670186    1.106181    4.594942
      4          8           0        7.706709   -1.542262   -0.922413
      5          8           0        6.658272   -2.729590   -2.555945
      6          8           0       -2.598853    1.349818    1.611875
      7          7           0       -0.241857   -2.484241    0.692845
      8          7           0       -2.624920   -1.171400   -0.677486
      9          7           0        1.161700    0.196284   -0.681374
     10          7           0       -0.972525    1.447494    0.011811
     11          6           0       -3.355311   -1.420997    0.556089
     12          6           0       -2.526751   -2.465838    1.295725
     13          6           0       -1.201333   -2.220556    1.605446
     14          6           0       -0.554581   -1.549100    2.776534
     15          6           0        0.743951   -1.330048    2.435300
     16          6           0        0.910419   -1.917752    1.143896
     17          6           0       -4.683577   -1.995525    0.097775
     18          6           0        1.836558   -0.573423    3.239822
     19          6           0       -4.669625   -1.865156   -1.249752
     20          6           0        2.116930   -1.833435    0.197047
     21          6           0        2.144734   -0.794261   -0.612476
     22          6           0       -3.523775   -1.252804   -1.798622
     23          6           0        3.102556   -0.420545   -1.798042
     24          6           0       -1.327285   -0.925747    3.826962
     25          6           0       -5.678294   -2.361957    1.081998
     26          6           0        2.560256    0.748591   -2.339459
     27          6           0        1.923584    0.886100    2.885447
     28          6           0        1.332621    1.096476   -1.684385
     29          6           0        4.302967   -1.243371   -2.063238
     30          6           0       -5.888059   -2.116367   -2.201833
     31          6           0        5.466562   -0.968669   -1.315703
     32          6           0        3.264500    1.529298   -3.443060
     33          6           0        0.493462    2.096085   -1.918468
     34          6           0        3.000816    1.599161    3.754771
     35          6           0       -0.589096    2.320151   -1.049182
     36          6           0       -6.939350   -2.897797   -2.018421
     37          6           0        6.685068   -1.867546   -1.684524
     38          6           0       -1.567551    3.498935   -0.953117
     39          6           0       -2.391254    3.188259    0.074741
     40          6           0       -2.106485    1.948601    0.630491
     41          6           0       -1.353338    4.668750   -1.843976
     42          6           0       -3.584511    3.886004    0.663639
     43          6           0       -2.307987    5.635749   -2.013547
     44          1           0       -3.362545   -0.398349    1.149501
     45          1           0       -2.672421   -3.365855    0.689895
     46          1           0       -3.106791   -2.712572    2.437533
     47          1           0       -0.338766   -2.764591   -0.233793
     48          1           0       -1.914211   -0.320158   -0.668397
     49          1           0        1.745714   -0.790333    4.306302
     50          1           0        2.931315   -1.116211    2.966003
     51          1           0        3.010687   -2.343148    0.103070
     52          1           0       -2.125056   -1.600063    4.221503
     53          1           0       -0.669853   -0.611397    4.606036
     54          1           0       -1.924824   -0.052552    3.518728
     55          1           0       -5.610355   -1.686262    1.792875
     56          1           0       -5.718038   -3.543783    1.362810
     57          1           0       -6.785150   -2.196757    0.641183
     58          1           0        2.397320    1.054831    1.800530
     59          1           0        1.012681    1.334331    2.802324
     60          1           0        0.164712    0.581225   -0.141381
     61          1           0        4.383232   -1.202501   -3.286379
     62          1           0        3.981145   -2.427393   -1.912327
     63          1           0       -5.892670   -1.589122   -3.202622
     64          1           0        5.305533   -0.962429   -0.105980
     65          1           0        5.861703    0.080201   -1.627821
     66          1           0        4.021682    0.916801   -3.945992
     67          1           0        3.602257    2.550983   -2.979914
     68          1           0        2.688222    1.853459   -4.372864
     69          1           0        0.699024    2.951842   -2.663877
     70          1           0       -7.135778   -3.532272   -1.106274
     71          1           0       -7.619235   -2.925686   -2.860490
     72          1           0        3.797276    3.191064    3.940468
     73          1           0       -0.468731    4.685261   -2.541805
     74          1           0       -4.432274    3.821735   -0.014728
     75          1           0       -3.802843    3.193402    1.608520
     76          1           0       -3.418672    4.999535    1.018930
     77          1           0        8.393796   -1.791467   -1.419114
     78          1           0       -2.058628    6.338878   -2.641897
     79          1           0       -3.000351    5.697443   -1.108247
 ---------------------------------------------------------------------

 SCF Done:  E(RB3LYP) =  -1947.81992435     A.U. after   21 cycles

 Excitation energies and oscillator strengths:

 Excited State   1:      Singlet-A      0.5219 eV 2375.55 nm  f=0.0003  <S**2>=0.000
     155 ->156         0.70507
 This state for optimization and/or second-order correction.
 Total Energy, E(TD-HF/TD-DFT) =  -1947.80074423
 Copying the excited state density for this state as the 1-particle RhoCI density.

 The electronic state is 1-A.
 Alpha  occ. eigenvalues --  -19.20322 -19.17096 -19.14530 -19.13249 -19.12629
 Alpha  occ. eigenvalues --  -19.08577 -14.36682 -14.35280 -14.32091 -14.32010
 Alpha  occ. eigenvalues --  -10.33989 -10.31756 -10.28454 -10.26311 -10.26250
 Alpha  occ. eigenvalues --  -10.25608 -10.24527 -10.23535 -10.23288 -10.23248
 Alpha  occ. eigenvalues --  -10.23002 -10.22701 -10.22572 -10.22276 -10.21729
 Alpha  occ. eigenvalues --  -10.21410 -10.21329 -10.20852 -10.20782 -10.20697
 Alpha  occ. eigenvalues --  -10.20620 -10.20462 -10.20142 -10.20076 -10.20054
 Alpha  occ. eigenvalues --  -10.19215 -10.19097 -10.19079 -10.18840 -10.17951
 Alpha  occ. eigenvalues --  -10.17063 -10.16201 -10.16075  -1.14358  -1.10268
 Alpha  occ. eigenvalues --   -1.02912  -1.02793  -1.01680  -1.00203  -0.98258
 Alpha  occ. eigenvalues --   -0.97357  -0.93196  -0.91230  -0.84342  -0.82867
 Alpha  occ. eigenvalues --   -0.81732  -0.80295  -0.79869  -0.79481  -0.78567
 Alpha  occ. eigenvalues --   -0.77455  -0.76535  -0.76310  -0.74871  -0.72345
 Alpha  occ. eigenvalues --   -0.71091  -0.70850  -0.69799  -0.69119  -0.67438
 Alpha  occ. eigenvalues --   -0.66663  -0.65794  -0.63247  -0.62271  -0.61171
 Alpha  occ. eigenvalues --   -0.59983  -0.58823  -0.57442  -0.56975  -0.56366
 Alpha  occ. eigenvalues --   -0.55897  -0.55580  -0.54426  -0.53194  -0.52863
 Alpha  occ. eigenvalues --   -0.51611  -0.51429  -0.51301  -0.50504  -0.50351
 Alpha  occ. eigenvalues --   -0.49736  -0.49357  -0.48612  -0.48387  -0.47972
 Alpha  occ. eigenvalues --   -0.47670  -0.46985  -0.46379  -0.46050  -0.45587
 Alpha  occ. eigenvalues --   -0.45199  -0.44992  -0.44715  -0.44599  -0.44460
 Alpha  occ. eigenvalues --   -0.43816  -0.43531  -0.42917  -0.42616  -0.42438
 Alpha  occ. eigenvalues --   -0.41889  -0.41702  -0.41476  -0.40862  -0.40823
 Alpha  occ. eigenvalues --   -0.40348  -0.40246  -0.40149  -0.39918  -0.39575
 Alpha  occ. eigenvalues --   -0.39128  -0.38753  -0.38509  -0.37957  -0.37878
 Alpha  occ. eigenvalues --   -0.37566  -0.37452  -0.37171  -0.36625  -0.36326
 Alpha  occ. eigenvalues --   -0.36191  -0.35973  -0.35006  -0.34520  -0.34299
 Alpha  occ. eigenvalues --   -0.33327  -0.33146  -0.32663  -0.32428  -0.31840
 Alpha  occ. eigenvalues --   -0.31238  -0.29765  -0.29473  -0.29435  -0.28768
 Alpha  occ. eigenvalues --   -0.28523  -0.27095  -0.26414  -0.24936  -0.24600
 Alpha  occ. eigenvalues --   -0.23707  -0.23561  -0.23258  -0.22786  -0.17461
 Alpha virt. eigenvalues --   -0.13164  -0.07742  -0.04229  -0.02690  -0.01782
 Alpha virt. eigenvalues --    0.00579   0.01815   0.02134   0.02357   0.03081
 Alpha virt. eigenvalues --    0.03444   0.04373   0.04955   0.05483   0.05602

 Mulliken charges:
               1
     1  O   -0.230967
     2  O   -0.177859
     3  O   -0.189330
     4  O   -0.078410
     5  O   -0.225080
     6  O   -0.240857
     7  N    0.027009
     8  N   -0.312128
     9  N   -0.188249
    10  N   -0.365295
    11  C    0.009246
    12  C    0.098723
    13  C   -0.053684
    14  C   -0.111216
    15  C   -0.061547
    16  C   -0.020718
    17  C   -0.121592
    18  C    0.047284
    19  C   -0.047058
    20  C   -0.056037
    21  C    0.104638
    22  C    0.157018
    23  C   -0.026326
    24  C    0.105543
    25  C    0.096857
    26  C   -0.121204
    27  C    0.006283
    28  C    0.161060
    29  C   -0.032509
    30  C   -0.026663
    31  C   -0.039613
    32  C    0.047680
    33  C   -0.104154
    34  C    0.131520
    35  C    0.052430
    36  C   -0.039139
    37  C    0.121957
    38  C    0.101590
    39  C   -0.195616
    40  C    0.207407
    41  C   -0.086428
    42  C    0.012508
    43  C    0.070831
    44  H    0.088858
    45  H   -0.032487
    46  H    0.005373
    47  H    0.094222
    48  H    0.167015
    49  H    0.024145
    50  H    0.012306
    51  H   -0.053110
    52  H   -0.008461
    53  H   -0.018635
    54  H    0.033417
    55  H   -0.010220
    56  H    0.067089
    57  H    0.029723
    58  H    0.054918
    59  H    0.019634
    60  H    0.251341
    61  H    0.054868
    62  H    0.052414
    63  H    0.022810
    64  H    0.078052
    65  H    0.048336
    66  H    0.017107
    67  H    0.047070
    68  H    0.029809
    69  H    0.013188
    70  H    0.018333
    71  H    0.017276
    72  H    0.140668
    73  H    0.013898
    74  H    0.044147
    75  H    0.057153
    76  H    0.051366
    77  H    0.130209
    78  H   -0.016748
    79  H    0.047013
 Sum of Mulliken charges =  -0.00000

 Dipole moment (field-independent basis, Debye):
    X=              3.6292    Y=              4.3743    Z=             -1.6787  Tot=              5.9265
 Quadrupole moment (field-independent basis, Debye-Ang):
   XX=           -227.9019   YY=           -236.1378   ZZ=           -270.6357
   XY=              8.3491   XZ=            -21.7282   YZ=            -10.5954

 Normal termination of Gaussian 16 at Wed Jul 24 13:41:59 2019.
