 Gaussian 16, Revision A.03,
 Gaussian 16:  ES64L-G16RevA.03 25-Dec-2016

 --------------------------
 # td=(NStates=1) B3LYP/SVP
 --------------------------

 --
 TD
 --
 Symbolic Z-matrix:
 Charge =  0 Multiplicity = 1

                         Standard orientation:
 ---------------------------------------------------------------------
 Center     Atomic      Atomic             Coordinates (Angstroms)
 Number     Number       Type             X           Y           Z
 ---------------------------------------------------------------------
      1          8           0       -3.364632   -1.268441   -2.910386
      2          8           0        3.163413    3.013416    3.193778
      3          8           0        3.632413    1.261309    4.543668
      4          8           0        7.748662   -1.595774   -0.919102
      5          8           0        6.353280   -3.044405   -1.968452
      6          8           0       -2.583034    1.513102    1.562833
      7          7           0       -0.260271   -2.571498    0.883386
      8          7           0       -2.658271   -1.341180   -0.758550
      9          7           0        1.089391    0.026793   -0.812910
     10          7           0       -0.991242    1.408505   -0.203688
     11          6           0       -3.287049   -1.339295    0.564096
     12          6           0       -2.546343   -2.406576    1.548838
     13          6           0       -1.088654   -2.075931    1.695627
     14          6           0       -0.445242   -1.263824    2.742931
     15          6           0        0.961928   -1.352383    2.333460
     16          6           0        1.041285   -1.927857    1.104207
     17          6           0       -4.754175   -1.824410    0.255443
     18          6           0        2.087971   -0.509460    3.030415
     19          6           0       -4.805307   -1.973387   -1.089209
     20          6           0        2.081366   -2.021769    0.135739
     21          6           0        2.116252   -0.884869   -0.849371
     22          6           0       -3.620430   -1.459377   -1.749530
     23          6           0        3.032264   -0.453177   -1.772158
     24          6           0       -1.106638   -0.545519    3.918784
     25          6           0       -5.607237   -2.276632    1.280998
     26          6           0        2.566474    0.672720   -2.456995
     27          6           0        1.997833    0.981229    2.733370
     28          6           0        1.286692    1.059138   -1.716372
     29          6           0        4.187016   -1.210331   -2.131862
     30          6           0       -5.962986   -2.271711   -1.964261
     31          6           0        5.533966   -0.829610   -1.353426
     32          6           0        3.102835    1.354799   -3.738505
     33          6           0        0.467253    2.120146   -1.958346
     34          6           0        3.112584    1.705687    3.597859
     35          6           0       -0.690133    2.326825   -1.150517
     36          6           0       -7.074414   -3.101989   -1.552880
     37          6           0        6.549118   -1.978652   -1.489296
     38          6           0       -1.491548    3.522291   -1.145482
     39          6           0       -2.405923    3.370817    0.026285
     40          6           0       -2.068013    2.087848    0.544816
     41          6           0       -1.453910    4.611991   -2.033954
     42          6           0       -3.493041    4.183261    0.559844
     43          6           0       -2.040550    5.861431   -1.930885
     44          1           0       -3.161719   -0.481971    1.159231
     45          1           0       -2.357896   -3.374053    0.986219
     46          1           0       -3.115853   -2.492797    2.438369
     47          1           0       -0.634675   -3.002057    0.023948
     48          1           0       -1.996735   -0.652817   -1.015220
     49          1           0        1.937489   -0.742529    4.298009
     50          1           0        3.006102   -1.060282    2.795789
     51          1           0        2.781721   -2.624501    0.369906
     52          1           0       -1.681976   -1.205717    4.353117
     53          1           0       -0.274498   -0.264886    4.683850
     54          1           0       -1.580043    0.347515    3.377015
     55          1           0       -5.710575   -1.757636    2.196821
     56          1           0       -5.666791   -3.513497    1.459618
     57          1           0       -6.782451   -2.166124    1.089397
     58          1           0        2.264896    1.170634    1.614434
     59          1           0        0.955903    1.293341    2.935840
     60          1           0        0.240589    0.371160   -0.332176
     61          1           0        4.387831   -1.218162   -3.309591
     62          1           0        3.975888   -2.434297   -1.945126
     63          1           0       -5.965286   -1.923563   -3.120652
     64          1           0        5.277827   -0.823290   -0.333306
     65          1           0        6.156266    0.095905   -1.632891
     66          1           0        3.601257    0.687638   -4.392221
     67          1           0        3.704937    2.265728   -3.569666
     68          1           0        2.215021    1.606352   -4.317316
     69          1           0        0.634122    2.544357   -2.838038
     70          1           0       -7.342892   -3.433120   -0.495290
     71          1           0       -7.695163   -3.582258   -2.204024
     72          1           0        4.036007    3.380478    3.754395
     73          1           0       -0.835582    4.448399   -2.877992
     74          1           0       -4.306799    4.468773   -0.178774
     75          1           0       -3.967303    3.558739    1.291652
     76          1           0       -3.008966    5.046591    1.104070
     77          1           0        8.496595   -2.269961   -1.183445
     78          1           0       -1.792936    6.742089   -2.725298
     79          1           0       -2.751814    6.395265   -1.175005
 ---------------------------------------------------------------------

 SCF Done:  E(RB3LYP) =  -1947.76955258     A.U. after   23 cycles

 Excitation energies and oscillator strengths:

 Excited State   1:      Singlet-A      0.2544 eV 4872.65 nm  f=0.0011  <S**2>=0.000
     155 ->156         0.70422
 This state for optimization and/or second-order correction.
 Total Energy, E(TD-HF/TD-DFT) =  -1947.76020175
 Copying the excited state density for this state as the 1-particle RhoCI density.

 The electronic state is 1-A.
 Alpha  occ. eigenvalues --  -19.18673 -19.18183 -19.14013 -19.13152 -19.12546
 Alpha  occ. eigenvalues --  -19.08488 -14.36064 -14.35681 -14.32341 -14.31559
 Alpha  occ. eigenvalues --  -10.32755 -10.31321 -10.28653 -10.26089 -10.25824
 Alpha  occ. eigenvalues --  -10.25473 -10.25100 -10.23532 -10.22853 -10.22842
 Alpha  occ. eigenvalues --  -10.22778 -10.22324 -10.22211 -10.22039 -10.21904
 Alpha  occ. eigenvalues --  -10.21771 -10.21313 -10.21217 -10.21020 -10.20864
 Alpha  occ. eigenvalues --  -10.20745 -10.20324 -10.20252 -10.19897 -10.19789
 Alpha  occ. eigenvalues --  -10.19368 -10.19265 -10.19035 -10.18941 -10.18823
 Alpha  occ. eigenvalues --  -10.16967 -10.16682 -10.15850  -1.09512  -1.09213
 Alpha  occ. eigenvalues --   -1.01835  -1.01278  -1.00770  -1.00580  -0.99043
 Alpha  occ. eigenvalues --   -0.97027  -0.92853  -0.91763  -0.83838  -0.81878
 Alpha  occ. eigenvalues --   -0.81415  -0.80897  -0.79490  -0.77950  -0.77304
 Alpha  occ. eigenvalues --   -0.76763  -0.75380  -0.74273  -0.73919  -0.72676
 Alpha  occ. eigenvalues --   -0.71184  -0.70069  -0.69454  -0.68597  -0.67281
 Alpha  occ. eigenvalues --   -0.65501  -0.64161  -0.64076  -0.60865  -0.60158
 Alpha  occ. eigenvalues --   -0.59651  -0.59020  -0.57238  -0.56923  -0.56302
 Alpha  occ. eigenvalues --   -0.56057  -0.55109  -0.53779  -0.53262  -0.52381
 Alpha  occ. eigenvalues --   -0.51475  -0.51145  -0.50185  -0.49651  -0.49069
 Alpha  occ. eigenvalues --   -0.48704  -0.48660  -0.48240  -0.48122  -0.48003
 Alpha  occ. eigenvalues --   -0.47223  -0.46755  -0.46271  -0.46113  -0.45677
 Alpha  occ. eigenvalues --   -0.45567  -0.45268  -0.44924  -0.44142  -0.43550
 Alpha  occ. eigenvalues --   -0.43113  -0.42769  -0.42631  -0.42257  -0.41771
 Alpha  occ. eigenvalues --   -0.41763  -0.41363  -0.41153  -0.40928  -0.40754
 Alpha  occ. eigenvalues --   -0.40753  -0.40317  -0.40051  -0.39861  -0.39504
 Alpha  occ. eigenvalues --   -0.39101  -0.39080  -0.38585  -0.38409  -0.38321
 Alpha  occ. eigenvalues --   -0.37845  -0.37231  -0.36974  -0.36677  -0.35865
 Alpha  occ. eigenvalues --   -0.35711  -0.34998  -0.34734  -0.34379  -0.34352
 Alpha  occ. eigenvalues --   -0.33323  -0.32593  -0.32159  -0.32146  -0.31628
 Alpha  occ. eigenvalues --   -0.30506  -0.29903  -0.29331  -0.29236  -0.28350
 Alpha  occ. eigenvalues --   -0.28186  -0.26367  -0.26265  -0.25051  -0.24073
 Alpha  occ. eigenvalues --   -0.23204  -0.23004  -0.21888  -0.21528  -0.17040
 Alpha virt. eigenvalues --   -0.13700  -0.09286  -0.05403  -0.02670  -0.00130
 Alpha virt. eigenvalues --    0.00738   0.00977   0.02145   0.02324   0.03534
 Alpha virt. eigenvalues --    0.03774   0.03927   0.04988   0.05013   0.05237

 Mulliken charges:
               1
     1  O   -0.216956
     2  O   -0.255357
     3  O   -0.169005
     4  O   -0.257462
     5  O   -0.184197
     6  O   -0.254205
     7  N   -0.027165
     8  N   -0.182974
     9  N   -0.068497
    10  N   -0.348564
    11  C    0.092489
    12  C    0.165472
    13  C   -0.147929
    14  C   -0.192224
    15  C   -0.071950
    16  C    0.001832
    17  C   -0.053270
    18  C    0.004977
    19  C   -0.044547
    20  C    0.015074
    21  C    0.110907
    22  C    0.104296
    23  C   -0.013122
    24  C    0.130324
    25  C   -0.006562
    26  C   -0.120901
    27  C   -0.008776
    28  C    0.023044
    29  C   -0.090922
    30  C   -0.052300
    31  C    0.038220
    32  C    0.132329
    33  C   -0.016364
    34  C    0.143580
    35  C    0.145116
    36  C   -0.051330
    37  C    0.120649
    38  C    0.043187
    39  C   -0.173244
    40  C    0.210472
    41  C    0.018673
    42  C    0.099143
    43  C   -0.107491
    44  H    0.027703
    45  H   -0.024841
    46  H   -0.007442
    47  H    0.121056
    48  H    0.110577
    49  H    0.038333
    50  H   -0.005649
    51  H   -0.065936
    52  H   -0.030490
    53  H    0.006248
    54  H    0.071857
    55  H    0.011103
    56  H    0.064952
    57  H    0.026845
    58  H    0.045456
    59  H    0.061122
    60  H    0.170820
    61  H    0.039522
    62  H    0.067623
    63  H    0.059457
    64  H    0.026383
    65  H    0.058611
    66  H    0.004749
    67  H    0.042777
    68  H    0.019949
    69  H   -0.080192
    70  H    0.022664
    71  H    0.001020
    72  H    0.214875
    73  H   -0.016311
    74  H    0.049393
    75  H    0.014745
    76  H    0.045751
    77  H    0.215066
    78  H    0.050156
    79  H    0.057573
 Sum of Mulliken charges =  -0.00000

 Dipole moment (field-independent basis, Debye):
    X=              3.0620    Y=              4.1998    Z=             -2.0085  Tot=              5.5721
 Quadrupole moment (field-independent basis, Debye-Ang):
   XX=           -221.3542   YY=           -232.5908   ZZ=           -266.4699
   XY=              3.3653   XZ=            -24.6589   YZ=            -12.7323

 Normal termination of Gaussian 16 at Tue Jul 30 23:20:50 2019.
