 Gaussian 16, Revision A.03,
 Gaussian 16:  ES64L-G16RevA.03 25-Dec-2016

 --------------------------
 # td=(NStates=1) B3LYP/SVP
 --------------------------

 --
 TD
 --
 Symbolic Z-matrix:
 Charge =  0 Multiplicity = 1

                         Standard orientation:
 ---------------------------------------------------------------------
 Center     Atomic      Atomic             Coordinates (Angstroms)
 Number     Number       Type             X           Y           Z
 ---------------------------------------------------------------------
      1          8           0       -3.308034   -1.297854   -2.811501
      2          8           0        3.400693    3.215864    2.885333
      3          8           0        3.827261    1.529130    4.359477
      4          8           0        7.713293   -1.610837   -0.743812
      5          8           0        6.547507   -2.912759   -2.170467
      6          8           0       -2.629458    1.630347    1.460345
      7          7           0       -0.119504   -2.361627    1.060388
      8          7           0       -2.568534   -1.161221   -0.562630
      9          7           0        1.111236    0.119488   -0.680265
     10          7           0       -0.996519    1.541377   -0.113132
     11          6           0       -3.266472   -1.372405    0.661899
     12          6           0       -2.523021   -2.401776    1.661761
     13          6           0       -1.118893   -1.983993    1.901238
     14          6           0       -0.496805   -1.112265    2.891738
     15          6           0        0.852439   -1.019430    2.518243
     16          6           0        1.069766   -1.807880    1.345448
     17          6           0       -4.663494   -1.884662    0.307017
     18          6           0        1.934927   -0.217858    3.275069
     19          6           0       -4.793900   -2.083387   -0.990511
     20          6           0        2.122157   -1.839126    0.321437
     21          6           0        2.123150   -0.856979   -0.614716
     22          6           0       -3.528776   -1.522423   -1.630339
     23          6           0        2.972632   -0.682412   -1.870105
     24          6           0       -1.303824   -0.232023    3.852772
     25          6           0       -5.575279   -2.240311    1.403030
     26          6           0        2.387184    0.329739   -2.562731
     27          6           0        1.982831    1.233629    2.801426
     28          6           0        1.232625    0.885901   -1.841013
     29          6           0        4.132072   -1.516840   -2.130307
     30          6           0       -5.897059   -2.641166   -1.781729
     31          6           0        5.407301   -1.114643   -1.177989
     32          6           0        2.843466    0.853092   -3.853885
     33          6           0        0.392086    1.979780   -2.058348
     34          6           0        3.119433    1.958375    3.420487
     35          6           0       -0.663943    2.223976   -1.210427
     36          6           0       -6.798114   -3.527697   -1.382342
     37          6           0        6.629549   -1.967057   -1.479457
     38          6           0       -1.633391    3.467714   -1.293634
     39          6           0       -2.422568    3.430104   -0.218910
     40          6           0       -2.064644    2.130880    0.523295
     41          6           0       -1.348376    4.455885   -2.379196
     42          6           0       -3.606383    4.201660    0.247572
     43          6           0       -2.211393    5.449796   -2.654336
     44          1           0       -3.201804   -0.464148    1.260620
     45          1           0       -2.460829   -3.382904    1.260271
     46          1           0       -2.989048   -2.327323    2.615211
     47          1           0       -0.233059   -2.670079    0.038302
     48          1           0       -1.994275   -0.387587   -0.600356
     49          1           0        1.598162   -0.170373    4.320049
     50          1           0        2.964073   -0.705852    3.225484
     51          1           0        2.986250   -2.453529    0.456765
     52          1           0       -2.064868   -0.819148    4.439860
     53          1           0       -0.536562    0.418833    4.427803
     54          1           0       -1.858858    0.325161    3.221293
     55          1           0       -5.470213   -1.629544    2.153717
     56          1           0       -5.469529   -3.238844    1.717738
     57          1           0       -6.767215   -2.347704    0.912508
     58          1           0        1.996693    1.439736    1.690703
     59          1           0        0.890238    1.671109    2.978822
     60          1           0        0.371681    0.479486    0.095724
     61          1           0        4.663210   -1.484599   -3.112213
     62          1           0        4.052264   -2.590924   -1.845320
     63          1           0       -5.841666   -2.361969   -2.799074
     64          1           0        5.037703   -1.129425   -0.194601
     65          1           0        5.817398   -0.084697   -1.286505
     66          1           0        3.568147    0.209368   -4.209242
     67          1           0        3.422773    1.958706   -3.574827
     68          1           0        2.058722    1.121287   -4.538824
     69          1           0        0.767762    2.506306   -3.020328
     70          1           0       -6.490474   -3.738737   -0.275032
     71          1           0       -7.578046   -3.844912   -2.190222
     72          1           0        4.091169    3.488396    3.686970
     73          1           0       -0.800761    4.208327   -3.138748
     74          1           0       -4.543011    4.308466   -0.458258
     75          1           0       -4.024908    3.783883    1.151278
     76          1           0       -3.356890    5.298725    0.438835
     77          1           0        8.582557   -2.162783   -0.994936
     78          1           0       -1.979515    6.162239   -3.503430
     79          1           0       -3.315806    5.760616   -2.130300
 ---------------------------------------------------------------------

 SCF Done:  E(RB3LYP) =  -1947.86816561     A.U. after   16 cycles

 Excitation energies and oscillator strengths:

 Excited State   1:      Singlet-A      1.0740 eV 1154.40 nm  f=0.0014  <S**2>=0.000
     155 ->156         0.70447
 This state for optimization and/or second-order correction.
 Total Energy, E(TD-HF/TD-DFT) =  -1947.82869645
 Copying the excited state density for this state as the 1-particle RhoCI density.

 The electronic state is 1-A.
 Alpha  occ. eigenvalues --  -19.19703 -19.18095 -19.14044 -19.12597 -19.12538
 Alpha  occ. eigenvalues --  -19.09381 -14.37207 -14.36575 -14.31974 -14.31248
 Alpha  occ. eigenvalues --  -10.33144 -10.31938 -10.28509 -10.27826 -10.26727
 Alpha  occ. eigenvalues --  -10.25665 -10.25569 -10.23116 -10.22562 -10.22519
 Alpha  occ. eigenvalues --  -10.22384 -10.21931 -10.21821 -10.21774 -10.21712
 Alpha  occ. eigenvalues --  -10.21443 -10.21436 -10.21065 -10.20744 -10.20458
 Alpha  occ. eigenvalues --  -10.20301 -10.20102 -10.20007 -10.19660 -10.19642
 Alpha  occ. eigenvalues --  -10.19239 -10.19211 -10.18795 -10.18616 -10.18523
 Alpha  occ. eigenvalues --  -10.17421 -10.17173 -10.17016  -1.10670  -1.06802
 Alpha  occ. eigenvalues --   -1.04551  -1.02435  -1.00555  -0.98066  -0.97532
 Alpha  occ. eigenvalues --   -0.96740  -0.93841  -0.91386  -0.83806  -0.82487
 Alpha  occ. eigenvalues --   -0.81837  -0.81387  -0.79690  -0.78739  -0.78389
 Alpha  occ. eigenvalues --   -0.76827  -0.76301  -0.75618  -0.74781  -0.73015
 Alpha  occ. eigenvalues --   -0.71369  -0.69905  -0.69521  -0.69130  -0.67333
 Alpha  occ. eigenvalues --   -0.66047  -0.65111  -0.62662  -0.60972  -0.60066
 Alpha  occ. eigenvalues --   -0.59647  -0.58997  -0.57305  -0.56921  -0.56105
 Alpha  occ. eigenvalues --   -0.55705  -0.55279  -0.54346  -0.53697  -0.52992
 Alpha  occ. eigenvalues --   -0.52181  -0.51410  -0.50373  -0.49970  -0.49767
 Alpha  occ. eigenvalues --   -0.49121  -0.48894  -0.48292  -0.48207  -0.48128
 Alpha  occ. eigenvalues --   -0.47871  -0.47586  -0.46942  -0.46342  -0.45606
 Alpha  occ. eigenvalues --   -0.44974  -0.44887  -0.44828  -0.44559  -0.44229
 Alpha  occ. eigenvalues --   -0.43872  -0.43577  -0.43305  -0.42731  -0.42398
 Alpha  occ. eigenvalues --   -0.41760  -0.41011  -0.40888  -0.40668  -0.40515
 Alpha  occ. eigenvalues --   -0.40274  -0.39954  -0.39740  -0.39632  -0.39540
 Alpha  occ. eigenvalues --   -0.39424  -0.38933  -0.38819  -0.38431  -0.38123
 Alpha  occ. eigenvalues --   -0.37915  -0.37749  -0.37549  -0.37215  -0.36803
 Alpha  occ. eigenvalues --   -0.36329  -0.36240  -0.35862  -0.35600  -0.35215
 Alpha  occ. eigenvalues --   -0.34095  -0.33341  -0.32886  -0.32270  -0.31919
 Alpha  occ. eigenvalues --   -0.31147  -0.30614  -0.29636  -0.29216  -0.28638
 Alpha  occ. eigenvalues --   -0.27948  -0.26830  -0.26468  -0.24706  -0.24426
 Alpha  occ. eigenvalues --   -0.24242  -0.23580  -0.22863  -0.22726  -0.18443
 Alpha virt. eigenvalues --   -0.11979  -0.06958  -0.03568  -0.01966  -0.01449
 Alpha virt. eigenvalues --   -0.00312   0.01138   0.01462   0.02440   0.02494
 Alpha virt. eigenvalues --    0.03288   0.03748   0.04192   0.04632   0.04929

 Mulliken charges:
               1
     1  O   -0.222652
     2  O   -0.265231
     3  O   -0.275309
     4  O   -0.242942
     5  O   -0.185477
     6  O   -0.181928
     7  N   -0.037539
     8  N   -0.211401
     9  N   -0.199807
    10  N   -0.311820
    11  C    0.035585
    12  C    0.273906
    13  C   -0.167691
    14  C   -0.132488
    15  C   -0.150435
    16  C   -0.033433
    17  C   -0.158239
    18  C    0.125414
    19  C   -0.035825
    20  C   -0.110072
    21  C    0.126882
    22  C    0.162227
    23  C    0.024362
    24  C    0.136206
    25  C    0.122663
    26  C   -0.142322
    27  C   -0.070280
    28  C    0.087280
    29  C    0.052730
    30  C   -0.006226
    31  C   -0.053668
    32  C    0.100725
    33  C   -0.121743
    34  C    0.200249
    35  C    0.152149
    36  C   -0.041648
    37  C    0.150371
    38  C    0.038961
    39  C   -0.192899
    40  C    0.160455
    41  C    0.102808
    42  C    0.041879
    43  C   -0.095769
    44  H    0.029835
    45  H   -0.033700
    46  H   -0.029705
    47  H    0.141458
    48  H    0.106849
    49  H    0.012125
    50  H    0.019805
    51  H    0.000246
    52  H    0.006550
    53  H    0.015115
    54  H   -0.000362
    55  H   -0.021564
    56  H    0.029231
    57  H    0.045524
    58  H    0.030649
    59  H    0.068146
    60  H    0.248716
    61  H    0.028998
    62  H    0.038560
    63  H   -0.019550
    64  H    0.030883
    65  H    0.033125
    66  H   -0.001121
    67  H    0.044255
    68  H    0.035928
    69  H    0.010495
    70  H    0.031120
    71  H    0.054875
    72  H    0.221935
    73  H   -0.053737
    74  H    0.044395
    75  H    0.021392
    76  H    0.031166
    77  H    0.229241
    78  H    0.035129
    79  H    0.065985
 Sum of Mulliken charges =  -0.00000

 Dipole moment (field-independent basis, Debye):
    X=              2.9832    Y=              2.4212    Z=             -2.4229  Tot=              4.5423
 Quadrupole moment (field-independent basis, Debye-Ang):
   XX=           -223.5678   YY=           -240.9436   ZZ=           -265.8145
   XY=             -1.8958   XZ=            -21.4616   YZ=            -13.0783

 Normal termination of Gaussian 16 at Fri Jul 26 05:23:08 2019.
