 Gaussian 16, Revision A.03,
 Gaussian 16:  ES64L-G16RevA.03 25-Dec-2016

 --------------------------
 # td=(NStates=1) B3LYP/SVP
 --------------------------

 --
 TD
 --
 Symbolic Z-matrix:
 Charge =  0 Multiplicity = 1

                         Standard orientation:
 ---------------------------------------------------------------------
 Center     Atomic      Atomic             Coordinates (Angstroms)
 Number     Number       Type             X           Y           Z
 ---------------------------------------------------------------------
      1          8           0       -3.364900   -1.214398   -3.009171
      2          8           0        3.290592    2.770587    3.304240
      3          8           0        3.654433    0.909152    4.630204
      4          8           0        7.663989   -1.640063   -0.932011
      5          8           0        6.538751   -2.860575   -2.397450
      6          8           0       -2.558830    1.622644    1.603044
      7          7           0       -0.298649   -2.513301    0.851083
      8          7           0       -2.677211   -1.177425   -0.777415
      9          7           0        1.117130    0.180706   -0.759580
     10          7           0       -0.990201    1.442367   -0.160743
     11          6           0       -3.419212   -1.353954    0.556019
     12          6           0       -2.643423   -2.345441    1.408097
     13          6           0       -1.303421   -2.099269    1.679244
     14          6           0       -0.575662   -1.320150    2.809970
     15          6           0        0.754503   -1.380456    2.363716
     16          6           0        0.886092   -1.897412    1.133488
     17          6           0       -4.801884   -1.848301    0.165356
     18          6           0        1.824612   -0.733737    3.172815
     19          6           0       -4.919095   -1.901848   -1.165513
     20          6           0        2.043272   -1.849209    0.162829
     21          6           0        2.052770   -0.833043   -0.784858
     22          6           0       -3.575716   -1.454418   -1.858172
     23          6           0        3.069769   -0.486346   -1.813953
     24          6           0       -1.278615   -0.692583    3.837264
     25          6           0       -5.846012   -2.146486    1.181704
     26          6           0        2.599021    0.640198   -2.415535
     27          6           0        1.949647    0.759751    2.929570
     28          6           0        1.439608    1.100977   -1.754057
     29          6           0        4.175964   -1.441699   -2.075672
     30          6           0       -5.966440   -2.311974   -2.079929
     31          6           0        5.365569   -1.096560   -1.196120
     32          6           0        3.157531    1.277761   -3.566335
     33          6           0        0.499100    2.166022   -1.921313
     34          6           0        3.131130    1.473556    3.721511
     35          6           0       -0.582843    2.380615   -1.125621
     36          6           0       -7.000258   -3.064181   -1.888761
     37          6           0        6.561078   -1.901790   -1.578879
     38          6           0       -1.298455    3.655778   -1.017451
     39          6           0       -2.183311    3.535137    0.082316
     40          6           0       -1.978483    2.072172    0.614731
     41          6           0       -1.138029    4.717808   -1.960021
     42          6           0       -3.124425    4.387990    0.609273
     43          6           0       -1.838931    5.991851   -1.982299
     44          1           0       -3.415156   -0.338238    1.094722
     45          1           0       -2.905089   -3.321441    1.295038
     46          1           0       -3.121957   -2.552127    2.528345
     47          1           0       -0.656632   -2.896276   -0.074944
     48          1           0       -1.860775   -0.279792   -0.830887
     49          1           0        1.845103   -0.872388    4.357031
     50          1           0        2.850539   -1.041660    3.048222
     51          1           0        2.683441   -2.701323    0.207139
     52          1           0       -2.077488   -1.544119    4.004842
     53          1           0       -0.701107   -0.315573    4.718203
     54          1           0       -2.088702   -0.020055    3.528141
     55          1           0       -5.950620   -1.401605    1.998698
     56          1           0       -5.700015   -3.169422    1.596057
     57          1           0       -6.788249   -2.006311    0.663947
     58          1           0        1.894176    0.927825    1.915930
     59          1           0        0.857653    1.216440    3.061500
     60          1           0        0.440529    0.317639    0.110168
     61          1           0        4.456566   -1.238026   -3.136632
     62          1           0        3.880261   -2.521328   -1.908170
     63          1           0       -5.581694   -2.000776   -3.183051
     64          1           0        5.154773   -1.230820   -0.121733
     65          1           0        5.834756   -0.092663   -1.460131
     66          1           0        4.251345    0.819618   -3.726811
     67          1           0        3.262805    2.549535   -3.362625
     68          1           0        2.640998    1.266321   -4.578847
     69          1           0        0.870894    2.810826   -2.731098
     70          1           0       -7.127939   -3.456333   -0.966297
     71          1           0       -7.885995   -3.198290   -2.591387
     72          1           0        3.901968    3.225651    3.910861
     73          1           0       -0.464008    4.556850   -2.789635
     74          1           0       -3.921787    4.514141   -0.108330
     75          1           0       -3.802149    3.738677    1.320153
     76          1           0       -2.849772    5.453403    0.775174
     77          1           0        8.378343   -2.290807   -1.408263
     78          1           0       -1.750070    6.408464   -2.968067
     79          1           0       -2.617418    6.454244   -1.312012
 ---------------------------------------------------------------------

 SCF Done:  E(RB3LYP) =  -1947.80875245     A.U. after   21 cycles

 Excitation energies and oscillator strengths:

 Excited State   1:      Singlet-A      0.5509 eV 2250.42 nm  f=0.0014  <S**2>=0.000
     155 ->156         0.70508
 This state for optimization and/or second-order correction.
 Total Energy, E(TD-HF/TD-DFT) =  -1947.78850586
 Copying the excited state density for this state as the 1-particle RhoCI density.

 The electronic state is 1-A.
 Alpha  occ. eigenvalues --  -19.20903 -19.18730 -19.13576 -19.12892 -19.12288
 Alpha  occ. eigenvalues --  -19.09110 -14.37599 -14.36662 -14.32430 -14.31254
 Alpha  occ. eigenvalues --  -10.33195 -10.32645 -10.28412 -10.27170 -10.26721
 Alpha  occ. eigenvalues --  -10.25616 -10.25230 -10.24130 -10.23541 -10.23484
 Alpha  occ. eigenvalues --  -10.23265 -10.22934 -10.22913 -10.22070 -10.22069
 Alpha  occ. eigenvalues --  -10.21307 -10.21293 -10.21139 -10.21016 -10.20331
 Alpha  occ. eigenvalues --  -10.19823 -10.19638 -10.19484 -10.19246 -10.19167
 Alpha  occ. eigenvalues --  -10.18690 -10.18395 -10.18315 -10.18277 -10.17290
 Alpha  occ. eigenvalues --  -10.17033 -10.16927 -10.16642  -1.11541  -1.09334
 Alpha  occ. eigenvalues --   -1.02309  -1.02077  -1.01500  -0.99601  -0.99068
 Alpha  occ. eigenvalues --   -0.96498  -0.92079  -0.88510  -0.85224  -0.82988
 Alpha  occ. eigenvalues --   -0.81478  -0.80565  -0.80009  -0.79774  -0.78683
 Alpha  occ. eigenvalues --   -0.77311  -0.75767  -0.75464  -0.74861  -0.73522
 Alpha  occ. eigenvalues --   -0.71028  -0.70528  -0.69806  -0.69086  -0.67195
 Alpha  occ. eigenvalues --   -0.65827  -0.65402  -0.62945  -0.61309  -0.60326
 Alpha  occ. eigenvalues --   -0.59444  -0.59350  -0.58264  -0.57495  -0.56839
 Alpha  occ. eigenvalues --   -0.55405  -0.55029  -0.54111  -0.53295  -0.53119
 Alpha  occ. eigenvalues --   -0.52579  -0.51302  -0.51030  -0.50112  -0.49704
 Alpha  occ. eigenvalues --   -0.49643  -0.49242  -0.48658  -0.48338  -0.48211
 Alpha  occ. eigenvalues --   -0.46817  -0.46756  -0.46448  -0.46135  -0.46040
 Alpha  occ. eigenvalues --   -0.45785  -0.45070  -0.44691  -0.44557  -0.44329
 Alpha  occ. eigenvalues --   -0.44077  -0.43591  -0.42702  -0.42574  -0.42354
 Alpha  occ. eigenvalues --   -0.41892  -0.41554  -0.41346  -0.41239  -0.41127
 Alpha  occ. eigenvalues --   -0.40714  -0.40347  -0.39971  -0.39810  -0.39760
 Alpha  occ. eigenvalues --   -0.39443  -0.39055  -0.38683  -0.38463  -0.38182
 Alpha  occ. eigenvalues --   -0.37898  -0.37710  -0.37506  -0.37085  -0.36342
 Alpha  occ. eigenvalues --   -0.36217  -0.35830  -0.35805  -0.35150  -0.33714
 Alpha  occ. eigenvalues --   -0.33372  -0.32472  -0.32179  -0.31295  -0.30672
 Alpha  occ. eigenvalues --   -0.30460  -0.29684  -0.29328  -0.28843  -0.28673
 Alpha  occ. eigenvalues --   -0.28601  -0.27462  -0.25523  -0.24573  -0.23357
 Alpha  occ. eigenvalues --   -0.22946  -0.22622  -0.22563  -0.22116  -0.17488
 Alpha virt. eigenvalues --   -0.13020  -0.08115  -0.03497  -0.03055  -0.01334
 Alpha virt. eigenvalues --   -0.00080   0.00796   0.01551   0.01659   0.02757
 Alpha virt. eigenvalues --    0.03117   0.04047   0.04277   0.04465   0.04853

 Mulliken charges:
               1
     1  O   -0.202864
     2  O   -0.195503
     3  O   -0.192695
     4  O   -0.189800
     5  O   -0.294626
     6  O   -0.219348
     7  N   -0.042704
     8  N   -0.367223
     9  N   -0.155802
    10  N   -0.377890
    11  C    0.122859
    12  C    0.114490
    13  C   -0.102824
    14  C   -0.067053
    15  C   -0.076175
    16  C   -0.055952
    17  C   -0.180239
    18  C    0.061481
    19  C   -0.080909
    20  C   -0.079215
    21  C    0.116966
    22  C    0.180163
    23  C   -0.051446
    24  C    0.087630
    25  C    0.100503
    26  C   -0.038695
    27  C   -0.032233
    28  C    0.087335
    29  C    0.107318
    30  C   -0.018568
    31  C    0.002185
    32  C   -0.070200
    33  C   -0.098222
    34  C    0.179287
    35  C    0.192092
    36  C   -0.014815
    37  C    0.117216
    38  C    0.089649
    39  C   -0.198978
    40  C    0.215362
    41  C   -0.062424
    42  C    0.081618
    43  C   -0.042977
    44  H    0.061962
    45  H   -0.054493
    46  H   -0.015044
    47  H    0.133179
    48  H    0.211189
    49  H    0.023124
    50  H   -0.033089
    51  H    0.010617
    52  H   -0.004027
    53  H    0.024375
    54  H    0.024450
    55  H    0.020736
    56  H    0.039708
    57  H    0.016301
    58  H   -0.039284
    59  H    0.041545
    60  H    0.257450
    61  H    0.020038
    62  H    0.053446
    63  H    0.035620
    64  H    0.062746
    65  H    0.048144
    66  H    0.040896
    67  H    0.049989
    68  H    0.067227
    69  H   -0.027133
    70  H   -0.025804
    71  H    0.033880
    72  H    0.179723
    73  H   -0.004143
    74  H    0.015090
    75  H    0.037591
    76  H    0.047638
    77  H    0.236700
    78  H    0.023779
    79  H    0.039100
 Sum of Mulliken charges =  -0.00000

 Dipole moment (field-independent basis, Debye):
    X=              4.5181    Y=              3.4822    Z=             -1.0444  Tot=              5.7991
 Quadrupole moment (field-independent basis, Debye-Ang):
   XX=           -226.0669   YY=           -237.9219   ZZ=           -271.6986
   XY=              4.2795   XZ=            -21.6884   YZ=            -10.4059

 Normal termination of Gaussian 16 at Sat Jul 27 18:42:17 2019.
