 Gaussian 16, Revision A.03,
 Gaussian 16:  ES64L-G16RevA.03 25-Dec-2016

 --------------------------
 # td=(NStates=1) B3LYP/SVP
 --------------------------

 --
 TD
 --
 Symbolic Z-matrix:
 Charge =  0 Multiplicity = 1

                         Standard orientation:
 ---------------------------------------------------------------------
 Center     Atomic      Atomic             Coordinates (Angstroms)
 Number     Number       Type             X           Y           Z
 ---------------------------------------------------------------------
      1          8           0        5.430408   -0.100285   -3.248121
      2          8           0       -3.109950   -2.764919    3.057102
      3          8           0       -3.466258   -0.599420    2.691100
      4          8           0       -1.393000    7.193641    1.484427
      5          8           0       -0.232210    6.826603   -0.415802
      6          8           0       -1.776369   -3.966668    0.239595
      7          7           0        2.334582    0.910500    0.624258
      8          7           0        4.358032   -0.574000   -1.313056
      9          7           0       -1.738856    0.638700   -0.464185
     10          7           0       -2.560806   -1.879692   -0.507530
     11          6           0        4.650312   -1.243554   -0.044581
     12          6           0        4.347824   -0.414033    1.238282
     13          6           0        2.887015   -0.033645    1.337970
     14          6           0        1.842633   -0.543893    2.206977
     15          6           0        0.676838    0.055527    1.952864
     16          6           0        0.929316    0.947605    0.822971
     17          6           0        6.201668   -1.491865   -0.130284
     18          6           0       -0.601674   -0.127098    2.473821
     19          6           0        6.590850   -1.033588   -1.301267
     20          6           0        0.183888    2.049554    0.166944
     21          6           0       -1.056723    1.876285   -0.338437
     22          6           0        5.404185   -0.509236   -2.135982
     23          6           0       -1.877219    2.904233   -1.036902
     24          6           0        2.115406   -1.722248    3.160225
     25          6           0        6.943129   -1.981770    1.033690
     26          6           0       -2.966557    2.370187   -1.434950
     27          6           0       -1.232555   -1.448955    2.467475
     28          6           0       -2.990898    0.913968   -1.142051
     29          6           0       -1.545249    4.372553   -0.943702
     30          6           0        7.893440   -0.924253   -1.992215
     31          6           0       -1.691460    5.153848    0.325852
     32          6           0       -4.316773    3.032507   -1.912219
     33          6           0       -3.977387   -0.056410   -1.398713
     34          6           0       -2.767368   -1.572052    2.782967
     35          6           0       -3.645826   -1.507783   -1.104465
     36          6           0        9.086670   -1.023937   -1.380420
     37          6           0       -1.039245    6.468522    0.414115
     38          6           0       -4.512381   -2.608067   -1.296304
     39          6           0       -3.868169   -3.747072   -0.968739
     40          6           0       -2.656025   -3.301194   -0.286346
     41          6           0       -5.826285   -2.439242   -1.998457
     42          6           0       -4.225628   -5.146464   -1.036077
     43          6           0       -6.759337   -3.374578   -2.365332
     44          1           0        4.180127   -2.299643    0.169589
     45          1           0        4.956452    0.513937    1.111792
     46          1           0        4.905549   -0.908013    2.172125
     47          1           0        2.784365    1.204260   -0.409226
     48          1           0        3.493146   -0.512369   -1.687957
     49          1           0       -0.747035    0.111810    3.651028
     50          1           0       -1.302147    0.569276    1.986418
     51          1           0        0.622257    3.019452   -0.081867
     52          1           0        3.396865   -1.599375    3.270000
     53          1           0        1.668654   -1.572477    4.092319
     54          1           0        2.021525   -2.823761    2.748553
     55          1           0        6.308839   -2.892226    1.253824
     56          1           0        7.031939   -1.240035    1.890570
     57          1           0        8.022365   -2.382132    0.781698
     58          1           0       -1.122648   -1.738504    1.432936
     59          1           0       -0.770175   -2.124366    3.077130
     60          1           0       -1.624073   -0.309845   -0.313099
     61          1           0       -2.192093    4.925791   -1.770404
     62          1           0       -0.583469    4.439696   -1.288389
     63          1           0        7.936076   -0.855117   -3.128130
     64          1           0       -1.161047    4.452654    1.206673
     65          1           0       -2.772022    5.471872    0.859654
     66          1           0       -4.122615    4.125259   -1.888593
     67          1           0       -5.255686    2.581766   -1.564858
     68          1           0       -4.592163    2.461915   -2.931828
     69          1           0       -4.846203    0.105312   -1.927026
     70          1           0        9.202335   -1.125497   -0.307930
     71          1           0        9.981305   -0.741066   -1.772756
     72          1           0       -4.329962   -2.881218    2.736143
     73          1           0       -6.190206   -1.410843   -2.159353
     74          1           0       -5.194776   -5.402814   -0.447769
     75          1           0       -4.353527   -5.634255   -2.136604
     76          1           0       -3.490833   -5.946985   -0.573996
     77          1           0       -1.032736    8.160043    1.239515
     78          1           0       -7.752253   -3.071386   -2.812135
     79          1           0       -6.626232   -4.414397   -2.141127
 ---------------------------------------------------------------------

 SCF Done:  E(RB3LYP) =  -1947.78870586     A.U. after   16 cycles

 Excitation energies and oscillator strengths:

 Excited State   1:      Singlet-A      1.7591 eV  704.83 nm  f=0.2852  <S**2>=0.000
     155 ->156         0.70650
 This state for optimization and/or second-order correction.
 Total Energy, E(TD-HF/TD-DFT) =  -1947.72406152
 Copying the excited state density for this state as the 1-particle RhoCI density.

 The electronic state is 1-A.
 Alpha  occ. eigenvalues --  -19.19640 -19.19135 -19.12705 -19.11994 -19.10613
 Alpha  occ. eigenvalues --  -19.10074 -14.39373 -14.36198 -14.35605 -14.29293
 Alpha  occ. eigenvalues --  -10.32194 -10.29658 -10.28450 -10.27394 -10.26250
 Alpha  occ. eigenvalues --  -10.25070 -10.24044 -10.23556 -10.23240 -10.22864
 Alpha  occ. eigenvalues --  -10.22715 -10.22449 -10.22224 -10.21639 -10.21582
 Alpha  occ. eigenvalues --  -10.21342 -10.21324 -10.21318 -10.21109 -10.20802
 Alpha  occ. eigenvalues --  -10.20584 -10.20580 -10.20579 -10.20420 -10.20335
 Alpha  occ. eigenvalues --  -10.20066 -10.19823 -10.19729 -10.18313 -10.18301
 Alpha  occ. eigenvalues --  -10.18225 -10.17631 -10.16458  -1.10036  -1.08823
 Alpha  occ. eigenvalues --   -1.05005  -1.02485  -1.00766  -0.98893  -0.98687
 Alpha  occ. eigenvalues --   -0.96045  -0.95795  -0.93992  -0.83386  -0.83245
 Alpha  occ. eigenvalues --   -0.82373  -0.80912  -0.80356  -0.78998  -0.78083
 Alpha  occ. eigenvalues --   -0.76871  -0.76070  -0.75666  -0.74324  -0.72148
 Alpha  occ. eigenvalues --   -0.71770  -0.70305  -0.70142  -0.68944  -0.67546
 Alpha  occ. eigenvalues --   -0.65557  -0.65311  -0.64120  -0.62082  -0.60018
 Alpha  occ. eigenvalues --   -0.59954  -0.58955  -0.58386  -0.57483  -0.56991
 Alpha  occ. eigenvalues --   -0.56253  -0.54775  -0.54207  -0.53978  -0.53090
 Alpha  occ. eigenvalues --   -0.52831  -0.51406  -0.50949  -0.49989  -0.49846
 Alpha  occ. eigenvalues --   -0.48986  -0.48865  -0.48644  -0.48172  -0.48020
 Alpha  occ. eigenvalues --   -0.47676  -0.47369  -0.46843  -0.46071  -0.45533
 Alpha  occ. eigenvalues --   -0.45332  -0.44867  -0.44625  -0.44154  -0.43926
 Alpha  occ. eigenvalues --   -0.43507  -0.43311  -0.43244  -0.43000  -0.42536
 Alpha  occ. eigenvalues --   -0.42448  -0.42366  -0.41809  -0.41751  -0.41431
 Alpha  occ. eigenvalues --   -0.41269  -0.40715  -0.40347  -0.40135  -0.39830
 Alpha  occ. eigenvalues --   -0.39452  -0.39138  -0.38889  -0.38540  -0.38191
 Alpha  occ. eigenvalues --   -0.38055  -0.37710  -0.36814  -0.36576  -0.35911
 Alpha  occ. eigenvalues --   -0.35492  -0.35053  -0.34651  -0.34485  -0.33876
 Alpha  occ. eigenvalues --   -0.33313  -0.33230  -0.32870  -0.31662  -0.31512
 Alpha  occ. eigenvalues --   -0.30964  -0.30436  -0.28712  -0.28227  -0.28197
 Alpha  occ. eigenvalues --   -0.28009  -0.26828  -0.26205  -0.25559  -0.25120
 Alpha  occ. eigenvalues --   -0.24561  -0.24407  -0.23761  -0.22630  -0.18471
 Alpha virt. eigenvalues --   -0.11290  -0.06121  -0.05072  -0.04421  -0.01225
 Alpha virt. eigenvalues --   -0.00912  -0.00284   0.01411   0.02273   0.02328
 Alpha virt. eigenvalues --    0.02764   0.03616   0.03848   0.04553   0.05109

 Mulliken charges:
               1
     1  O   -0.179223
     2  O   -0.223922
     3  O   -0.230205
     4  O   -0.216006
     5  O   -0.233169
     6  O   -0.178848
     7  N   -0.098188
     8  N   -0.109713
     9  N   -0.105877
    10  N   -0.276739
    11  C    0.038745
    12  C    0.087664
    13  C   -0.056995
    14  C   -0.150042
    15  C    0.020571
    16  C    0.018098
    17  C   -0.162636
    18  C    0.034048
    19  C   -0.047381
    20  C   -0.089868
    21  C    0.115041
    22  C    0.097664
    23  C   -0.090069
    24  C    0.035092
    25  C    0.030434
    26  C   -0.082995
    27  C    0.038608
    28  C    0.118346
    29  C    0.134995
    30  C   -0.018589
    31  C   -0.089028
    32  C    0.095424
    33  C   -0.027797
    34  C    0.103172
    35  C    0.032557
    36  C   -0.005455
    37  C    0.129220
    38  C    0.052179
    39  C   -0.122859
    40  C    0.139502
    41  C   -0.040899
    42  C   -0.039222
    43  C   -0.031381
    44  H    0.043917
    45  H   -0.003082
    46  H    0.046006
    47  H    0.175048
    48  H    0.093453
    49  H    0.000676
    50  H    0.006175
    51  H   -0.003882
    52  H   -0.000461
    53  H    0.016055
    54  H    0.060386
    55  H    0.031736
    56  H    0.067908
    57  H    0.051603
    58  H    0.047388
    59  H   -0.020023
    60  H    0.100890
    61  H    0.023093
    62  H   -0.007063
    63  H    0.034895
    64  H    0.075295
    65  H    0.065371
    66  H    0.039473
    67  H    0.020038
    68  H    0.015682
    69  H   -0.066509
    70  H   -0.003418
    71  H   -0.003743
    72  H    0.267863
    73  H    0.001361
    74  H    0.041601
    75  H    0.050232
    76  H    0.044521
    77  H    0.224961
    78  H    0.038750
    79  H    0.009545
 Sum of Mulliken charges =  -0.00000

 Dipole moment (field-independent basis, Debye):
    X=             -1.3842    Y=              0.7393    Z=              1.3547  Tot=              2.0731
 Quadrupole moment (field-independent basis, Debye-Ang):
   XX=           -216.9556   YY=           -236.8869   ZZ=           -268.5000
   XY=             -5.1186   XZ=             32.0596   YZ=              3.3264

 Normal termination of Gaussian 16 at Tue Sep 24 16:45:05 2019.
