 Gaussian 16, Revision A.03,
 Gaussian 16:  ES64L-G16RevA.03 25-Dec-2016

 --------------------------
 # td=(NStates=1) B3LYP/SVP
 --------------------------

 --
 TD
 --
 Symbolic Z-matrix:
 Charge =  0 Multiplicity = 1

                         Standard orientation:
 ---------------------------------------------------------------------
 Center     Atomic      Atomic             Coordinates (Angstroms)
 Number     Number       Type             X           Y           Z
 ---------------------------------------------------------------------
      1          8           0        5.367734   -0.325258   -3.328808
      2          8           0       -3.072010   -2.933772    3.141575
      3          8           0       -3.353374   -0.727330    3.054771
      4          8           0       -1.470516    7.245398    1.532722
      5          8           0       -0.253084    6.932634   -0.316755
      6          8           0       -1.905814   -3.898804   -0.135388
      7          7           0        2.431683    0.845745    0.718659
      8          7           0        4.380631   -0.720169   -1.259791
      9          7           0       -1.866578    0.731638   -0.389583
     10          7           0       -2.778120   -1.804186   -0.444047
     11          6           0        4.791071   -1.171322   -0.045881
     12          6           0        4.538182   -0.235784    1.278988
     13          6           0        2.995582   -0.018867    1.449813
     14          6           0        2.041477   -0.631663    2.138569
     15          6           0        0.687503   -0.150187    1.816543
     16          6           0        1.033198    0.838348    0.741111
     17          6           0        6.279673   -1.364768   -0.178607
     18          6           0       -0.527590   -0.271308    2.476880
     19          6           0        6.691507   -0.948089   -1.466761
     20          6           0        0.226290    1.810191    0.138910
     21          6           0       -1.051353    1.799766   -0.311857
     22          6           0        5.484371   -0.592095   -2.138413
     23          6           0       -1.905161    2.950856   -0.872052
     24          6           0        2.254990   -1.853506    3.130758
     25          6           0        7.143203   -1.963174    0.891772
     26          6           0       -3.071263    2.369397   -1.364050
     27          6           0       -1.168266   -1.752878    2.512717
     28          6           0       -3.083507    0.950228   -1.165603
     29          6           0       -1.468384    4.372774   -0.937428
     30          6           0        7.957512   -0.850794   -2.064795
     31          6           0       -1.842690    5.197965    0.421084
     32          6           0       -4.118983    3.148655   -2.082952
     33          6           0       -3.995627    0.004564   -1.227930
     34          6           0       -2.641188   -1.666853    2.893998
     35          6           0       -3.848537   -1.307073   -1.031319
     36          6           0        9.172732   -0.890340   -1.412513
     37          6           0       -1.044407    6.473626    0.467857
     38          6           0       -4.763494   -2.448173   -1.434637
     39          6           0       -4.162420   -3.658268   -1.029965
     40          6           0       -2.856736   -3.216085   -0.455966
     41          6           0       -6.025854   -2.276150   -2.050733
     42          6           0       -4.598783   -5.087300   -1.091025
     43          6           0       -6.876206   -3.245678   -2.411922
     44          1           0        4.179679   -2.168807    0.204365
     45          1           0        5.180616    0.526484    0.856324
     46          1           0        4.878135   -0.704934    2.104213
     47          1           0        2.685094    1.312858   -0.122708
     48          1           0        3.475572   -0.817188   -1.646165
     49          1           0       -0.531850    0.004833    3.711332
     50          1           0       -1.285722    0.248808    1.923853
     51          1           0        0.760189    2.696038    0.010163
     52          1           0        3.332792   -2.372578    3.007457
     53          1           0        2.188002   -1.557704    4.379215
     54          1           0        1.479804   -2.675029    2.764194
     55          1           0        6.567586   -2.595728    1.625432
     56          1           0        7.686438   -1.250108    1.409823
     57          1           0        7.845652   -2.613712    0.461508
     58          1           0       -1.009240   -2.022740    1.421314
     59          1           0       -0.640358   -2.470038    3.219896
     60          1           0       -1.584579   -0.165992   -0.076084
     61          1           0       -2.054352    4.857612   -1.846228
     62          1           0       -0.382387    4.574102   -1.137340
     63          1           0        7.994420   -0.599503   -3.066365
     64          1           0       -1.581734    4.518766    1.308087
     65          1           0       -2.956211    5.336731    0.564974
     66          1           0       -3.790775    4.000672   -2.500386
     67          1           0       -5.157303    3.390638   -1.506637
     68          1           0       -4.343009    2.641939   -3.073689
     69          1           0       -4.803869    0.303882   -1.909707
     70          1           0        9.423594   -1.044073   -0.310102
     71          1           0       10.196175   -0.969243   -1.937911
     72          1           0       -4.001306   -2.845377    3.494224
     73          1           0       -6.283768   -1.268916   -2.356217
     74          1           0       -5.420844   -5.342609   -0.209712
     75          1           0       -4.777484   -5.414948   -2.207838
     76          1           0       -3.517691   -5.703850   -0.877714
     77          1           0       -0.519292    7.925092    1.617274
     78          1           0       -7.911875   -2.976459   -2.473153
     79          1           0       -6.477935   -4.369156   -2.294837
 ---------------------------------------------------------------------

 SCF Done:  E(RB3LYP) =  -1947.81447671     A.U. after   17 cycles

 Excitation energies and oscillator strengths:

 Excited State   1:      Singlet-A      1.9455 eV  637.29 nm  f=0.4137  <S**2>=0.000
     154 ->156         0.11560
     155 ->156         0.69642
     155 <-156        -0.11863
 This state for optimization and/or second-order correction.
 Total Energy, E(TD-HF/TD-DFT) =  -1947.74298156
 Copying the excited state density for this state as the 1-particle RhoCI density.

 The electronic state is 1-A.
 Alpha  occ. eigenvalues --  -19.18741 -19.16302 -19.14235 -19.11764 -19.10424
 Alpha  occ. eigenvalues --  -19.10087 -14.38339 -14.35647 -14.35505 -14.28453
 Alpha  occ. eigenvalues --  -10.32955 -10.30528 -10.28478 -10.26108 -10.25738
 Alpha  occ. eigenvalues --  -10.24601 -10.24083 -10.23361 -10.23092 -10.23074
 Alpha  occ. eigenvalues --  -10.23066 -10.22658 -10.22552 -10.22547 -10.22089
 Alpha  occ. eigenvalues --  -10.22084 -10.21982 -10.21555 -10.21279 -10.20773
 Alpha  occ. eigenvalues --  -10.20730 -10.20640 -10.20552 -10.20500 -10.20352
 Alpha  occ. eigenvalues --  -10.19977 -10.19915 -10.19846 -10.19606 -10.19548
 Alpha  occ. eigenvalues --  -10.19429 -10.19122 -10.18105  -1.08930  -1.08314
 Alpha  occ. eigenvalues --   -1.02853  -1.01620  -1.01610  -0.99395  -0.99383
 Alpha  occ. eigenvalues --   -0.97199  -0.95834  -0.91941  -0.83348  -0.83056
 Alpha  occ. eigenvalues --   -0.81988  -0.81133  -0.80636  -0.80122  -0.78152
 Alpha  occ. eigenvalues --   -0.77447  -0.76169  -0.75416  -0.74593  -0.73086
 Alpha  occ. eigenvalues --   -0.72378  -0.70843  -0.69469  -0.68411  -0.68136
 Alpha  occ. eigenvalues --   -0.67091  -0.66037  -0.64665  -0.62524  -0.61047
 Alpha  occ. eigenvalues --   -0.58967  -0.58589  -0.57957  -0.57061  -0.56811
 Alpha  occ. eigenvalues --   -0.56180  -0.55444  -0.55032  -0.54767  -0.53891
 Alpha  occ. eigenvalues --   -0.52568  -0.52043  -0.51524  -0.50382  -0.49870
 Alpha  occ. eigenvalues --   -0.49151  -0.48903  -0.48361  -0.47999  -0.47842
 Alpha  occ. eigenvalues --   -0.47605  -0.46900  -0.46663  -0.46120  -0.45540
 Alpha  occ. eigenvalues --   -0.45139  -0.44873  -0.44656  -0.44174  -0.43663
 Alpha  occ. eigenvalues --   -0.43533  -0.43395  -0.43225  -0.42819  -0.42630
 Alpha  occ. eigenvalues --   -0.42171  -0.41727  -0.41601  -0.41250  -0.40966
 Alpha  occ. eigenvalues --   -0.40786  -0.40470  -0.40408  -0.39991  -0.39458
 Alpha  occ. eigenvalues --   -0.39359  -0.39117  -0.38852  -0.38658  -0.38424
 Alpha  occ. eigenvalues --   -0.37770  -0.37536  -0.37395  -0.37280  -0.36809
 Alpha  occ. eigenvalues --   -0.36632  -0.35969  -0.35430  -0.35188  -0.34840
 Alpha  occ. eigenvalues --   -0.33439  -0.33042  -0.32538  -0.32430  -0.32326
 Alpha  occ. eigenvalues --   -0.31388  -0.31084  -0.29563  -0.29014  -0.27328
 Alpha  occ. eigenvalues --   -0.26740  -0.26358  -0.25896  -0.25563  -0.24624
 Alpha  occ. eigenvalues --   -0.24165  -0.23847  -0.23765  -0.21805  -0.18752
 Alpha virt. eigenvalues --   -0.11126  -0.07683  -0.06784  -0.02072  -0.01004
 Alpha virt. eigenvalues --   -0.00347  -0.00051   0.01044   0.01786   0.02118
 Alpha virt. eigenvalues --    0.03657   0.03885   0.04472   0.05177   0.05306

 Mulliken charges:
               1
     1  O   -0.226759
     2  O   -0.208386
     3  O   -0.207372
     4  O   -0.293650
     5  O   -0.215126
     6  O   -0.190770
     7  N    0.039914
     8  N   -0.135473
     9  N   -0.108825
    10  N   -0.272857
    11  C    0.000330
    12  C    0.255122
    13  C   -0.091004
    14  C   -0.140435
    15  C   -0.029686
    16  C   -0.003056
    17  C   -0.197747
    18  C    0.033910
    19  C    0.033316
    20  C   -0.081160
    21  C    0.090404
    22  C    0.116379
    23  C   -0.055652
    24  C   -0.063917
    25  C    0.137770
    26  C   -0.100888
    27  C   -0.095265
    28  C    0.132158
    29  C    0.021556
    30  C    0.026082
    31  C   -0.043080
    32  C    0.097014
    33  C   -0.070693
    34  C    0.154255
    35  C    0.090174
    36  C   -0.097834
    37  C    0.173475
    38  C    0.080424
    39  C   -0.184072
    40  C    0.146429
    41  C   -0.061505
    42  C   -0.045345
    43  C   -0.032897
    44  H    0.031627
    45  H   -0.005215
    46  H   -0.034670
    47  H    0.106377
    48  H    0.120970
    49  H    0.042045
    50  H    0.002531
    51  H   -0.047942
    52  H    0.019500
    53  H    0.050907
    54  H    0.069199
    55  H    0.022227
    56  H    0.021113
    57  H    0.020518
    58  H    0.093144
    59  H    0.053771
    60  H    0.118663
    61  H    0.037139
    62  H    0.043045
    63  H   -0.013396
    64  H    0.064376
    65  H    0.063367
    66  H   -0.039322
    67  H    0.055343
    68  H    0.019430
    69  H   -0.024228
    70  H    0.026706
    71  H    0.041716
    72  H    0.179752
    73  H   -0.020802
    74  H    0.078445
    75  H    0.063857
    76  H    0.055067
    77  H    0.246111
    78  H    0.024376
    79  H    0.038994
 Sum of Mulliken charges =  -0.00000

 Dipole moment (field-independent basis, Debye):
    X=              1.4602    Y=              1.6857    Z=              2.7353  Tot=              3.5293
 Quadrupole moment (field-independent basis, Debye-Ang):
   XX=           -214.2397   YY=           -255.2049   ZZ=           -263.3014
   XY=             -6.6813   XZ=             31.3004   YZ=             -0.5861

 Normal termination of Gaussian 16 at Sat Sep 21 06:56:27 2019.
