 Gaussian 16, Revision A.03,
 Gaussian 16:  ES64L-G16RevA.03 25-Dec-2016

 --------------------------
 # td=(NStates=1) B3LYP/SVP
 --------------------------

 --
 TD
 --
 Symbolic Z-matrix:
 Charge =  0 Multiplicity = 1

                         Standard orientation:
 ---------------------------------------------------------------------
 Center     Atomic      Atomic             Coordinates (Angstroms)
 Number     Number       Type             X           Y           Z
 ---------------------------------------------------------------------
      1          8           0       -3.331354   -1.427502   -2.877039
      2          8           0        3.013674    3.109377    3.090078
      3          8           0        3.781461    1.384195    4.339441
      4          8           0        7.777645   -1.572904   -0.744589
      5          8           0        6.675373   -3.073583   -1.947667
      6          8           0       -2.546838    1.648505    1.457354
      7          7           0       -0.249496   -2.314240    0.871214
      8          7           0       -2.712738   -1.209696   -0.658363
      9          7           0        1.131147    0.041464   -0.712431
     10          7           0       -0.999460    1.416801   -0.203146
     11          6           0       -3.385668   -1.303390    0.603957
     12          6           0       -2.659576   -2.165106    1.571661
     13          6           0       -1.237015   -1.950753    1.768528
     14          6           0       -0.554882   -1.222897    2.862785
     15          6           0        0.733681   -1.197535    2.459050
     16          6           0        0.962120   -1.921394    1.269322
     17          6           0       -4.837646   -1.808811    0.333569
     18          6           0        1.846147   -0.358262    3.237249
     19          6           0       -4.854733   -1.934555   -1.061841
     20          6           0        2.050801   -1.887043    0.259101
     21          6           0        2.112869   -0.911678   -0.620057
     22          6           0       -3.590099   -1.422521   -1.652305
     23          6           0        3.086832   -0.756958   -1.702480
     24          6           0       -1.326461   -0.509162    3.936135
     25          6           0       -5.870690   -2.069684    1.270383
     26          6           0        2.572771    0.367497   -2.394712
     27          6           0        1.962234    1.054153    2.696963
     28          6           0        1.438319    0.924514   -1.743404
     29          6           0        4.246728   -1.551853   -2.124930
     30          6           0       -5.995401   -2.456920   -1.940684
     31          6           0        5.373950   -1.189790   -1.069970
     32          6           0        3.124281    1.053732   -3.726576
     33          6           0        0.435519    1.902474   -2.116824
     34          6           0        3.047134    1.846464    3.554095
     35          6           0       -0.632861    2.252429   -1.239131
     36          6           0       -7.000443   -3.304425   -1.607752
     37          6           0        6.597348   -2.007000   -1.388067
     38          6           0       -1.381942    3.557401   -1.183328
     39          6           0       -2.294067    3.406302   -0.200020
     40          6           0       -1.973590    2.046706    0.376706
     41          6           0       -1.026365    4.578997   -2.152239
     42          6           0       -3.398438    4.305291    0.128454
     43          6           0       -1.731360    5.799558   -2.284207
     44          1           0       -3.506282   -0.363240    0.819259
     45          1           0       -2.733006   -3.186208    1.201454
     46          1           0       -3.089592   -2.049480    2.490266
     47          1           0       -0.416604   -2.752252   -0.105120
     48          1           0       -2.093362   -0.532505   -0.739691
     49          1           0        1.429268   -0.419390    4.411845
     50          1           0        2.828099   -0.741513    3.445190
     51          1           0        2.721796   -2.771139    0.349050
     52          1           0       -2.094876   -0.958510    4.472137
     53          1           0       -0.399196   -0.248536    4.727267
     54          1           0       -1.706592    0.361890    3.466269
     55          1           0       -5.655704   -1.694500    2.301165
     56          1           0       -5.975939   -3.143787    1.711039
     57          1           0       -6.811717   -1.710728    0.684128
     58          1           0        2.207897    1.125111    1.666044
     59          1           0        1.106704    1.609747    2.880653
     60          1           0        0.156821    0.317958   -0.126398
     61          1           0        4.620130   -1.601565   -3.071397
     62          1           0        4.133639   -2.594703   -1.891840
     63          1           0       -5.849280   -2.005167   -2.979219
     64          1           0        5.070057   -1.374740   -0.183644
     65          1           0        5.612910   -0.157473   -1.118261
     66          1           0        4.139802    0.468764   -3.997275
     67          1           0        3.499277    2.087401   -3.578854
     68          1           0        2.461931    1.084804   -4.724633
     69          1           0        0.837522    2.466706   -3.096053
     70          1           0       -7.245662   -3.524586   -0.594248
     71          1           0       -7.884551   -3.530723   -2.286444
     72          1           0        3.449729    3.810432    3.578655
     73          1           0        0.142703    4.620816   -2.804638
     74          1           0       -4.016833    4.162333   -0.829650
     75          1           0       -4.072319    3.808414    0.966201
     76          1           0       -3.305262    5.432454    0.574932
     77          1           0        8.460009   -1.964909   -1.228273
     78          1           0       -1.600264    6.686592   -3.112566
     79          1           0       -2.604116    6.202532   -1.615471
 ---------------------------------------------------------------------

 SCF Done:  E(RB3LYP) =  -1947.76913037     A.U. after   19 cycles

 Excitation energies and oscillator strengths:

 Excited State   1:      Singlet-A      0.8065 eV 1537.25 nm  f=0.0003  <S**2>=0.000
     155 ->156         0.70430
 This state for optimization and/or second-order correction.
 Total Energy, E(TD-HF/TD-DFT) =  -1947.73949089
 Copying the excited state density for this state as the 1-particle RhoCI density.

 The electronic state is 1-A.
 Alpha  occ. eigenvalues --  -19.17453 -19.17436 -19.14886 -19.12756 -19.10614
 Alpha  occ. eigenvalues --  -19.07385 -14.37536 -14.36959 -14.32561 -14.32447
 Alpha  occ. eigenvalues --  -10.33810 -10.31358 -10.27927 -10.26829 -10.26545
 Alpha  occ. eigenvalues --  -10.26293 -10.25613 -10.24360 -10.24344 -10.23660
 Alpha  occ. eigenvalues --  -10.23628 -10.23250 -10.22772 -10.22604 -10.22198
 Alpha  occ. eigenvalues --  -10.21919 -10.21908 -10.21860 -10.21682 -10.20994
 Alpha  occ. eigenvalues --  -10.20872 -10.20422 -10.19982 -10.19868 -10.19788
 Alpha  occ. eigenvalues --  -10.19058 -10.18997 -10.18590 -10.18300 -10.18051
 Alpha  occ. eigenvalues --  -10.17479 -10.17078 -10.16785  -1.10287  -1.09554
 Alpha  occ. eigenvalues --   -1.02068  -1.01305  -1.01232  -0.99869  -0.99262
 Alpha  occ. eigenvalues --   -0.97006  -0.93936  -0.93074  -0.85047  -0.82634
 Alpha  occ. eigenvalues --   -0.82443  -0.81248  -0.79489  -0.79283  -0.78850
 Alpha  occ. eigenvalues --   -0.76996  -0.75667  -0.74975  -0.74374  -0.72785
 Alpha  occ. eigenvalues --   -0.70867  -0.70735  -0.69959  -0.69319  -0.67853
 Alpha  occ. eigenvalues --   -0.66546  -0.66172  -0.63722  -0.61187  -0.60845
 Alpha  occ. eigenvalues --   -0.60128  -0.59902  -0.59485  -0.58984  -0.56881
 Alpha  occ. eigenvalues --   -0.56089  -0.55521  -0.54895  -0.53394  -0.53364
 Alpha  occ. eigenvalues --   -0.52863  -0.52089  -0.51208  -0.51153  -0.50714
 Alpha  occ. eigenvalues --   -0.49546  -0.48876  -0.48341  -0.47973  -0.47785
 Alpha  occ. eigenvalues --   -0.47401  -0.47124  -0.46576  -0.46253  -0.45975
 Alpha  occ. eigenvalues --   -0.45657  -0.45490  -0.45113  -0.44842  -0.43934
 Alpha  occ. eigenvalues --   -0.43739  -0.43214  -0.42507  -0.41896  -0.41750
 Alpha  occ. eigenvalues --   -0.41524  -0.41393  -0.41308  -0.41056  -0.40785
 Alpha  occ. eigenvalues --   -0.40564  -0.40256  -0.39933  -0.39631  -0.39514
 Alpha  occ. eigenvalues --   -0.39194  -0.38831  -0.38780  -0.38540  -0.38150
 Alpha  occ. eigenvalues --   -0.37834  -0.37708  -0.37271  -0.37073  -0.36684
 Alpha  occ. eigenvalues --   -0.36616  -0.36158  -0.35320  -0.35046  -0.33609
 Alpha  occ. eigenvalues --   -0.33245  -0.33057  -0.32539  -0.32207  -0.30977
 Alpha  occ. eigenvalues --   -0.30541  -0.29964  -0.29664  -0.29164  -0.28765
 Alpha  occ. eigenvalues --   -0.27830  -0.27017  -0.25396  -0.24978  -0.24080
 Alpha  occ. eigenvalues --   -0.23543  -0.23202  -0.22782  -0.22504  -0.18527
 Alpha virt. eigenvalues --   -0.12928  -0.08085  -0.04460  -0.03388  -0.02595
 Alpha virt. eigenvalues --    0.01215   0.01598   0.02023   0.02336   0.02816
 Alpha virt. eigenvalues --    0.03704   0.04195   0.04621   0.04784   0.05200

 Mulliken charges:
               1
     1  O   -0.276988
     2  O   -0.197323
     3  O   -0.168381
     4  O   -0.203582
     5  O   -0.208202
     6  O   -0.284822
     7  N   -0.069895
     8  N   -0.101079
     9  N   -0.192121
    10  N   -0.244851
    11  C    0.167932
    12  C    0.356367
    13  C   -0.191063
    14  C   -0.081271
    15  C   -0.097783
    16  C   -0.049950
    17  C   -0.157355
    18  C    0.007952
    19  C   -0.108821
    20  C   -0.185662
    21  C    0.237750
    22  C    0.119749
    23  C   -0.035292
    24  C    0.101085
    25  C    0.017415
    26  C   -0.121815
    27  C    0.049460
    28  C    0.086653
    29  C    0.154016
    30  C   -0.002017
    31  C    0.102455
    32  C   -0.020270
    33  C   -0.103158
    34  C    0.113795
    35  C    0.105390
    36  C   -0.042308
    37  C    0.125282
    38  C    0.097073
    39  C   -0.147504
    40  C    0.147507
    41  C   -0.073594
    42  C   -0.032231
    43  C   -0.133606
    44  H   -0.047153
    45  H   -0.029212
    46  H   -0.062091
    47  H    0.146690
    48  H    0.076811
    49  H    0.017437
    50  H   -0.000856
    51  H    0.026242
    52  H   -0.002801
    53  H    0.008499
    54  H    0.034914
    55  H    0.014247
    56  H    0.044738
    57  H    0.073256
    58  H    0.021131
    59  H    0.009059
    60  H    0.271729
    61  H   -0.003522
    62  H    0.008440
    63  H    0.029689
    64  H   -0.010572
    65  H    0.022541
    66  H    0.026963
    67  H    0.040554
    68  H    0.072449
    69  H    0.031243
    70  H    0.003131
    71  H    0.033904
    72  H    0.172110
    73  H    0.071428
    74  H    0.057340
    75  H    0.040792
    76  H    0.075558
    77  H    0.155748
    78  H    0.057477
    79  H    0.053150
 Sum of Mulliken charges =  -0.00000

 Dipole moment (field-independent basis, Debye):
    X=              2.8016    Y=              4.3559    Z=             -1.2337  Tot=              5.3240
 Quadrupole moment (field-independent basis, Debye-Ang):
   XX=           -237.5069   YY=           -234.3210   ZZ=           -268.1641
   XY=              5.8165   XZ=            -31.1096   YZ=            -12.0200

 Normal termination of Gaussian 16 at Thu Jul 25 01:18:57 2019.
