 Gaussian 16, Revision A.03,
 Gaussian 16:  ES64L-G16RevA.03 25-Dec-2016

 --------------------------
 # td=(NStates=1) B3LYP/SVP
 --------------------------

 --
 TD
 --
 Symbolic Z-matrix:
 Charge =  0 Multiplicity = 1

                         Standard orientation:
 ---------------------------------------------------------------------
 Center     Atomic      Atomic             Coordinates (Angstroms)
 Number     Number       Type             X           Y           Z
 ---------------------------------------------------------------------
      1          8           0        5.286487    0.165703   -3.239641
      2          8           0       -2.991824   -2.821069    3.360307
      3          8           0       -3.241479   -0.654074    3.021006
      4          8           0       -1.986561    7.139964    1.416068
      5          8           0       -1.036702    6.931792   -0.605145
      6          8           0       -1.400327   -4.001070    0.367426
      7          7           0        2.248667    1.230806    0.581786
      8          7           0        4.294098   -0.552305   -1.263870
      9          7           0       -1.898164    0.567339   -0.342688
     10          7           0       -2.381323   -1.925467   -0.469877
     11          6           0        4.687814   -1.082134    0.036443
     12          6           0        4.375168   -0.027796    1.161640
     13          6           0        2.864998    0.193987    1.264283
     14          6           0        1.976364   -0.428645    2.088259
     15          6           0        0.730576    0.117232    1.766403
     16          6           0        0.855760    1.173669    0.824795
     17          6           0        6.213737   -1.219347   -0.111879
     18          6           0       -0.546062   -0.123285    2.596448
     19          6           0        6.642521   -0.708021   -1.316791
     20          6           0       -0.036302    2.140802    0.177100
     21          6           0       -1.205712    1.768037   -0.252134
     22          6           0        5.352589   -0.252030   -2.039991
     23          6           0       -2.107184    2.764623   -1.029650
     24          6           0        2.315779   -1.518531    3.004008
     25          6           0        7.074455   -1.874330    0.926818
     26          6           0       -3.184568    2.115997   -1.532042
     27          6           0       -1.115821   -1.507247    2.691549
     28          6           0       -3.043264    0.756468   -1.069019
     29          6           0       -1.871234    4.228027   -1.074836
     30          6           0        7.890144   -0.535559   -1.898298
     31          6           0       -2.242227    5.012680    0.339190
     32          6           0       -4.377799    2.744558   -2.150561
     33          6           0       -3.917229   -0.290485   -1.405779
     34          6           0       -2.498795   -1.605300    3.193477
     35          6           0       -3.539990   -1.640567   -1.114336
     36          6           0        9.119555   -0.567207   -1.349562
     37          6           0       -1.686678    6.485086    0.307433
     38          6           0       -4.321475   -2.953888   -1.434447
     39          6           0       -3.514227   -4.009320   -1.058784
     40          6           0       -2.308572   -3.373449   -0.265732
     41          6           0       -5.552620   -2.927621   -2.131700
     42          6           0       -3.508230   -5.536458   -1.127091
     43          6           0       -6.274338   -3.925625   -2.544497
     44          1           0        4.312583   -2.014810    0.145572
     45          1           0        4.740835    0.994040    1.028489
     46          1           0        4.656440   -0.489794    1.949474
     47          1           0        2.419313    1.894979   -0.251431
     48          1           0        3.311760   -0.661738   -1.545334
     49          1           0       -0.468478    0.256542    3.658574
     50          1           0       -1.406381    0.404287    2.048231
     51          1           0        0.335487    3.212123    0.381066
     52          1           0        3.376329   -1.788456    2.988867
     53          1           0        1.799368   -1.276673    3.867222
     54          1           0        1.827246   -2.493728    2.592007
     55          1           0        6.520996   -2.546117    1.336780
     56          1           0        7.618089   -1.119734    1.453640
     57          1           0        7.845083   -2.396743    0.288241
     58          1           0       -0.987300   -1.998764    1.684728
     59          1           0       -0.751765   -2.313275    3.394964
     60          1           0       -1.725787   -0.497375   -0.023357
     61          1           0       -2.247084    4.631828   -1.825605
     62          1           0       -0.653391    4.449753   -1.269266
     63          1           0        7.987556   -0.191128   -2.929813
     64          1           0       -1.937763    4.462247    1.355818
     65          1           0       -3.407354    5.095730    0.452873
     66          1           0       -4.410119    3.791522   -2.198755
     67          1           0       -5.339242    2.516766   -1.537993
     68          1           0       -4.682194    2.676180   -3.283890
     69          1           0       -4.848232   -0.155323   -2.114231
     70          1           0        9.286983   -1.023439   -0.318294
     71          1           0        9.974493   -0.175469   -2.007157
     72          1           0       -3.909842   -2.641634    3.516761
     73          1           0       -5.919821   -1.838630   -2.190644
     74          1           0       -4.625400   -6.017548   -0.807998
     75          1           0       -3.539216   -5.978046   -2.322885
     76          1           0       -2.671094   -5.757918   -0.608473
     77          1           0       -1.464661    8.015160    1.401871
     78          1           0       -7.399882   -3.811162   -2.896788
     79          1           0       -5.980030   -4.912154   -2.335176
 ---------------------------------------------------------------------

 SCF Done:  E(RB3LYP) =  -1947.81592991     A.U. after   16 cycles

 Excitation energies and oscillator strengths:

 Excited State   1:      Singlet-A      2.0440 eV  606.57 nm  f=0.2892  <S**2>=0.000
     155 ->156         0.70048
 This state for optimization and/or second-order correction.
 Total Energy, E(TD-HF/TD-DFT) =  -1947.74081384
 Copying the excited state density for this state as the 1-particle RhoCI density.

 The electronic state is 1-A.
 Alpha  occ. eigenvalues --  -19.20179 -19.17630 -19.13596 -19.12146 -19.10461
 Alpha  occ. eigenvalues --  -19.08155 -14.37820 -14.36455 -14.35232 -14.30963
 Alpha  occ. eigenvalues --  -10.33265 -10.29972 -10.28801 -10.27804 -10.25400
 Alpha  occ. eigenvalues --  -10.24879 -10.24421 -10.24049 -10.24037 -10.21925
 Alpha  occ. eigenvalues --  -10.21851 -10.21724 -10.21713 -10.21673 -10.21550
 Alpha  occ. eigenvalues --  -10.21351 -10.21341 -10.21244 -10.21088 -10.21056
 Alpha  occ. eigenvalues --  -10.20482 -10.20240 -10.20189 -10.19941 -10.19720
 Alpha  occ. eigenvalues --  -10.19718 -10.19541 -10.19048 -10.18997 -10.18932
 Alpha  occ. eigenvalues --  -10.18342 -10.18214 -10.17504  -1.11318  -1.10387
 Alpha  occ. eigenvalues --   -1.01881  -0.99631  -0.99335  -0.98990  -0.97854
 Alpha  occ. eigenvalues --   -0.96649  -0.92591  -0.90947  -0.82688  -0.82426
 Alpha  occ. eigenvalues --   -0.82117  -0.81175  -0.80918  -0.79375  -0.77450
 Alpha  occ. eigenvalues --   -0.76570  -0.76441  -0.75890  -0.74613  -0.72053
 Alpha  occ. eigenvalues --   -0.71627  -0.71243  -0.69821  -0.69296  -0.69054
 Alpha  occ. eigenvalues --   -0.66847  -0.65958  -0.63873  -0.61521  -0.60763
 Alpha  occ. eigenvalues --   -0.60590  -0.58725  -0.57943  -0.57493  -0.56819
 Alpha  occ. eigenvalues --   -0.56044  -0.55715  -0.55075  -0.53689  -0.52650
 Alpha  occ. eigenvalues --   -0.51499  -0.50812  -0.50400  -0.49943  -0.49374
 Alpha  occ. eigenvalues --   -0.49074  -0.48874  -0.48687  -0.48133  -0.47561
 Alpha  occ. eigenvalues --   -0.47354  -0.47064  -0.46841  -0.46762  -0.46192
 Alpha  occ. eigenvalues --   -0.45958  -0.45646  -0.44731  -0.44429  -0.44060
 Alpha  occ. eigenvalues --   -0.43597  -0.43414  -0.42846  -0.42810  -0.42049
 Alpha  occ. eigenvalues --   -0.41731  -0.41596  -0.41256  -0.41188  -0.40780
 Alpha  occ. eigenvalues --   -0.40539  -0.40419  -0.39935  -0.39868  -0.39522
 Alpha  occ. eigenvalues --   -0.39157  -0.39080  -0.38833  -0.38066  -0.37864
 Alpha  occ. eigenvalues --   -0.37693  -0.37184  -0.36770  -0.36569  -0.36394
 Alpha  occ. eigenvalues --   -0.36205  -0.35875  -0.35049  -0.34812  -0.34583
 Alpha  occ. eigenvalues --   -0.34084  -0.33656  -0.33280  -0.32006  -0.31587
 Alpha  occ. eigenvalues --   -0.31461  -0.30629  -0.29402  -0.29240  -0.28602
 Alpha  occ. eigenvalues --   -0.26240  -0.25869  -0.25290  -0.24961  -0.24158
 Alpha  occ. eigenvalues --   -0.23683  -0.23605  -0.23130  -0.22510  -0.19595
 Alpha virt. eigenvalues --   -0.11025  -0.06425  -0.05372  -0.00637  -0.00451
 Alpha virt. eigenvalues --    0.00031   0.01403   0.01920   0.02247   0.03368
 Alpha virt. eigenvalues --    0.03767   0.03939   0.04561   0.04635   0.05136

 Mulliken charges:
               1
     1  O   -0.290312
     2  O   -0.128097
     3  O   -0.263372
     4  O   -0.178944
     5  O   -0.222676
     6  O   -0.260342
     7  N   -0.136229
     8  N   -0.169859
     9  N   -0.139550
    10  N   -0.349884
    11  C    0.102461
    12  C    0.372109
    13  C   -0.147010
    14  C   -0.113394
    15  C   -0.098557
    16  C    0.004559
    17  C   -0.275649
    18  C    0.052719
    19  C    0.052096
    20  C   -0.187009
    21  C    0.241448
    22  C    0.154122
    23  C   -0.102739
    24  C    0.149714
    25  C    0.209448
    26  C   -0.044957
    27  C   -0.056008
    28  C    0.113597
    29  C    0.146918
    30  C   -0.054388
    31  C   -0.098292
    32  C    0.042129
    33  C   -0.135434
    34  C    0.114535
    35  C    0.086499
    36  C   -0.077636
    37  C    0.141808
    38  C    0.058053
    39  C   -0.180204
    40  C    0.226902
    41  C   -0.022957
    42  C    0.032211
    43  C   -0.028338
    44  H   -0.015456
    45  H    0.003639
    46  H   -0.094568
    47  H    0.150632
    48  H    0.138899
    49  H    0.013968
    50  H    0.026748
    51  H    0.055513
    52  H   -0.002328
    53  H    0.005582
    54  H    0.040456
    55  H   -0.038397
    56  H    0.041455
    57  H    0.035121
    58  H    0.084183
    59  H    0.005931
    60  H    0.216817
    61  H   -0.067669
    62  H    0.042488
    63  H    0.006189
    64  H    0.076144
    65  H    0.057827
    66  H   -0.014329
    67  H    0.041264
    68  H    0.034346
    69  H    0.027535
    70  H    0.015403
    71  H    0.043201
    72  H    0.159085
    73  H   -0.000023
    74  H    0.055086
    75  H    0.052947
    76  H    0.019675
    77  H    0.206992
    78  H    0.045671
    79  H   -0.009518
 Sum of Mulliken charges =  -0.00000

 Dipole moment (field-independent basis, Debye):
    X=             -1.9753    Y=              2.2546    Z=              3.4394  Tot=              4.5623
 Quadrupole moment (field-independent basis, Debye-Ang):
   XX=           -226.9765   YY=           -235.5552   ZZ=           -265.4551
   XY=             -8.1743   XZ=             34.3394   YZ=              8.4449

 Normal termination of Gaussian 16 at Wed Oct  9 06:51:12 2019.
