 Gaussian 16, Revision A.03,
 Gaussian 16:  ES64L-G16RevA.03 25-Dec-2016

 --------------------------
 # td=(NStates=1) B3LYP/SVP
 --------------------------

 --
 TD
 --
 Symbolic Z-matrix:
 Charge =  0 Multiplicity = 1

                         Standard orientation:
 ---------------------------------------------------------------------
 Center     Atomic      Atomic             Coordinates (Angstroms)
 Number     Number       Type             X           Y           Z
 ---------------------------------------------------------------------
      1          8           0       -3.301473   -2.187815   -2.588236
      2          8           0        3.144194    3.834120    2.336809
      3          8           0        3.684787    2.427329    4.044351
      4          8           0        7.724970   -1.600257   -0.740707
      5          8           0        6.495498   -3.656317   -1.030272
      6          8           0       -2.566933    1.949779    1.148486
      7          7           0       -0.328324   -2.159417    1.448720
      8          7           0       -2.607656   -1.307792   -0.481570
      9          7           0        1.132581   -0.086619   -0.720967
     10          7           0       -0.952622    1.403623   -0.534596
     11          6           0       -3.228935   -1.154748    0.772103
     12          6           0       -2.639036   -1.819510    2.082594
     13          6           0       -1.155482   -1.519316    2.204601
     14          6           0       -0.517784   -0.477919    2.963823
     15          6           0        0.858765   -0.564196    2.609713
     16          6           0        0.928878   -1.515010    1.687914
     17          6           0       -4.770167   -1.729438    0.540418
     18          6           0        1.962010    0.384064    3.152976
     19          6           0       -4.775493   -2.265979   -0.637542
     20          6           0        2.013133   -1.749540    0.718756
     21          6           0        2.117860   -1.081281   -0.464126
     22          6           0       -3.509346   -2.008135   -1.342867
     23          6           0        3.042553   -1.085374   -1.620696
     24          6           0       -1.320323    0.518834    3.834300
     25          6           0       -5.724739   -1.756211    1.731694
     26          6           0        2.488521   -0.019085   -2.466753
     27          6           0        2.093447    1.717686    2.287315
     28          6           0        1.271263    0.463222   -1.982355
     29          6           0        4.159078   -2.010852   -1.727320
     30          6           0       -5.867374   -2.936918   -1.382686
     31          6           0        5.294864   -1.506398   -0.951192
     32          6           0        2.921003    0.281929   -3.954201
     33          6           0        0.496594    1.549506   -2.363121
     34          6           0        3.057378    2.546812    3.028501
     35          6           0       -0.569198    2.016040   -1.624914
     36          6           0       -6.829060   -3.668994   -0.787156
     37          6           0        6.596423   -2.407536   -0.990328
     38          6           0       -1.396386    3.165698   -1.849623
     39          6           0       -2.305016    3.317938   -0.806096
     40          6           0       -1.965948    2.202495    0.105506
     41          6           0       -1.317206    4.016227   -3.008590
     42          6           0       -3.359360    4.368101   -0.460826
     43          6           0       -2.074153    5.088749   -3.451784
     44          1           0       -3.212329   -0.054493    0.969373
     45          1           0       -2.667917   -2.871361    2.116521
     46          1           0       -3.257616   -1.336902    2.968246
     47          1           0       -0.394007   -2.738481    0.600564
     48          1           0       -1.803116   -0.658194   -0.779693
     49          1           0        1.619606    0.444376    4.254717
     50          1           0        2.938337    0.129758    3.129735
     51          1           0        2.719929   -2.540282    0.771777
     52          1           0       -1.879612   -0.103306    4.626702
     53          1           0       -0.662148    1.090720    4.618037
     54          1           0       -1.805341    1.367745    3.303988
     55          1           0       -5.668420   -0.709686    2.343182
     56          1           0       -5.664851   -2.529053    2.522212
     57          1           0       -6.847298   -2.203516    1.403597
     58          1           0        2.356118    1.416059    1.246643
     59          1           0        1.109487    2.259328    2.377217
     60          1           0        0.187611    0.266540   -0.219493
     61          1           0        4.539761   -2.208784   -2.854030
     62          1           0        3.873497   -3.024403   -1.154049
     63          1           0       -5.976226   -2.902419   -2.518987
     64          1           0        5.252567   -1.424240    0.155107
     65          1           0        5.478249   -0.560738   -1.103954
     66          1           0        3.824047   -0.435596   -4.319353
     67          1           0        3.372792    1.226973   -4.035602
     68          1           0        2.099380    0.325650   -4.614135
     69          1           0        0.918247    2.266315   -3.164554
     70          1           0       -7.124110   -3.802882    0.087708
     71          1           0       -7.455414   -4.467611   -1.481302
     72          1           0        3.745903    4.365979    3.084867
     73          1           0       -0.422022    3.820394   -3.587790
     74          1           0       -3.803556    4.392264   -1.636489
     75          1           0       -4.144897    3.824897    0.283155
     76          1           0       -2.977396    5.382679   -0.173451
     77          1           0        8.458815   -2.283595   -0.712452
     78          1           0       -1.768647    5.760056   -4.163820
     79          1           0       -2.976219    5.267368   -2.776992
 ---------------------------------------------------------------------

 SCF Done:  E(RB3LYP) =  -1947.76722098     A.U. after   19 cycles

 Excitation energies and oscillator strengths:

 Excited State   1:      Singlet-A      0.9119 eV 1359.58 nm  f=0.0037  <S**2>=0.000
     155 ->156         0.70383
 This state for optimization and/or second-order correction.
 Total Energy, E(TD-HF/TD-DFT) =  -1947.73370827
 Copying the excited state density for this state as the 1-particle RhoCI density.

 The electronic state is 1-A.
 Alpha  occ. eigenvalues --  -19.20996 -19.16069 -19.15454 -19.14204 -19.13005
 Alpha  occ. eigenvalues --  -19.08321 -14.37346 -14.36335 -14.33876 -14.31346
 Alpha  occ. eigenvalues --  -10.34844 -10.32118 -10.28776 -10.27473 -10.25905
 Alpha  occ. eigenvalues --  -10.25678 -10.24541 -10.24512 -10.23971 -10.23657
 Alpha  occ. eigenvalues --  -10.22916 -10.22612 -10.22335 -10.22136 -10.21615
 Alpha  occ. eigenvalues --  -10.21525 -10.21511 -10.21466 -10.21410 -10.21177
 Alpha  occ. eigenvalues --  -10.21074 -10.21028 -10.20626 -10.20606 -10.20392
 Alpha  occ. eigenvalues --  -10.19953 -10.19597 -10.19550 -10.19050 -10.18706
 Alpha  occ. eigenvalues --  -10.18245 -10.17788 -10.17097  -1.08770  -1.07466
 Alpha  occ. eigenvalues --   -1.03298  -1.01389  -0.98718  -0.98070  -0.97884
 Alpha  occ. eigenvalues --   -0.97028  -0.94966  -0.91009  -0.84770  -0.82685
 Alpha  occ. eigenvalues --   -0.81622  -0.81083  -0.80719  -0.78800  -0.78063
 Alpha  occ. eigenvalues --   -0.76965  -0.76121  -0.74937  -0.74114  -0.72925
 Alpha  occ. eigenvalues --   -0.70924  -0.70382  -0.69225  -0.68924  -0.67292
 Alpha  occ. eigenvalues --   -0.66597  -0.65502  -0.62735  -0.61432  -0.60526
 Alpha  occ. eigenvalues --   -0.60138  -0.59319  -0.57810  -0.57286  -0.56868
 Alpha  occ. eigenvalues --   -0.55676  -0.55316  -0.54671  -0.54069  -0.53692
 Alpha  occ. eigenvalues --   -0.53078  -0.52126  -0.51375  -0.50391  -0.49845
 Alpha  occ. eigenvalues --   -0.49019  -0.48942  -0.48855  -0.48203  -0.47450
 Alpha  occ. eigenvalues --   -0.47290  -0.46928  -0.46473  -0.46040  -0.45914
 Alpha  occ. eigenvalues --   -0.45477  -0.45353  -0.44706  -0.44377  -0.44102
 Alpha  occ. eigenvalues --   -0.44030  -0.43328  -0.42954  -0.42681  -0.42057
 Alpha  occ. eigenvalues --   -0.41941  -0.41399  -0.41250  -0.41065  -0.40937
 Alpha  occ. eigenvalues --   -0.40722  -0.40351  -0.40223  -0.39896  -0.39498
 Alpha  occ. eigenvalues --   -0.39101  -0.38873  -0.38619  -0.38346  -0.38026
 Alpha  occ. eigenvalues --   -0.37857  -0.37473  -0.37079  -0.36665  -0.36574
 Alpha  occ. eigenvalues --   -0.36023  -0.35533  -0.35052  -0.34824  -0.34279
 Alpha  occ. eigenvalues --   -0.34192  -0.33782  -0.32528  -0.31910  -0.31170
 Alpha  occ. eigenvalues --   -0.30823  -0.30111  -0.29954  -0.29621  -0.29489
 Alpha  occ. eigenvalues --   -0.28829  -0.26349  -0.26014  -0.24794  -0.24089
 Alpha  occ. eigenvalues --   -0.23796  -0.23633  -0.23273  -0.22315  -0.19060
 Alpha virt. eigenvalues --   -0.13193  -0.08746  -0.04002  -0.03011  -0.01908
 Alpha virt. eigenvalues --   -0.00940   0.00578   0.01870   0.02370   0.02781
 Alpha virt. eigenvalues --    0.03651   0.03881   0.04187   0.04418   0.04657

 Mulliken charges:
               1
     1  O   -0.285476
     2  O   -0.330192
     3  O   -0.202863
     4  O   -0.221235
     5  O   -0.249114
     6  O   -0.212913
     7  N   -0.030615
     8  N   -0.242017
     9  N   -0.208401
    10  N   -0.355293
    11  C    0.018513
    12  C    0.213842
    13  C   -0.128834
    14  C   -0.144469
    15  C   -0.041514
    16  C   -0.007887
    17  C   -0.088598
    18  C    0.099856
    19  C   -0.002851
    20  C   -0.097367
    21  C    0.099849
    22  C    0.174464
    23  C   -0.017685
    24  C    0.032154
    25  C   -0.035238
    26  C   -0.147467
    27  C   -0.008515
    28  C    0.139584
    29  C    0.059010
    30  C    0.008690
    31  C    0.051579
    32  C    0.092431
    33  C   -0.127017
    34  C    0.170393
    35  C    0.131070
    36  C   -0.012293
    37  C    0.175810
    38  C    0.067424
    39  C   -0.178917
    40  C    0.198139
    41  C   -0.059102
    42  C   -0.022194
    43  C    0.016968
    44  H    0.043421
    45  H   -0.033821
    46  H    0.015158
    47  H    0.134017
    48  H    0.162125
    49  H    0.044152
    50  H   -0.035680
    51  H   -0.024308
    52  H    0.023136
    53  H   -0.015014
    54  H    0.061705
    55  H    0.060609
    56  H    0.042477
    57  H    0.039647
    58  H    0.070867
    59  H    0.067123
    60  H    0.235644
    61  H    0.054115
    62  H    0.058033
    63  H    0.041696
    64  H    0.042110
    65  H   -0.040698
    66  H    0.032798
    67  H    0.005509
    68  H    0.031056
    69  H    0.016673
    70  H   -0.078747
    71  H    0.029674
    72  H    0.212664
    73  H   -0.027292
    74  H    0.070961
    75  H    0.073205
    76  H    0.071190
    77  H    0.198236
    78  H    0.009832
    79  H    0.016017
 Sum of Mulliken charges =  -0.00000

 Dipole moment (field-independent basis, Debye):
    X=              3.6358    Y=              2.1616    Z=             -1.0862  Tot=              4.3670
 Quadrupole moment (field-independent basis, Debye-Ang):
   XX=           -232.7499   YY=           -248.9796   ZZ=           -261.4192
   XY=             -3.4031   XZ=            -26.5281   YZ=            -18.1247

 Normal termination of Gaussian 16 at Sat Jul 27 05:21:08 2019.
