 Gaussian 16, Revision A.03,
 Gaussian 16:  ES64L-G16RevA.03 25-Dec-2016

 --------------------------
 # td=(NStates=1) B3LYP/SVP
 --------------------------

 --
 TD
 --
 Symbolic Z-matrix:
 Charge =  0 Multiplicity = 1

                         Standard orientation:
 ---------------------------------------------------------------------
 Center     Atomic      Atomic             Coordinates (Angstroms)
 Number     Number       Type             X           Y           Z
 ---------------------------------------------------------------------
      1          8           0       -3.277742   -1.509186   -2.910289
      2          8           0        3.214273    2.919035    3.138164
      3          8           0        3.892775    1.253333    4.372650
      4          8           0        7.796902   -1.347089   -1.014007
      5          8           0        6.610484   -3.035752   -2.076102
      6          8           0       -2.729291    1.529718    1.465559
      7          7           0       -0.294497   -2.388539    0.932596
      8          7           0       -2.756070   -1.246722   -0.644977
      9          7           0        1.111372    0.101790   -0.715201
     10          7           0       -1.036440    1.447687   -0.163594
     11          6           0       -3.438554   -1.341716    0.558515
     12          6           0       -2.640418   -2.253911    1.602105
     13          6           0       -1.219427   -1.977585    1.777567
     14          6           0       -0.532346   -1.303227    2.881028
     15          6           0        0.850594   -1.245110    2.492812
     16          6           0        0.970890   -1.958390    1.322465
     17          6           0       -4.767870   -1.846616    0.198582
     18          6           0        1.922488   -0.601926    3.225114
     19          6           0       -4.797745   -1.938707   -1.126294
     20          6           0        2.034951   -1.876762    0.245481
     21          6           0        2.148728   -0.928446   -0.647345
     22          6           0       -3.506800   -1.535228   -1.705571
     23          6           0        2.972065   -0.620188   -1.706132
     24          6           0       -1.212792   -0.505838    3.932523
     25          6           0       -5.834719   -2.148011    1.157510
     26          6           0        2.515397    0.524642   -2.385423
     27          6           0        2.058381    0.886123    2.808369
     28          6           0        1.272707    0.971313   -1.708227
     29          6           0        4.207614   -1.469211   -2.029745
     30          6           0       -5.861671   -2.390402   -2.050018
     31          6           0        5.457876   -0.886805   -1.377052
     32          6           0        3.024076    1.174621   -3.650055
     33          6           0        0.558915    2.031942   -1.902909
     34          6           0        3.112118    1.727927    3.579977
     35          6           0       -0.607329    2.218790   -1.147206
     36          6           0       -7.067255   -2.964339   -1.753537
     37          6           0        6.712848   -1.892331   -1.646320
     38          6           0       -1.440402    3.567776   -1.148051
     39          6           0       -2.372521    3.381301   -0.146046
     40          6           0       -2.028601    1.971716    0.539137
     41          6           0       -1.321526    4.638042   -1.992255
     42          6           0       -3.370175    4.288750    0.502165
     43          6           0       -1.987927    5.818252   -2.306779
     44          1           0       -3.358465   -0.185807    1.040372
     45          1           0       -2.916257   -3.245656    1.058062
     46          1           0       -3.205394   -2.355177    2.483172
     47          1           0       -0.397559   -2.940387    0.201529
     48          1           0       -2.007635   -0.557409   -0.701160
     49          1           0        1.856343   -0.459252    4.404225
     50          1           0        2.857665   -1.129166    2.742110
     51          1           0        2.942559   -2.653255    0.210925
     52          1           0       -2.126927   -1.059742    4.419764
     53          1           0       -0.724651   -0.137060    4.887305
     54          1           0       -1.823923    0.337542    3.610149
     55          1           0       -5.748686   -1.643843    2.109049
     56          1           0       -5.878949   -3.107838    1.673035
     57          1           0       -6.906184   -1.927918    0.727468
     58          1           0        2.384444    0.961313    1.738964
     59          1           0        1.132797    1.510476    2.885493
     60          1           0        0.408924    0.264068    0.035551
     61          1           0        4.564353   -1.538917   -3.188957
     62          1           0        3.993707   -2.619892   -1.837643
     63          1           0       -5.513458   -2.139653   -3.041358
     64          1           0        5.509772   -0.768811   -0.219430
     65          1           0        5.707519    0.053519   -1.853884
     66          1           0        3.943440    0.621576   -3.857951
     67          1           0        3.212534    2.344235   -3.382652
     68          1           0        2.277247    1.271443   -4.424476
     69          1           0        0.736271    2.469092   -2.868736
     70          1           0       -7.381140   -3.286390   -0.735355
     71          1           0       -7.944675   -2.933167   -2.587327
     72          1           0        3.987728    3.264961    3.597213
     73          1           0       -0.528479    4.492589   -2.699341
     74          1           0       -4.138756    4.692614   -0.232333
     75          1           0       -4.113172    3.676683    1.299594
     76          1           0       -2.854242    5.259017    0.757524
     77          1           0        8.433172   -2.035563   -1.351828
     78          1           0       -1.593591    6.478967   -3.237150
     79          1           0       -2.885531    6.048139   -1.697793
 ---------------------------------------------------------------------

 SCF Done:  E(RB3LYP) =  -1947.86413121     A.U. after   16 cycles

 Excitation energies and oscillator strengths:

 Excited State   1:      Singlet-A      1.2837 eV  965.80 nm  f=0.0012  <S**2>=0.000
     155 ->156         0.70332
 This state for optimization and/or second-order correction.
 Total Energy, E(TD-HF/TD-DFT) =  -1947.81695465
 Copying the excited state density for this state as the 1-particle RhoCI density.

 The electronic state is 1-A.
 Alpha  occ. eigenvalues --  -19.20970 -19.19465 -19.15782 -19.13249 -19.11617
 Alpha  occ. eigenvalues --  -19.07749 -14.37114 -14.36929 -14.33218 -14.32094
 Alpha  occ. eigenvalues --  -10.34554 -10.31346 -10.29321 -10.27113 -10.25783
 Alpha  occ. eigenvalues --  -10.25686 -10.25134 -10.23996 -10.23590 -10.23576
 Alpha  occ. eigenvalues --  -10.23561 -10.23220 -10.22937 -10.21981 -10.21644
 Alpha  occ. eigenvalues --  -10.21600 -10.21547 -10.21367 -10.21210 -10.20976
 Alpha  occ. eigenvalues --  -10.20640 -10.20459 -10.20250 -10.19989 -10.19776
 Alpha  occ. eigenvalues --  -10.19306 -10.19286 -10.19227 -10.18318 -10.18315
 Alpha  occ. eigenvalues --  -10.18183 -10.18025 -10.17201  -1.13361  -1.11310
 Alpha  occ. eigenvalues --   -1.03163  -1.02678  -1.00897  -1.00588  -0.99983
 Alpha  occ. eigenvalues --   -0.98990  -0.95242  -0.94380  -0.85214  -0.83049
 Alpha  occ. eigenvalues --   -0.81771  -0.81564  -0.80856  -0.79235  -0.78625
 Alpha  occ. eigenvalues --   -0.77251  -0.76186  -0.74981  -0.74375  -0.73212
 Alpha  occ. eigenvalues --   -0.71098  -0.70227  -0.70042  -0.68647  -0.68362
 Alpha  occ. eigenvalues --   -0.67737  -0.66528  -0.64147  -0.61564  -0.61220
 Alpha  occ. eigenvalues --   -0.60626  -0.59831  -0.59613  -0.58078  -0.57103
 Alpha  occ. eigenvalues --   -0.56762  -0.56490  -0.55777  -0.53741  -0.53366
 Alpha  occ. eigenvalues --   -0.52818  -0.51547  -0.51152  -0.50989  -0.50128
 Alpha  occ. eigenvalues --   -0.49541  -0.49161  -0.48920  -0.48695  -0.48340
 Alpha  occ. eigenvalues --   -0.48257  -0.47607  -0.46888  -0.46565  -0.46113
 Alpha  occ. eigenvalues --   -0.45235  -0.45171  -0.44926  -0.44571  -0.44096
 Alpha  occ. eigenvalues --   -0.43851  -0.43684  -0.43251  -0.43199  -0.42776
 Alpha  occ. eigenvalues --   -0.42565  -0.41609  -0.41412  -0.41380  -0.41193
 Alpha  occ. eigenvalues --   -0.40895  -0.40734  -0.40149  -0.39912  -0.39723
 Alpha  occ. eigenvalues --   -0.39116  -0.38956  -0.38760  -0.38499  -0.38084
 Alpha  occ. eigenvalues --   -0.37803  -0.37259  -0.37143  -0.37035  -0.36857
 Alpha  occ. eigenvalues --   -0.36783  -0.35894  -0.35574  -0.35252  -0.34721
 Alpha  occ. eigenvalues --   -0.34490  -0.33428  -0.33269  -0.32576  -0.32422
 Alpha  occ. eigenvalues --   -0.31812  -0.30695  -0.30257  -0.29407  -0.29330
 Alpha  occ. eigenvalues --   -0.27536  -0.26941  -0.25924  -0.24477  -0.23843
 Alpha  occ. eigenvalues --   -0.23630  -0.23458  -0.22982  -0.22107  -0.19668
 Alpha virt. eigenvalues --   -0.12512  -0.07922  -0.03920  -0.03168  -0.02745
 Alpha virt. eigenvalues --    0.00787   0.01189   0.01865   0.02766   0.03477
 Alpha virt. eigenvalues --    0.03665   0.04351   0.04379   0.04900   0.05365

 Mulliken charges:
               1
     1  O   -0.252257
     2  O   -0.098073
     3  O   -0.245369
     4  O   -0.181900
     5  O   -0.227877
     6  O   -0.232538
     7  N    0.053627
     8  N   -0.118614
     9  N   -0.148074
    10  N   -0.244356
    11  C   -0.070819
    12  C    0.165636
    13  C   -0.070525
    14  C   -0.068476
    15  C   -0.067587
    16  C   -0.028821
    17  C   -0.102740
    18  C    0.094718
    19  C   -0.099565
    20  C   -0.194246
    21  C    0.202665
    22  C    0.116494
    23  C   -0.005928
    24  C    0.022376
    25  C    0.066445
    26  C   -0.135735
    27  C   -0.074010
    28  C    0.140884
    29  C   -0.036980
    30  C    0.035016
    31  C   -0.024212
    32  C    0.080331
    33  C   -0.114713
    34  C    0.086579
    35  C    0.136034
    36  C   -0.082838
    37  C    0.155889
    38  C    0.093199
    39  C   -0.213315
    40  C    0.177792
    41  C   -0.069609
    42  C    0.010304
    43  C   -0.061016
    44  H    0.109182
    45  H   -0.011839
    46  H   -0.024716
    47  H    0.062721
    48  H    0.128544
    49  H    0.048128
    50  H    0.014603
    51  H    0.034621
    52  H   -0.011079
    53  H    0.010265
    54  H    0.026047
    55  H   -0.009343
    56  H    0.014448
    57  H    0.048442
    58  H    0.031706
    59  H    0.042386
    60  H    0.187602
    61  H    0.044157
    62  H    0.060835
    63  H    0.001059
    64  H    0.070433
    65  H    0.033862
    66  H    0.027971
    67  H    0.045190
    68  H    0.046558
    69  H   -0.010818
    70  H    0.026564
    71  H    0.043825
    72  H    0.167901
    73  H   -0.032028
    74  H    0.032480
    75  H    0.072919
    76  H    0.045429
    77  H    0.181085
    78  H    0.060685
    79  H    0.012382
 Sum of Mulliken charges =  -0.00000

 Dipole moment (field-independent basis, Debye):
    X=              4.8042    Y=              3.5143    Z=             -1.0758  Tot=              6.0488
 Quadrupole moment (field-independent basis, Debye-Ang):
   XX=           -235.4220   YY=           -245.8798   ZZ=           -268.0953
   XY=              3.3474   XZ=            -31.9425   YZ=            -11.9214

 Normal termination of Gaussian 16 at Sat Jul 27 19:43:14 2019.
