 Gaussian 16, Revision A.03,
 Gaussian 16:  ES64L-G16RevA.03 25-Dec-2016

 --------------------------
 # td=(NStates=1) B3LYP/SVP
 --------------------------

 --
 TD
 --
 Symbolic Z-matrix:
 Charge =  0 Multiplicity = 1

                         Standard orientation:
 ---------------------------------------------------------------------
 Center     Atomic      Atomic             Coordinates (Angstroms)
 Number     Number       Type             X           Y           Z
 ---------------------------------------------------------------------
      1          8           0        5.175578   -0.295853   -3.306916
      2          8           0       -2.946427   -2.785307    3.231138
      3          8           0       -3.537052   -0.680202    2.767585
      4          8           0       -1.505485    7.034142    1.451034
      5          8           0       -1.048692    7.037292   -0.808623
      6          8           0       -1.345882   -3.865228    0.211273
      7          7           0        2.296130    1.027976    0.624031
      8          7           0        4.246230   -0.529372   -1.170174
      9          7           0       -1.819044    0.675016   -0.408433
     10          7           0       -2.380741   -1.890248   -0.572345
     11          6           0        4.705188   -0.988901    0.132963
     12          6           0        4.376024   -0.013906    1.219018
     13          6           0        2.919859    0.162204    1.381093
     14          6           0        1.975769   -0.367325    2.381437
     15          6           0        0.731757    0.145119    1.828124
     16          6           0        0.945173    1.079306    0.852842
     17          6           0        6.213599   -1.261701   -0.099823
     18          6           0       -0.508776    0.025766    2.627735
     19          6           0        6.540870   -0.804330   -1.359706
     20          6           0        0.094968    2.079680    0.010158
     21          6           0       -1.137895    1.881379   -0.439892
     22          6           0        5.221956   -0.493485   -2.055196
     23          6           0       -2.082364    2.820630   -0.942025
     24          6           0        2.171024   -1.316088    3.404076
     25          6           0        7.020960   -1.805461    0.996834
     26          6           0       -3.257954    2.172282   -1.383443
     27          6           0       -1.179577   -1.474963    2.669503
     28          6           0       -3.115777    0.825766   -1.033704
     29          6           0       -1.693735    4.312587   -1.061123
     30          6           0        7.813043   -0.828189   -2.118112
     31          6           0       -2.048861    4.999302    0.171524
     32          6           0       -4.397044    2.697421   -2.053701
     33          6           0       -3.937059   -0.308580   -1.317685
     34          6           0       -2.656277   -1.554656    2.832240
     35          6           0       -3.654724   -1.714674   -1.101109
     36          6           0        9.071672   -0.876750   -1.614102
     37          6           0       -1.451283    6.475732    0.215661
     38          6           0       -4.417554   -2.950535   -1.355602
     39          6           0       -3.443394   -3.910107   -0.957913
     40          6           0       -2.293721   -3.333030   -0.316852
     41          6           0       -5.628102   -2.871636   -1.960143
     42          6           0       -3.730346   -5.460510   -1.043892
     43          6           0       -6.461915   -3.792078   -2.381988
     44          1           0        4.203579   -1.974381    0.378300
     45          1           0        4.851698    0.925887    1.001886
     46          1           0        4.659605   -0.309335    2.288095
     47          1           0        2.682035    1.545415   -0.203177
     48          1           0        3.353433   -0.677996   -1.547791
     49          1           0       -0.420686    0.466958    3.596345
     50          1           0       -1.328273    0.588848    2.196155
     51          1           0        0.598126    2.954594   -0.584621
     52          1           0        3.380372   -1.237619    3.698429
     53          1           0        1.640701   -0.982592    4.337327
     54          1           0        1.939011   -2.409147    3.176513
     55          1           0        6.651490   -2.493039    1.782808
     56          1           0        7.345168   -0.866410    1.490873
     57          1           0        7.956289   -2.330409    0.564860
     58          1           0       -1.003113   -2.041863    1.745335
     59          1           0       -0.701671   -2.066637    3.316700
     60          1           0       -1.481835   -0.278509   -0.101445
     61          1           0       -2.032674    5.026634   -1.887375
     62          1           0       -0.558037    4.243386   -1.434325
     63          1           0        7.702488   -0.878286   -3.251687
     64          1           0       -1.642849    4.546515    1.185850
     65          1           0       -3.084997    5.194800    0.433921
     66          1           0       -4.218773    3.880059   -1.996394
     67          1           0       -5.285614    2.453439   -1.554544
     68          1           0       -4.795014    2.618998   -3.171054
     69          1           0       -4.759130    0.047751   -1.716016
     70          1           0        9.274068   -0.805165   -0.535498
     71          1           0        9.947907   -0.476609   -2.281431
     72          1           0       -3.921889   -2.789237    3.190479
     73          1           0       -6.210521   -1.892824   -1.817539
     74          1           0       -4.911562   -5.674607   -0.966638
     75          1           0       -3.422604   -5.818753   -1.988475
     76          1           0       -3.011325   -5.713138   -0.201438
     77          1           0       -0.866563    7.850520    1.498331
     78          1           0       -7.467817   -3.503361   -2.507639
     79          1           0       -6.028395   -4.967844   -2.573780
 ---------------------------------------------------------------------

 SCF Done:  E(RB3LYP) =  -1947.83528350     A.U. after   17 cycles

 Excitation energies and oscillator strengths:

 Excited State   1:      Singlet-A      1.7261 eV  718.31 nm  f=0.2838  <S**2>=0.000
     154 ->156         0.22015
     155 ->156         0.66548
     155 <-156        -0.12447
 This state for optimization and/or second-order correction.
 Total Energy, E(TD-HF/TD-DFT) =  -1947.77185202
 Copying the excited state density for this state as the 1-particle RhoCI density.

 The electronic state is 1-A.
 Alpha  occ. eigenvalues --  -19.19896 -19.17163 -19.13504 -19.11197 -19.10819
 Alpha  occ. eigenvalues --  -19.09312 -14.39025 -14.36535 -14.35145 -14.28507
 Alpha  occ. eigenvalues --  -10.33121 -10.30503 -10.28524 -10.26517 -10.25866
 Alpha  occ. eigenvalues --  -10.24261 -10.23447 -10.23406 -10.23404 -10.23352
 Alpha  occ. eigenvalues --  -10.23036 -10.22883 -10.22170 -10.22151 -10.21971
 Alpha  occ. eigenvalues --  -10.21790 -10.21765 -10.21367 -10.20948 -10.20847
 Alpha  occ. eigenvalues --  -10.20836 -10.20818 -10.20814 -10.20705 -10.20524
 Alpha  occ. eigenvalues --  -10.20040 -10.20019 -10.19839 -10.19388 -10.18925
 Alpha  occ. eigenvalues --  -10.18830 -10.18467 -10.17863  -1.09150  -1.08898
 Alpha  occ. eigenvalues --   -1.02287  -1.01600  -1.00466  -1.00318  -0.97529
 Alpha  occ. eigenvalues --   -0.96243  -0.94521  -0.90288  -0.83043  -0.82463
 Alpha  occ. eigenvalues --   -0.82180  -0.81406  -0.81176  -0.80825  -0.77760
 Alpha  occ. eigenvalues --   -0.76929  -0.76117  -0.75810  -0.74226  -0.73069
 Alpha  occ. eigenvalues --   -0.71973  -0.71659  -0.70095  -0.69644  -0.67822
 Alpha  occ. eigenvalues --   -0.67514  -0.65734  -0.64524  -0.61497  -0.61298
 Alpha  occ. eigenvalues --   -0.59710  -0.58511  -0.58360  -0.57982  -0.57019
 Alpha  occ. eigenvalues --   -0.55963  -0.55502  -0.55325  -0.54183  -0.53766
 Alpha  occ. eigenvalues --   -0.52585  -0.51249  -0.50924  -0.49851  -0.49438
 Alpha  occ. eigenvalues --   -0.48920  -0.48705  -0.48508  -0.47875  -0.47581
 Alpha  occ. eigenvalues --   -0.47320  -0.46905  -0.46226  -0.45881  -0.45724
 Alpha  occ. eigenvalues --   -0.45239  -0.44921  -0.44717  -0.44489  -0.44221
 Alpha  occ. eigenvalues --   -0.43798  -0.43670  -0.43279  -0.42974  -0.42680
 Alpha  occ. eigenvalues --   -0.42400  -0.42139  -0.41886  -0.41581  -0.41264
 Alpha  occ. eigenvalues --   -0.41157  -0.40498  -0.40404  -0.40017  -0.39788
 Alpha  occ. eigenvalues --   -0.39267  -0.39208  -0.38935  -0.38426  -0.38183
 Alpha  occ. eigenvalues --   -0.38052  -0.37657  -0.37323  -0.37010  -0.36258
 Alpha  occ. eigenvalues --   -0.35795  -0.35457  -0.35260  -0.34734  -0.34149
 Alpha  occ. eigenvalues --   -0.33428  -0.32781  -0.32396  -0.32074  -0.31296
 Alpha  occ. eigenvalues --   -0.30831  -0.30284  -0.28602  -0.28434  -0.28212
 Alpha  occ. eigenvalues --   -0.27014  -0.26529  -0.25052  -0.25000  -0.24703
 Alpha  occ. eigenvalues --   -0.23986  -0.23962  -0.23474  -0.21719  -0.18874
 Alpha virt. eigenvalues --   -0.11838  -0.07658  -0.05756  -0.00907  -0.00616
 Alpha virt. eigenvalues --    0.00340   0.00957   0.01735   0.02090   0.02477
 Alpha virt. eigenvalues --    0.02774   0.03730   0.04196   0.04551   0.04885

 Mulliken charges:
               1
     1  O   -0.283757
     2  O   -0.158769
     3  O   -0.270654
     4  O   -0.220874
     5  O   -0.247678
     6  O   -0.198381
     7  N   -0.014607
     8  N   -0.110020
     9  N   -0.150832
    10  N   -0.370118
    11  C    0.071266
    12  C    0.220182
    13  C   -0.146624
    14  C   -0.100990
    15  C   -0.123668
    16  C    0.048442
    17  C   -0.149558
    18  C    0.082205
    19  C   -0.037616
    20  C   -0.086870
    21  C    0.126345
    22  C    0.109584
    23  C   -0.054314
    24  C    0.016567
    25  C    0.042040
    26  C   -0.029406
    27  C    0.049865
    28  C    0.083489
    29  C    0.008826
    30  C   -0.028991
    31  C   -0.008515
    32  C   -0.004844
    33  C    0.012849
    34  C    0.121600
    35  C    0.112899
    36  C   -0.070659
    37  C    0.142861
    38  C    0.164907
    39  C   -0.221356
    40  C    0.185710
    41  C   -0.094686
    42  C    0.049774
    43  C   -0.060741
    44  H    0.028492
    45  H   -0.016770
    46  H    0.011681
    47  H    0.132918
    48  H    0.122228
    49  H    0.006218
    50  H   -0.000272
    51  H    0.017750
    52  H    0.011620
    53  H    0.031601
    54  H    0.064984
    55  H    0.033895
    56  H    0.046361
    57  H    0.051902
    58  H    0.048632
    59  H   -0.026026
    60  H    0.167273
    61  H    0.042279
    62  H    0.041268
    63  H    0.043782
    64  H    0.051544
    65  H    0.044234
    66  H    0.024172
    67  H    0.017654
    68  H    0.055419
    69  H   -0.122578
    70  H    0.014129
    71  H    0.049483
    72  H    0.169043
    73  H    0.019808
    74  H    0.045445
    75  H    0.025834
    76  H    0.051281
    77  H    0.221325
    78  H    0.015510
    79  H    0.052996
 Sum of Mulliken charges =  -0.00000

 Dipole moment (field-independent basis, Debye):
    X=              0.2810    Y=              2.3241    Z=              3.7585  Tot=              4.4279
 Quadrupole moment (field-independent basis, Debye-Ang):
   XX=           -223.3028   YY=           -246.6217   ZZ=           -266.1045
   XY=              2.6668   XZ=             37.2591   YZ=              7.5297

 Normal termination of Gaussian 16 at Tue Sep 17 19:13:18 2019.
