 Gaussian 16, Revision A.03,
 Gaussian 16:  ES64L-G16RevA.03 25-Dec-2016

 --------------------------
 # td=(NStates=1) B3LYP/SVP
 --------------------------

 --
 TD
 --
 Symbolic Z-matrix:
 Charge =  0 Multiplicity = 1

                         Standard orientation:
 ---------------------------------------------------------------------
 Center     Atomic      Atomic             Coordinates (Angstroms)
 Number     Number       Type             X           Y           Z
 ---------------------------------------------------------------------
      1          8           0        5.437498    0.036137   -3.204505
      2          8           0       -3.200489   -2.736948    3.154822
      3          8           0       -3.538610   -0.512001    2.775026
      4          8           0       -0.976473    7.043586    1.663516
      5          8           0        0.040294    6.899911   -0.361236
      6          8           0       -2.015420   -3.952082   -0.016841
      7          7           0        2.399979    0.686123    0.576325
      8          7           0        4.447387   -0.635231   -1.185715
      9          7           0       -1.791602    0.784411   -0.408502
     10          7           0       -2.795104   -1.762953   -0.565813
     11          6           0        4.681177   -1.477044   -0.031155
     12          6           0        4.344018   -0.766505    1.339393
     13          6           0        2.878917   -0.333269    1.250562
     14          6           0        1.862608   -0.850361    2.085412
     15          6           0        0.708181   -0.034277    1.843104
     16          6           0        1.042216    0.904443    0.751607
     17          6           0        6.219468   -1.593002   -0.169742
     18          6           0       -0.654996   -0.188801    2.488533
     19          6           0        6.649397   -1.061836   -1.343710
     20          6           0        0.305754    1.995987    0.265319
     21          6           0       -0.956691    1.828779   -0.265691
     22          6           0        5.505384   -0.447010   -2.058002
     23          6           0       -1.779397    2.957457   -0.930289
     24          6           0        2.003305   -1.921730    3.072585
     25          6           0        6.982324   -2.444341    0.709868
     26          6           0       -2.951991    2.532683   -1.344763
     27          6           0       -1.324659   -1.475387    2.468014
     28          6           0       -3.012362    1.074558   -1.084128
     29          6           0       -1.283374    4.454893   -0.941729
     30          6           0        8.027621   -1.044143   -1.986173
     31          6           0       -1.335980    5.040943    0.427629
     32          6           0       -4.027346    3.250003   -1.987898
     33          6           0       -3.918938    0.107275   -1.469569
     34          6           0       -2.832410   -1.537102    2.783358
     35          6           0       -3.897828   -1.258567   -1.132847
     36          6           0        9.178355   -1.063646   -1.277372
     37          6           0       -0.706779    6.441463    0.556724
     38          6           0       -4.837478   -2.380171   -1.461949
     39          6           0       -4.195899   -3.501828   -1.129687
     40          6           0       -2.846692   -3.131822   -0.521528
     41          6           0       -6.144205   -2.167294   -1.908645
     42          6           0       -4.665980   -4.977827   -1.093315
     43          6           0       -7.143130   -2.992267   -2.328924
     44          1           0        4.256480   -2.611806   -0.078460
     45          1           0        4.806335    0.131434    1.300008
     46          1           0        4.434103   -1.259953    2.163517
     47          1           0        3.226025    1.192081   -0.065804
     48          1           0        3.551279   -0.492584   -1.506507
     49          1           0       -0.441799   -0.024852    3.618557
     50          1           0       -1.419049    0.556356    2.381019
     51          1           0        0.923523    2.849594    0.041100
     52          1           0        3.143826   -1.940638    3.356492
     53          1           0        1.376516   -1.691899    3.893636
     54          1           0        1.550561   -2.859662    2.682015
     55          1           0        6.400715   -3.395245    1.055256
     56          1           0        7.344330   -1.817067    1.796333
     57          1           0        7.905166   -2.985689    0.294843
     58          1           0       -1.132744   -1.967681    1.299894
     59          1           0       -0.875130   -2.329519    3.058160
     60          1           0       -1.719191   -0.247002   -0.287177
     61          1           0       -1.798554    5.125139   -1.740928
     62          1           0       -0.137866    4.169131   -1.124769
     63          1           0        7.939088   -1.019908   -2.967590
     64          1           0       -0.556874    4.412010    1.032789
     65          1           0       -2.311605    5.242847    0.842467
     66          1           0       -3.711305    4.245332   -2.243190
     67          1           0       -4.945039    3.282819   -1.339877
     68          1           0       -4.243506    2.619983   -2.922200
     69          1           0       -4.829792    0.411324   -2.062452
     70          1           0        9.282243   -0.935227   -0.239491
     71          1           0       10.088458   -1.049436   -1.743569
     72          1           0       -4.332207   -2.698477    3.042922
     73          1           0       -6.270117   -1.113507   -2.078771
     74          1           0       -5.887610   -4.982397   -0.735018
     75          1           0       -4.615539   -5.614831   -2.037670
     76          1           0       -4.220631   -5.493124   -0.253051
     77          1           0       -0.588714    7.797652    1.910219
     78          1           0       -8.224071   -2.698568   -2.563030
     79          1           0       -7.001865   -4.183421   -2.229968
 ---------------------------------------------------------------------

 SCF Done:  E(RB3LYP) =  -1947.82674095     A.U. after   16 cycles

 Excitation energies and oscillator strengths:

 Excited State   1:      Singlet-A      1.9247 eV  644.19 nm  f=0.4134  <S**2>=0.000
     155 ->156         0.70460
     155 <-156        -0.12164
 This state for optimization and/or second-order correction.
 Total Energy, E(TD-HF/TD-DFT) =  -1947.75601076
 Copying the excited state density for this state as the 1-particle RhoCI density.

 The electronic state is 1-A.
 Alpha  occ. eigenvalues --  -19.19790 -19.19078 -19.11455 -19.11076 -19.10782
 Alpha  occ. eigenvalues --  -19.10385 -14.39677 -14.36670 -14.36173 -14.29271
 Alpha  occ. eigenvalues --  -10.32626 -10.30706 -10.29504 -10.27028 -10.26692
 Alpha  occ. eigenvalues --  -10.25362 -10.24929 -10.23996 -10.23124 -10.22852
 Alpha  occ. eigenvalues --  -10.22377 -10.22348 -10.22115 -10.21520 -10.21501
 Alpha  occ. eigenvalues --  -10.20996 -10.20987 -10.20853 -10.20791 -10.20512
 Alpha  occ. eigenvalues --  -10.20308 -10.20274 -10.20227 -10.19909 -10.19873
 Alpha  occ. eigenvalues --  -10.19864 -10.19700 -10.19650 -10.19496 -10.19286
 Alpha  occ. eigenvalues --  -10.19143 -10.18540 -10.18219  -1.12839  -1.08090
 Alpha  occ. eigenvalues --   -1.02227  -0.99191  -0.98920  -0.98426  -0.97653
 Alpha  occ. eigenvalues --   -0.97555  -0.95048  -0.92452  -0.82762  -0.82731
 Alpha  occ. eigenvalues --   -0.82368  -0.80933  -0.80801  -0.80327  -0.78506
 Alpha  occ. eigenvalues --   -0.77652  -0.76528  -0.76101  -0.74014  -0.72813
 Alpha  occ. eigenvalues --   -0.72016  -0.70895  -0.70070  -0.69516  -0.68524
 Alpha  occ. eigenvalues --   -0.67049  -0.65647  -0.65024  -0.62882  -0.62719
 Alpha  occ. eigenvalues --   -0.61228  -0.59597  -0.58700  -0.57886  -0.56468
 Alpha  occ. eigenvalues --   -0.55387  -0.54847  -0.54587  -0.54171  -0.53602
 Alpha  occ. eigenvalues --   -0.52202  -0.51659  -0.51372  -0.50355  -0.49880
 Alpha  occ. eigenvalues --   -0.48971  -0.48726  -0.48558  -0.48029  -0.47824
 Alpha  occ. eigenvalues --   -0.47660  -0.47206  -0.46807  -0.45912  -0.45511
 Alpha  occ. eigenvalues --   -0.45121  -0.44960  -0.44654  -0.44237  -0.44003
 Alpha  occ. eigenvalues --   -0.43765  -0.43459  -0.43197  -0.43072  -0.42845
 Alpha  occ. eigenvalues --   -0.42392  -0.41884  -0.41774  -0.41135  -0.41056
 Alpha  occ. eigenvalues --   -0.40789  -0.40691  -0.40183  -0.39887  -0.39807
 Alpha  occ. eigenvalues --   -0.39258  -0.39004  -0.38666  -0.38527  -0.38265
 Alpha  occ. eigenvalues --   -0.38140  -0.37733  -0.37607  -0.37228  -0.36753
 Alpha  occ. eigenvalues --   -0.36132  -0.35645  -0.34922  -0.34316  -0.33590
 Alpha  occ. eigenvalues --   -0.33321  -0.32998  -0.31699  -0.31400  -0.31163
 Alpha  occ. eigenvalues --   -0.30980  -0.29563  -0.28635  -0.27727  -0.27179
 Alpha  occ. eigenvalues --   -0.26862  -0.26347  -0.26255  -0.25873  -0.24955
 Alpha  occ. eigenvalues --   -0.24398  -0.23795  -0.23495  -0.22496  -0.18730
 Alpha virt. eigenvalues --   -0.11290  -0.06487  -0.06099  -0.01089  -0.00515
 Alpha virt. eigenvalues --   -0.00090   0.00275   0.01296   0.01811   0.02263
 Alpha virt. eigenvalues --    0.02891   0.03715   0.04565   0.05165   0.05447

 Mulliken charges:
               1
     1  O   -0.239062
     2  O   -0.208493
     3  O   -0.276137
     4  O   -0.069996
     5  O   -0.286385
     6  O   -0.258438
     7  N   -0.085172
     8  N   -0.175019
     9  N   -0.085916
    10  N   -0.277947
    11  C    0.005630
    12  C    0.469295
    13  C   -0.226719
    14  C   -0.153772
    15  C   -0.079604
    16  C    0.038327
    17  C   -0.133174
    18  C    0.120020
    19  C   -0.064732
    20  C   -0.105426
    21  C    0.156303
    22  C    0.159293
    23  C   -0.125804
    24  C    0.120327
    25  C   -0.043314
    26  C   -0.100793
    27  C   -0.120133
    28  C    0.107674
    29  C    0.042252
    30  C    0.075684
    31  C    0.019366
    32  C    0.111899
    33  C   -0.099896
    34  C    0.159949
    35  C    0.071862
    36  C    0.031405
    37  C    0.096924
    38  C    0.098615
    39  C   -0.190756
    40  C    0.168433
    41  C   -0.013080
    42  C    0.012405
    43  C   -0.087137
    44  H    0.067755
    45  H   -0.054986
    46  H   -0.085285
    47  H    0.172916
    48  H    0.102634
    49  H   -0.002733
    50  H    0.006287
    51  H   -0.002070
    52  H    0.021894
    53  H   -0.001263
    54  H    0.041964
    55  H    0.032785
    56  H    0.055704
    57  H    0.049526
    58  H    0.103334
    59  H    0.018697
    60  H    0.150807
    61  H    0.043856
    62  H    0.035708
    63  H   -0.041361
    64  H    0.058031
    65  H    0.026551
    66  H   -0.000524
    67  H    0.039337
    68  H    0.039322
    69  H   -0.007701
    70  H    0.010523
    71  H    0.003114
    72  H    0.245681
    73  H   -0.030303
    74  H    0.024264
    75  H    0.056007
    76  H    0.029495
    77  H    0.144012
    78  H    0.045849
    79  H    0.041417
 Sum of Mulliken charges =  -0.00000

 Dipole moment (field-independent basis, Debye):
    X=              0.8465    Y=              1.6665    Z=              3.6706  Tot=              4.1191
 Quadrupole moment (field-independent basis, Debye-Ang):
   XX=           -216.0155   YY=           -245.7576   ZZ=           -263.9356
   XY=            -15.7505   XZ=             30.1544   YZ=             11.6222

 Normal termination of Gaussian 16 at Mon Sep 30 00:02:17 2019.
