 Gaussian 16, Revision A.03,
 Gaussian 16:  ES64L-G16RevA.03 25-Dec-2016

 --------------------------
 # td=(NStates=1) B3LYP/SVP
 --------------------------

 --
 TD
 --
 Symbolic Z-matrix:
 Charge =  0 Multiplicity = 1

                         Standard orientation:
 ---------------------------------------------------------------------
 Center     Atomic      Atomic             Coordinates (Angstroms)
 Number     Number       Type             X           Y           Z
 ---------------------------------------------------------------------
      1          8           0        5.281966    0.078882   -3.320331
      2          8           0       -2.979803   -2.971732    3.002297
      3          8           0       -3.363242   -0.774912    2.911793
      4          8           0       -1.761293    7.102103    1.566983
      5          8           0       -0.866135    7.007551   -0.532471
      6          8           0       -1.602255   -3.957836    0.360767
      7          7           0        2.263347    0.898662    0.570022
      8          7           0        4.373658   -0.507951   -1.283453
      9          7           0       -1.895723    0.644657   -0.408736
     10          7           0       -2.356257   -1.904574   -0.612870
     11          6           0        4.790249   -1.125028    0.002184
     12          6           0        4.444005   -0.239509    1.161565
     13          6           0        2.903855    0.016886    1.315985
     14          6           0        2.049643   -0.624898    2.179270
     15          6           0        0.707178   -0.018334    1.911079
     16          6           0        0.916871    1.017418    0.917302
     17          6           0        6.302597   -1.186339   -0.077788
     18          6           0       -0.538032   -0.086473    2.611544
     19          6           0        6.658422   -0.841956   -1.421975
     20          6           0        0.099792    2.064595    0.167450
     21          6           0       -1.168463    1.919120   -0.251339
     22          6           0        5.410664   -0.424548   -2.188799
     23          6           0       -2.110286    2.970566   -0.853232
     24          6           0        2.130307   -1.663922    3.138679
     25          6           0        7.106557   -1.848340    0.879690
     26          6           0       -3.200147    2.217945   -1.294284
     27          6           0       -1.059125   -1.602910    2.554770
     28          6           0       -3.026481    0.868516   -1.119556
     29          6           0       -1.720496    4.359595   -0.870548
     30          6           0        7.931119   -0.722725   -2.104738
     31          6           0       -1.967954    5.131429    0.448196
     32          6           0       -4.303656    2.697328   -2.204129
     33          6           0       -3.875691   -0.189987   -1.483579
     34          6           0       -2.569428   -1.718443    2.843223
     35          6           0       -3.568394   -1.523392   -1.299574
     36          6           0        9.072855   -0.679781   -1.401050
     37          6           0       -1.477279    6.513233    0.403205
     38          6           0       -4.420622   -2.749472   -1.502845
     39          6           0       -3.732947   -3.796373   -0.924025
     40          6           0       -2.437705   -3.277572   -0.328041
     41          6           0       -5.731753   -2.694382   -2.223367
     42          6           0       -4.051221   -5.213738   -0.914170
     43          6           0       -6.676155   -3.639679   -2.351418
     44          1           0        4.366668   -2.232757    0.082863
     45          1           0        4.781837    0.724693    0.952948
     46          1           0        4.826314   -0.719618    2.136210
     47          1           0        2.804411    1.514875   -0.171417
     48          1           0        3.196958   -0.534364   -1.326012
     49          1           0       -0.371702    0.369914    3.640072
     50          1           0       -1.216881    0.740839    2.295883
     51          1           0        0.697283    2.928410    0.043803
     52          1           0        3.211934   -1.727027    3.606817
     53          1           0        1.537450   -1.344408    4.237483
     54          1           0        2.133670   -2.686988    2.938316
     55          1           0        6.582208   -2.596642    1.640109
     56          1           0        7.654802   -0.986158    1.550645
     57          1           0        7.825066   -2.432864    0.434596
     58          1           0       -0.787152   -2.093393    1.558037
     59          1           0       -0.451056   -2.206061    3.297301
     60          1           0       -1.474192   -0.336311   -0.129664
     61          1           0       -2.295055    4.822361   -1.674390
     62          1           0       -0.748359    4.460205   -1.225638
     63          1           0        7.972689   -0.672287   -3.209116
     64          1           0       -1.599269    4.559331    1.362827
     65          1           0       -3.083135    5.040286    0.798419
     66          1           0       -4.365443    3.798295   -2.625113
     67          1           0       -5.297125    2.685020   -1.713250
     68          1           0       -4.277577    1.959901   -3.118325
     69          1           0       -4.749040   -0.112268   -1.923227
     70          1           0        9.245807   -0.702884   -0.349239
     71          1           0       10.045587   -0.313220   -1.794162
     72          1           0       -3.878736   -2.791295    3.125371
     73          1           0       -5.556295   -1.571777   -2.588657
     74          1           0       -4.983457   -5.385105   -0.254671
     75          1           0       -4.274716   -5.787741   -1.993044
     76          1           0       -3.281979   -5.829255   -0.527637
     77          1           0       -1.627271    8.112958    1.686096
     78          1           0       -7.578041   -3.264134   -2.981370
     79          1           0       -6.684963   -4.631504   -1.868003
 ---------------------------------------------------------------------

 SCF Done:  E(RB3LYP) =  -1947.83629046     A.U. after   22 cycles

 Excitation energies and oscillator strengths:

 Excited State   1:      Singlet-A      1.9752 eV  627.70 nm  f=0.1441  <S**2>=0.000
     153 ->156        -0.13625
     154 ->156         0.29379
     155 ->156         0.61678
 This state for optimization and/or second-order correction.
 Total Energy, E(TD-HF/TD-DFT) =  -1947.76370253
 Copying the excited state density for this state as the 1-particle RhoCI density.

 The electronic state is 1-A.
 Alpha  occ. eigenvalues --  -19.19572 -19.16751 -19.13501 -19.10749 -19.09518
 Alpha  occ. eigenvalues --  -19.09376 -14.39348 -14.36877 -14.36326 -14.28529
 Alpha  occ. eigenvalues --  -10.33301 -10.30483 -10.28935 -10.25841 -10.25305
 Alpha  occ. eigenvalues --  -10.25115 -10.25041 -10.23428 -10.23332 -10.23139
 Alpha  occ. eigenvalues --  -10.23129 -10.22661 -10.22638 -10.22565 -10.22124
 Alpha  occ. eigenvalues --  -10.21949 -10.21699 -10.21504 -10.21372 -10.21237
 Alpha  occ. eigenvalues --  -10.20811 -10.20732 -10.20732 -10.20347 -10.19778
 Alpha  occ. eigenvalues --  -10.19614 -10.19603 -10.19523 -10.19402 -10.19169
 Alpha  occ. eigenvalues --  -10.19099 -10.18943 -10.18493  -1.09906  -1.09812
 Alpha  occ. eigenvalues --   -1.01189  -1.00632  -0.99142  -0.98057  -0.97340
 Alpha  occ. eigenvalues --   -0.96933  -0.92719  -0.88682  -0.83465  -0.82267
 Alpha  occ. eigenvalues --   -0.82016  -0.81134  -0.80002  -0.79039  -0.78365
 Alpha  occ. eigenvalues --   -0.77752  -0.76359  -0.75467  -0.74382  -0.73006
 Alpha  occ. eigenvalues --   -0.71414  -0.70858  -0.69675  -0.68840  -0.68520
 Alpha  occ. eigenvalues --   -0.67034  -0.65696  -0.63780  -0.61860  -0.61164
 Alpha  occ. eigenvalues --   -0.60274  -0.58619  -0.58115  -0.56742  -0.56463
 Alpha  occ. eigenvalues --   -0.56195  -0.55995  -0.55150  -0.54371  -0.53557
 Alpha  occ. eigenvalues --   -0.52179  -0.51156  -0.50895  -0.50295  -0.49572
 Alpha  occ. eigenvalues --   -0.48877  -0.48392  -0.48285  -0.47641  -0.47410
 Alpha  occ. eigenvalues --   -0.47229  -0.46889  -0.46706  -0.45565  -0.45455
 Alpha  occ. eigenvalues --   -0.45254  -0.45077  -0.44595  -0.43950  -0.43704
 Alpha  occ. eigenvalues --   -0.43431  -0.43248  -0.42944  -0.42642  -0.42481
 Alpha  occ. eigenvalues --   -0.42077  -0.41732  -0.41625  -0.41417  -0.41332
 Alpha  occ. eigenvalues --   -0.40887  -0.40237  -0.40133  -0.39790  -0.39067
 Alpha  occ. eigenvalues --   -0.38952  -0.38573  -0.38481  -0.38312  -0.37821
 Alpha  occ. eigenvalues --   -0.37703  -0.37468  -0.37190  -0.36710  -0.36387
 Alpha  occ. eigenvalues --   -0.36376  -0.36000  -0.34628  -0.34419  -0.33578
 Alpha  occ. eigenvalues --   -0.33369  -0.33111  -0.32638  -0.31694  -0.31125
 Alpha  occ. eigenvalues --   -0.30729  -0.30326  -0.29341  -0.28216  -0.26500
 Alpha  occ. eigenvalues --   -0.26298  -0.25998  -0.25928  -0.25178  -0.23740
 Alpha  occ. eigenvalues --   -0.23598  -0.23269  -0.22913  -0.21614  -0.19927
 Alpha virt. eigenvalues --   -0.11391  -0.06946  -0.06513  -0.01489  -0.00756
 Alpha virt. eigenvalues --    0.00234   0.00839   0.01757   0.02003   0.02291
 Alpha virt. eigenvalues --    0.02567   0.03419   0.03780   0.03941   0.04938

 Mulliken charges:
               1
     1  O   -0.249546
     2  O   -0.109987
     3  O   -0.270070
     4  O   -0.218643
     5  O   -0.229136
     6  O   -0.278105
     7  N   -0.091592
     8  N   -0.282851
     9  N   -0.148310
    10  N   -0.370165
    11  C    0.035459
    12  C    0.254051
    13  C   -0.146775
    14  C   -0.041102
    15  C   -0.132036
    16  C    0.007356
    17  C   -0.132667
    18  C    0.068498
    19  C   -0.067366
    20  C   -0.062325
    21  C    0.153626
    22  C    0.193527
    23  C   -0.101404
    24  C    0.010016
    25  C    0.041138
    26  C   -0.093758
    27  C   -0.048056
    28  C    0.183896
    29  C    0.204197
    30  C    0.024379
    31  C   -0.079580
    32  C    0.005001
    33  C   -0.022606
    34  C    0.149055
    35  C    0.071935
    36  C   -0.049615
    37  C    0.184775
    38  C    0.005384
    39  C   -0.176476
    40  C    0.207665
    41  C    0.015241
    42  C    0.025876
    43  C   -0.052296
    44  H    0.050760
    45  H   -0.037651
    46  H    0.021858
    47  H    0.159470
    48  H    0.191578
    49  H    0.011181
    50  H    0.012177
    51  H   -0.009378
    52  H   -0.019985
    53  H    0.045428
    54  H    0.026736
    55  H    0.039790
    56  H    0.056910
    57  H    0.021235
    58  H    0.094130
    59  H    0.038877
    60  H    0.204729
    61  H   -0.002816
    62  H   -0.000306
    63  H    0.027803
    64  H    0.052279
    65  H    0.052449
    66  H    0.035927
    67  H    0.027767
    68  H    0.054712
    69  H   -0.116445
    70  H   -0.001306
    71  H    0.023846
    72  H    0.136334
    73  H    0.020274
    74  H    0.036375
    75  H    0.042545
    76  H    0.011710
    77  H    0.220277
    78  H    0.042963
    79  H    0.041163
 Sum of Mulliken charges =  -0.00000

 Dipole moment (field-independent basis, Debye):
    X=              0.7473    Y=              4.0337    Z=              3.7752  Tot=              5.5751
 Quadrupole moment (field-independent basis, Debye-Ang):
   XX=           -220.7118   YY=           -237.3075   ZZ=           -266.0887
   XY=            -16.7883   XZ=             32.3779   YZ=             10.1883

 Normal termination of Gaussian 16 at Wed Oct  9 02:16:15 2019.
