 Gaussian 16, Revision A.03,
 Gaussian 16:  ES64L-G16RevA.03 25-Dec-2016

 --------------------------
 # td=(NStates=1) B3LYP/SVP
 --------------------------

 --
 TD
 --
 Symbolic Z-matrix:
 Charge =  0 Multiplicity = 1

                         Standard orientation:
 ---------------------------------------------------------------------
 Center     Atomic      Atomic             Coordinates (Angstroms)
 Number     Number       Type             X           Y           Z
 ---------------------------------------------------------------------
      1          8           0        5.314051   -0.114874   -3.339888
      2          8           0       -2.763490   -3.175103    3.250708
      3          8           0       -3.305134   -1.094999    2.832215
      4          8           0       -1.843324    7.242920    1.365074
      5          8           0       -1.016315    7.124853   -0.706522
      6          8           0       -1.668715   -4.047514   -0.127479
      7          7           0        2.396597    1.237348    0.670765
      8          7           0        4.349034   -0.530937   -1.279401
      9          7           0       -1.844143    0.578070   -0.371918
     10          7           0       -2.585592   -1.945919   -0.537570
     11          6           0        4.797456   -0.981073    0.033744
     12          6           0        4.504189   -0.110281    1.278102
     13          6           0        3.052664    0.230561    1.412658
     14          6           0        2.022227   -0.474158    2.152882
     15          6           0        0.801089    0.134616    1.868213
     16          6           0        1.008664    1.130121    0.947753
     17          6           0        6.457122   -1.248283   -0.194567
     18          6           0       -0.521737   -0.119207    2.501467
     19          6           0        6.727065   -0.867816   -1.446535
     20          6           0        0.086579    2.018659    0.261791
     21          6           0       -1.154536    1.732735   -0.313676
     22          6           0        5.433746   -0.405021   -2.194758
     23          6           0       -2.096692    2.892508   -0.775485
     24          6           0        2.286019   -1.596912    3.186629
     25          6           0        7.169773   -1.744060    0.965933
     26          6           0       -3.238626    2.240554   -1.247772
     27          6           0       -0.995207   -1.625654    2.309812
     28          6           0       -3.136849    0.835817   -0.946068
     29          6           0       -1.653392    4.317924   -0.897483
     30          6           0        8.057895   -0.884075   -2.061097
     31          6           0       -1.791790    5.123313    0.371562
     32          6           0       -4.411917    2.853873   -1.910098
     33          6           0       -4.081813   -0.111451   -1.151924
     34          6           0       -2.476047   -1.937182    2.900288
     35          6           0       -3.685712   -1.458075   -0.997026
     36          6           0        9.270732   -0.965334   -1.479993
     37          6           0       -1.435225    6.549634    0.270376
     38          6           0       -4.634103   -2.663133   -1.306198
     39          6           0       -3.837329   -3.735864   -1.029687
     40          6           0       -2.528166   -3.323321   -0.585693
     41          6           0       -5.896638   -2.596580   -1.944082
     42          6           0       -4.140632   -5.321488   -1.279870
     43          6           0       -6.826157   -3.592204   -2.201682
     44          1           0        4.364698   -1.984450    0.276349
     45          1           0        5.033254    0.855472    1.207606
     46          1           0        4.698424   -0.494199    2.234289
     47          1           0        2.782461    1.462629   -0.341511
     48          1           0        3.450397   -0.286339   -1.533440
     49          1           0       -0.396498    0.132361    3.704074
     50          1           0       -1.387188    0.426001    1.945005
     51          1           0        0.384678    2.993457    0.191207
     52          1           0        3.407221   -1.396818    3.594384
     53          1           0        1.606302   -1.343856    4.069150
     54          1           0        1.990891   -2.666600    2.724762
     55          1           0        6.510810   -2.508882    1.367899
     56          1           0        7.360007   -1.214417    1.884905
     57          1           0        8.134561   -2.197756    0.529241
     58          1           0       -1.189817   -1.913005    1.165732
     59          1           0       -0.245219   -2.404090    2.795524
     60          1           0       -1.715810   -0.411265   -0.081501
     61          1           0       -2.144281    4.974942   -1.514010
     62          1           0       -0.767595    4.491987   -1.425209
     63          1           0        8.090808   -0.932468   -3.222439
     64          1           0       -1.291973    4.563615    1.368021
     65          1           0       -2.890492    5.014187    0.835894
     66          1           0       -4.098630    3.998591   -2.374111
     67          1           0       -5.267431    3.077275   -1.240287
     68          1           0       -5.100608    2.038096   -2.759195
     69          1           0       -5.113844    0.267198   -1.343222
     70          1           0        9.498490   -0.809504   -0.360093
     71          1           0       10.237739   -0.849217   -2.042149
     72          1           0       -3.725012   -3.289118    3.557867
     73          1           0       -6.348839   -1.576122   -2.151184
     74          1           0       -5.024551   -5.709025   -0.569959
     75          1           0       -4.527897   -5.377603   -2.393295
     76          1           0       -3.141723   -5.795653   -1.140248
     77          1           0       -1.474733    8.129022    1.212862
     78          1           0       -7.664570   -3.196753   -2.700881
     79          1           0       -6.777803   -4.714750   -2.023115
 ---------------------------------------------------------------------

 SCF Done:  E(RB3LYP) =  -1947.85387827     A.U. after   16 cycles

 Excitation energies and oscillator strengths:

 Excited State   1:      Singlet-A      2.0013 eV  619.51 nm  f=0.4179  <S**2>=0.000
     155 ->156         0.70187
 This state for optimization and/or second-order correction.
 Total Energy, E(TD-HF/TD-DFT) =  -1947.78033054
 Copying the excited state density for this state as the 1-particle RhoCI density.

 The electronic state is 1-A.
 Alpha  occ. eigenvalues --  -19.18715 -19.17368 -19.13998 -19.11279 -19.11207
 Alpha  occ. eigenvalues --  -19.10407 -14.38397 -14.36848 -14.35509 -14.29639
 Alpha  occ. eigenvalues --  -10.33088 -10.30279 -10.29774 -10.26809 -10.25446
 Alpha  occ. eigenvalues --  -10.25126 -10.24885 -10.24332 -10.23917 -10.23458
 Alpha  occ. eigenvalues --  -10.23078 -10.22986 -10.22724 -10.22269 -10.22048
 Alpha  occ. eigenvalues --  -10.21720 -10.21242 -10.21225 -10.21056 -10.21037
 Alpha  occ. eigenvalues --  -10.21012 -10.20948 -10.20820 -10.20762 -10.20574
 Alpha  occ. eigenvalues --  -10.20445 -10.20416 -10.20113 -10.19932 -10.19691
 Alpha  occ. eigenvalues --  -10.19420 -10.19352 -10.18721  -1.10860  -1.09048
 Alpha  occ. eigenvalues --   -1.04477  -1.02669  -1.01563  -0.99517  -0.97694
 Alpha  occ. eigenvalues --   -0.96300  -0.93927  -0.92948  -0.83358  -0.82625
 Alpha  occ. eigenvalues --   -0.82013  -0.80544  -0.80012  -0.79834  -0.78597
 Alpha  occ. eigenvalues --   -0.76836  -0.75626  -0.73841  -0.73790  -0.72051
 Alpha  occ. eigenvalues --   -0.71801  -0.70215  -0.68691  -0.68518  -0.67130
 Alpha  occ. eigenvalues --   -0.65758  -0.65233  -0.63954  -0.61082  -0.61006
 Alpha  occ. eigenvalues --   -0.60228  -0.59222  -0.58977  -0.58689  -0.57872
 Alpha  occ. eigenvalues --   -0.55916  -0.54749  -0.54494  -0.53295  -0.52872
 Alpha  occ. eigenvalues --   -0.52265  -0.51659  -0.50962  -0.50496  -0.49646
 Alpha  occ. eigenvalues --   -0.49129  -0.48291  -0.48143  -0.47886  -0.47404
 Alpha  occ. eigenvalues --   -0.46907  -0.46507  -0.46407  -0.46123  -0.46101
 Alpha  occ. eigenvalues --   -0.45259  -0.45080  -0.44295  -0.43933  -0.43732
 Alpha  occ. eigenvalues --   -0.43457  -0.43415  -0.42906  -0.42574  -0.42246
 Alpha  occ. eigenvalues --   -0.42199  -0.41733  -0.41634  -0.41401  -0.41256
 Alpha  occ. eigenvalues --   -0.40854  -0.40775  -0.40410  -0.40245  -0.40059
 Alpha  occ. eigenvalues --   -0.39818  -0.39634  -0.38548  -0.38318  -0.38019
 Alpha  occ. eigenvalues --   -0.37529  -0.37089  -0.36449  -0.36370  -0.36141
 Alpha  occ. eigenvalues --   -0.35942  -0.35824  -0.35022  -0.34044  -0.33871
 Alpha  occ. eigenvalues --   -0.33431  -0.32922  -0.32655  -0.32275  -0.31576
 Alpha  occ. eigenvalues --   -0.31309  -0.31035  -0.29770  -0.28749  -0.27697
 Alpha  occ. eigenvalues --   -0.26864  -0.26727  -0.26307  -0.25876  -0.25383
 Alpha  occ. eigenvalues --   -0.24637  -0.24450  -0.23751  -0.22447  -0.19209
 Alpha virt. eigenvalues --   -0.11241  -0.06886  -0.05513  -0.02061  -0.01322
 Alpha virt. eigenvalues --   -0.00575   0.00756   0.01777   0.02287   0.02808
 Alpha virt. eigenvalues --    0.03135   0.03843   0.04166   0.04869   0.05593

 Mulliken charges:
               1
     1  O   -0.168536
     2  O   -0.178836
     3  O   -0.222853
     4  O   -0.181759
     5  O   -0.224680
     6  O   -0.194374
     7  N   -0.158345
     8  N   -0.209881
     9  N   -0.094291
    10  N   -0.269992
    11  C    0.065446
    12  C    0.269136
    13  C   -0.154755
    14  C   -0.137496
    15  C   -0.013888
    16  C    0.068798
    17  C   -0.126419
    18  C    0.011643
    19  C   -0.052996
    20  C   -0.074829
    21  C    0.100720
    22  C    0.171509
    23  C   -0.071096
    24  C    0.003776
    25  C    0.083102
    26  C   -0.049362
    27  C   -0.131203
    28  C    0.139772
    29  C    0.176497
    30  C   -0.026561
    31  C   -0.141717
    32  C   -0.060194
    33  C   -0.150464
    34  C    0.116408
    35  C    0.112087
    36  C   -0.092718
    37  C    0.160437
    38  C    0.074158
    39  C   -0.207164
    40  C    0.163523
    41  C   -0.083058
    42  C    0.006576
    43  C   -0.025963
    44  H    0.023448
    45  H   -0.008844
    46  H   -0.035934
    47  H    0.154756
    48  H    0.102772
    49  H    0.038146
    50  H    0.045298
    51  H   -0.036213
    52  H    0.031688
    53  H    0.032371
    54  H    0.083154
    55  H    0.009467
    56  H    0.040012
    57  H    0.046496
    58  H    0.115072
    59  H    0.027846
    60  H    0.157796
    61  H   -0.035997
    62  H    0.005836
    63  H    0.037088
    64  H    0.067715
    65  H    0.067366
    66  H    0.058037
    67  H    0.044449
    68  H    0.049727
    69  H    0.006639
    70  H    0.031409
    71  H    0.037378
    72  H    0.203244
    73  H    0.004822
    74  H    0.052858
    75  H    0.045449
    76  H    0.048318
    77  H    0.177570
    78  H    0.011319
    79  H    0.039281
 Sum of Mulliken charges =  -0.00000

 Dipole moment (field-independent basis, Debye):
    X=             -0.2904    Y=              2.2906    Z=              3.4808  Tot=              4.1770
 Quadrupole moment (field-independent basis, Debye-Ang):
   XX=           -217.5393   YY=           -252.0796   ZZ=           -262.7124
   XY=             -3.9345   XZ=             27.9594   YZ=              1.7651

 Normal termination of Gaussian 16 at Wed Oct  2 11:49:52 2019.
