 Gaussian 16, Revision A.03,
 Gaussian 16:  ES64L-G16RevA.03 25-Dec-2016

 --------------------------
 # td=(NStates=1) B3LYP/SVP
 --------------------------

 --
 TD
 --
 Symbolic Z-matrix:
 Charge =  0 Multiplicity = 1

                         Standard orientation:
 ---------------------------------------------------------------------
 Center     Atomic      Atomic             Coordinates (Angstroms)
 Number     Number       Type             X           Y           Z
 ---------------------------------------------------------------------
      1          8           0       -3.185724   -2.009438   -2.483250
      2          8           0        3.018179    3.864349    2.008707
      3          8           0        3.521353    2.698954    3.985001
      4          8           0        7.711222   -1.737145   -0.035230
      5          8           0        6.832225   -3.146714   -1.835557
      6          8           0       -2.643201    1.930633    1.153594
      7          7           0       -0.116103   -2.149477    1.484260
      8          7           0       -2.639817   -1.306310   -0.292442
      9          7           0        1.172129   -0.058737   -0.628163
     10          7           0       -0.974686    1.325518   -0.423570
     11          6           0       -3.338348   -1.205046    0.937535
     12          6           0       -2.577409   -2.051440    2.119543
     13          6           0       -1.149592   -1.638475    2.230466
     14          6           0       -0.517838   -0.453697    3.006327
     15          6           0        0.866887   -0.521783    2.693581
     16          6           0        1.045007   -1.511084    1.698206
     17          6           0       -4.722621   -1.855885    0.693077
     18          6           0        1.848779    0.461856    3.216764
     19          6           0       -4.804534   -2.295043   -0.581559
     20          6           0        2.109424   -1.762433    0.827225
     21          6           0        2.121079   -1.061703   -0.284241
     22          6           0       -3.456530   -1.822950   -1.250326
     23          6           0        2.968405   -1.110889   -1.513024
     24          6           0       -1.229791    0.488060    3.824201
     25          6           0       -5.774976   -1.746389    1.726270
     26          6           0        2.481014   -0.240360   -2.473544
     27          6           0        1.988631    1.711849    2.181983
     28          6           0        1.299847    0.279313   -1.944513
     29          6           0        4.293226   -1.903319   -1.752873
     30          6           0       -5.879209   -2.841919   -1.473931
     31          6           0        5.401161   -1.398328   -0.786687
     32          6           0        3.024952    0.121153   -3.831221
     33          6           0        0.440429    1.333158   -2.494991
     34          6           0        2.944530    2.834004    2.877790
     35          6           0       -0.751905    1.776837   -1.747691
     36          6           0       -7.073768   -3.393909   -1.100163
     37          6           0        6.725482   -2.160667   -0.988813
     38          6           0       -1.547316    2.981471   -1.984632
     39          6           0       -2.285959    3.190732   -0.832622
     40          6           0       -2.131483    2.095661    0.071689
     41          6           0       -1.392173    3.848785   -3.107319
     42          6           0       -3.322125    4.200581   -0.441871
     43          6           0       -2.107874    4.896601   -3.616146
     44          1           0       -3.457442   -0.180730    1.185305
     45          1           0       -2.533675   -3.046616    2.109701
     46          1           0       -3.029626   -1.691120    3.126088
     47          1           0       -0.320337   -2.949134    0.707575
     48          1           0       -1.867404   -0.774857   -0.576250
     49          1           0        1.678445    0.934073    4.308087
     50          1           0        2.832978   -0.022255    3.249582
     51          1           0        2.973467   -2.417895    0.879592
     52          1           0       -2.170558    0.100957    4.324931
     53          1           0       -0.400467    0.890945    4.649101
     54          1           0       -1.536125    1.506596    3.212523
     55          1           0       -5.488208   -1.253084    2.687555
     56          1           0       -6.086214   -2.645130    2.419794
     57          1           0       -6.741227   -1.294690    1.136748
     58          1           0        2.217867    1.503098    1.267267
     59          1           0        1.047049    2.248531    2.155241
     60          1           0        0.459419    0.319426   -0.124994
     61          1           0        4.789443   -2.318486   -2.825575
     62          1           0        4.063654   -2.842664   -1.292674
     63          1           0       -5.671846   -2.899007   -2.629160
     64          1           0        5.108172   -1.361791    0.332673
     65          1           0        5.792067   -0.265160   -1.047512
     66          1           0        3.770691   -0.516482   -4.061225
     67          1           0        3.609131    1.183248   -3.635738
     68          1           0        2.281113    0.350632   -4.592418
     69          1           0        0.639546    1.673765   -3.577810
     70          1           0       -7.221554   -3.592048   -0.164835
     71          1           0       -7.782050   -3.679561   -1.718298
     72          1           0        3.757976    4.525118    2.478148
     73          1           0       -0.507305    3.615807   -3.759678
     74          1           0       -4.481145    4.030332   -0.901156
     75          1           0       -3.432834    4.304123    0.646690
     76          1           0       -2.914378    5.196352   -0.635376
     77          1           0        8.459149   -2.319701   -0.372186
     78          1           0       -1.799764    5.533236   -4.413116
     79          1           0       -3.133525    5.203663   -3.266264
 ---------------------------------------------------------------------

 SCF Done:  E(RB3LYP) =  -1947.77094646     A.U. after   16 cycles

 Excitation energies and oscillator strengths:

 Excited State   1:      Singlet-A      0.7567 eV 1638.41 nm  f=0.0001  <S**2>=0.000
     155 ->156         0.70390
 This state for optimization and/or second-order correction.
 Total Energy, E(TD-HF/TD-DFT) =  -1947.74313705
 Copying the excited state density for this state as the 1-particle RhoCI density.

 The electronic state is 1-A.
 Alpha  occ. eigenvalues --  -19.20982 -19.20163 -19.15713 -19.13094 -19.12732
 Alpha  occ. eigenvalues --  -19.07512 -14.38469 -14.36625 -14.33491 -14.30428
 Alpha  occ. eigenvalues --  -10.35407 -10.32594 -10.27710 -10.26808 -10.26449
 Alpha  occ. eigenvalues --  -10.25711 -10.25660 -10.24884 -10.23877 -10.23525
 Alpha  occ. eigenvalues --  -10.22675 -10.22477 -10.22298 -10.22055 -10.21878
 Alpha  occ. eigenvalues --  -10.21804 -10.21673 -10.21057 -10.21039 -10.20742
 Alpha  occ. eigenvalues --  -10.20653 -10.20634 -10.20609 -10.20346 -10.19909
 Alpha  occ. eigenvalues --  -10.19817 -10.19761 -10.19297 -10.19176 -10.19037
 Alpha  occ. eigenvalues --  -10.17473 -10.17358 -10.16251  -1.07935  -1.07733
 Alpha  occ. eigenvalues --   -1.03838  -0.99796  -0.99504  -0.98911  -0.98275
 Alpha  occ. eigenvalues --   -0.96839  -0.91820  -0.91377  -0.83814  -0.83490
 Alpha  occ. eigenvalues --   -0.80534  -0.80256  -0.79425  -0.79048  -0.77651
 Alpha  occ. eigenvalues --   -0.76586  -0.75141  -0.74452  -0.74060  -0.73092
 Alpha  occ. eigenvalues --   -0.70689  -0.69905  -0.69579  -0.69301  -0.67063
 Alpha  occ. eigenvalues --   -0.65890  -0.64912  -0.63984  -0.61658  -0.60236
 Alpha  occ. eigenvalues --   -0.59760  -0.58738  -0.58476  -0.57510  -0.56815
 Alpha  occ. eigenvalues --   -0.56572  -0.55440  -0.54305  -0.53173  -0.52254
 Alpha  occ. eigenvalues --   -0.51997  -0.51637  -0.50788  -0.50062  -0.49550
 Alpha  occ. eigenvalues --   -0.49276  -0.48404  -0.48310  -0.48075  -0.47586
 Alpha  occ. eigenvalues --   -0.47293  -0.47084  -0.46692  -0.46058  -0.45850
 Alpha  occ. eigenvalues --   -0.45406  -0.45143  -0.44813  -0.44494  -0.44063
 Alpha  occ. eigenvalues --   -0.44003  -0.43732  -0.43013  -0.42539  -0.42058
 Alpha  occ. eigenvalues --   -0.41460  -0.41315  -0.41183  -0.40839  -0.40285
 Alpha  occ. eigenvalues --   -0.40249  -0.40102  -0.39847  -0.39501  -0.39272
 Alpha  occ. eigenvalues --   -0.39053  -0.38680  -0.38360  -0.38123  -0.37763
 Alpha  occ. eigenvalues --   -0.37694  -0.36868  -0.36657  -0.36488  -0.36394
 Alpha  occ. eigenvalues --   -0.35946  -0.35496  -0.35172  -0.35041  -0.34660
 Alpha  occ. eigenvalues --   -0.33969  -0.33551  -0.32980  -0.32123  -0.31780
 Alpha  occ. eigenvalues --   -0.30880  -0.29928  -0.29725  -0.29636  -0.28882
 Alpha  occ. eigenvalues --   -0.27833  -0.27152  -0.25258  -0.24283  -0.23723
 Alpha  occ. eigenvalues --   -0.23010  -0.22482  -0.22323  -0.21675  -0.18160
 Alpha virt. eigenvalues --   -0.12930  -0.08279  -0.04701  -0.04092  -0.02082
 Alpha virt. eigenvalues --   -0.00072   0.01200   0.01612   0.02128   0.02526
 Alpha virt. eigenvalues --    0.03155   0.03409   0.03781   0.04218   0.04550

 Mulliken charges:
               1
     1  O   -0.305609
     2  O   -0.226235
     3  O   -0.266509
     4  O   -0.231214
     5  O   -0.294158
     6  O   -0.187836
     7  N   -0.081392
     8  N   -0.140178
     9  N   -0.054529
    10  N   -0.415528
    11  C    0.140341
    12  C    0.242414
    13  C   -0.159419
    14  C   -0.085203
    15  C   -0.050573
    16  C    0.047232
    17  C   -0.148314
    18  C    0.049556
    19  C   -0.006469
    20  C   -0.144156
    21  C    0.146843
    22  C    0.119520
    23  C   -0.076966
    24  C   -0.028695
    25  C   -0.003666
    26  C   -0.135942
    27  C    0.040824
    28  C    0.081670
    29  C    0.067854
    30  C   -0.077964
    31  C   -0.095713
    32  C    0.160953
    33  C   -0.105714
    34  C    0.174046
    35  C    0.137232
    36  C    0.090018
    37  C    0.216795
    38  C    0.098110
    39  C   -0.195186
    40  C    0.210444
    41  C   -0.056958
    42  C    0.061097
    43  C   -0.037023
    44  H    0.026481
    45  H   -0.052129
    46  H    0.007053
    47  H    0.168504
    48  H    0.114604
    49  H    0.049410
    50  H   -0.005046
    51  H   -0.022485
    52  H    0.019165
    53  H    0.014567
    54  H    0.066187
    55  H    0.011214
    56  H    0.034323
    57  H    0.070324
    58  H   -0.024009
    59  H    0.034824
    60  H    0.122499
    61  H    0.096369
    62  H    0.002568
    63  H    0.041831
    64  H    0.079188
    65  H    0.064615
    66  H   -0.016494
    67  H    0.039779
    68  H    0.041414
    69  H    0.020926
    70  H   -0.042309
    71  H   -0.020921
    72  H    0.223945
    73  H    0.004151
    74  H    0.068111
    75  H    0.016863
    76  H    0.011735
    77  H    0.201220
    78  H    0.023103
    79  H    0.034621
 Sum of Mulliken charges =  -0.00000

 Dipole moment (field-independent basis, Debye):
    X=              3.6724    Y=              2.4440    Z=             -1.7639  Tot=              4.7509
 Quadrupole moment (field-independent basis, Debye-Ang):
   XX=           -232.8037   YY=           -239.9938   ZZ=           -266.8984
   XY=             -0.6006   XZ=            -20.9689   YZ=            -22.6885

 Normal termination of Gaussian 16 at Mon Jul 29 05:21:25 2019.
