 Gaussian 16, Revision A.03,
 Gaussian 16:  ES64L-G16RevA.03 25-Dec-2016

 --------------------------
 # td=(NStates=1) B3LYP/SVP
 --------------------------

 --
 TD
 --
 Symbolic Z-matrix:
 Charge =  0 Multiplicity = 1

                         Standard orientation:
 ---------------------------------------------------------------------
 Center     Atomic      Atomic             Coordinates (Angstroms)
 Number     Number       Type             X           Y           Z
 ---------------------------------------------------------------------
      1          8           0        5.533668   -0.276379   -3.319499
      2          8           0       -3.018299   -2.893487    3.318116
      3          8           0       -3.279930   -0.694017    3.253344
      4          8           0       -1.747986    7.169967    1.529771
      5          8           0       -0.783613    7.071756   -0.537204
      6          8           0       -1.862144   -4.113214    0.112397
      7          7           0        2.231409    0.908123    0.541878
      8          7           0        4.495184   -0.627301   -1.284457
      9          7           0       -1.868259    0.739402   -0.440890
     10          7           0       -2.629501   -1.936195   -0.579053
     11          6           0        4.885061   -1.151323   -0.013423
     12          6           0        4.508656   -0.262064    1.198693
     13          6           0        3.010474    0.106197    1.321781
     14          6           0        2.016513   -0.519651    2.166344
     15          6           0        0.716283    0.019502    1.908480
     16          6           0        0.955773    0.938710    0.809970
     17          6           0        6.386316   -1.349087   -0.070216
     18          6           0       -0.606910   -0.216125    2.582051
     19          6           0        6.851691   -0.908483   -1.350084
     20          6           0        0.183230    1.859046    0.103887
     21          6           0       -1.095654    1.811331   -0.387587
     22          6           0        5.623509   -0.498731   -2.177270
     23          6           0       -2.015722    2.976616   -0.814932
     24          6           0        2.246506   -1.625480    3.184907
     25          6           0        7.218658   -1.798062    1.069547
     26          6           0       -3.166782    2.340323   -1.319579
     27          6           0       -1.124866   -1.623495    2.536140
     28          6           0       -3.109398    0.893661   -1.108302
     29          6           0       -1.564152    4.350373   -1.056018
     30          6           0        8.091819   -0.777943   -1.982752
     31          6           0       -1.868328    5.118586    0.373248
     32          6           0       -4.288916    3.074459   -1.944110
     33          6           0       -4.053587   -0.142514   -1.440280
     34          6           0       -2.559713   -1.655304    3.030026
     35          6           0       -3.741394   -1.547436   -1.238786
     36          6           0        9.282929   -0.723495   -1.498693
     37          6           0       -1.387503    6.477743    0.330522
     38          6           0       -4.639885   -2.659637   -1.506165
     39          6           0       -4.009978   -3.842670   -1.025225
     40          6           0       -2.710349   -3.328347   -0.402480
     41          6           0       -5.937823   -2.467448   -2.171270
     42          6           0       -4.469453   -5.219455   -1.030386
     43          6           0       -6.718759   -3.458460   -2.554503
     44          1           0        4.527406   -2.115648    0.193986
     45          1           0        5.093237    0.637520    0.984489
     46          1           0        4.939096   -0.654259    2.175853
     47          1           0        2.802020    1.256500   -0.215812
     48          1           0        3.575127   -0.699730   -1.655789
     49          1           0       -0.518273   -0.016914    3.685178
     50          1           0       -1.402053    0.437458    2.130739
     51          1           0        0.937767    2.612878   -0.414161
     52          1           0        3.271705   -1.764194    3.135058
     53          1           0        1.738473   -1.305016    4.133979
     54          1           0        1.768847   -2.598933    2.762707
     55          1           0        6.604969   -2.420461    1.726137
     56          1           0        7.587188   -1.171132    2.026764
     57          1           0        8.121757   -2.319155    0.635658
     58          1           0       -1.047004   -1.854568    1.541280
     59          1           0       -0.673991   -2.184447    3.219527
     60          1           0       -1.489939   -0.224289   -0.176111
     61          1           0       -2.013821    4.774137   -2.052363
     62          1           0       -0.487085    4.317772   -1.190502
     63          1           0        7.912104   -1.014575   -3.277749
     64          1           0       -1.104657    4.656312    1.093994
     65          1           0       -2.775131    5.068645    0.984818
     66          1           0       -4.151765    4.071203   -2.101144
     67          1           0       -5.184865    3.007353   -1.284836
     68          1           0       -4.539191    2.489637   -2.842629
     69          1           0       -4.997418    0.054808   -1.912153
     70          1           0        9.426162   -0.386797   -0.406853
     71          1           0        9.989021   -0.973024   -2.451721
     72          1           0       -4.011680   -2.677993    3.591304
     73          1           0       -6.292668   -1.515212   -2.312839
     74          1           0       -5.874785   -5.374928   -0.935396
     75          1           0       -4.033106   -5.597678   -2.195460
     76          1           0       -4.083883   -5.852728   -0.020157
     77          1           0       -1.233726    8.081615    1.345780
     78          1           0       -7.811504   -3.118456   -2.995229
     79          1           0       -6.353211   -4.478939   -2.585311
 ---------------------------------------------------------------------

 SCF Done:  E(RB3LYP) =  -1947.79922017     A.U. after   25 cycles

 Excitation energies and oscillator strengths:

 Excited State   1:      Singlet-A      1.9348 eV  640.83 nm  f=0.4287  <S**2>=0.000
     154 ->156         0.22507
     155 ->156         0.67206
     155 <-156        -0.13794
 This state for optimization and/or second-order correction.
 Total Energy, E(TD-HF/TD-DFT) =  -1947.72811937
 Copying the excited state density for this state as the 1-particle RhoCI density.

 The electronic state is 1-A.
 Alpha  occ. eigenvalues --  -19.17444 -19.17273 -19.13694 -19.12082 -19.11321
 Alpha  occ. eigenvalues --  -19.10106 -14.39211 -14.37536 -14.35681 -14.29021
 Alpha  occ. eigenvalues --  -10.32272 -10.30578 -10.29612 -10.26660 -10.26045
 Alpha  occ. eigenvalues --  -10.25092 -10.24588 -10.23987 -10.23876 -10.23817
 Alpha  occ. eigenvalues --  -10.23472 -10.23388 -10.23291 -10.22865 -10.22780
 Alpha  occ. eigenvalues --  -10.22710 -10.22212 -10.21579 -10.21408 -10.21154
 Alpha  occ. eigenvalues --  -10.21108 -10.20964 -10.20460 -10.20202 -10.19868
 Alpha  occ. eigenvalues --  -10.19777 -10.19762 -10.19614 -10.19510 -10.19506
 Alpha  occ. eigenvalues --  -10.19439 -10.19010 -10.17510  -1.07963  -1.07691
 Alpha  occ. eigenvalues --   -1.06279  -1.01289  -0.98771  -0.98648  -0.98311
 Alpha  occ. eigenvalues --   -0.97971  -0.94614  -0.91031  -0.82921  -0.82736
 Alpha  occ. eigenvalues --   -0.82195  -0.81768  -0.80212  -0.80011  -0.78726
 Alpha  occ. eigenvalues --   -0.77884  -0.77253  -0.75870  -0.74622  -0.73060
 Alpha  occ. eigenvalues --   -0.72163  -0.71901  -0.70302  -0.68684  -0.68384
 Alpha  occ. eigenvalues --   -0.67139  -0.66436  -0.63563  -0.61437  -0.60016
 Alpha  occ. eigenvalues --   -0.58774  -0.58253  -0.57798  -0.56960  -0.56201
 Alpha  occ. eigenvalues --   -0.55683  -0.55187  -0.55056  -0.54299  -0.53433
 Alpha  occ. eigenvalues --   -0.52810  -0.51273  -0.50542  -0.50290  -0.50106
 Alpha  occ. eigenvalues --   -0.49227  -0.48940  -0.48884  -0.48246  -0.47810
 Alpha  occ. eigenvalues --   -0.47267  -0.47076  -0.46851  -0.46671  -0.46139
 Alpha  occ. eigenvalues --   -0.45575  -0.45116  -0.45001  -0.44093  -0.43664
 Alpha  occ. eigenvalues --   -0.43493  -0.43326  -0.42799  -0.42653  -0.42418
 Alpha  occ. eigenvalues --   -0.41951  -0.41901  -0.41748  -0.41304  -0.41123
 Alpha  occ. eigenvalues --   -0.41053  -0.40882  -0.40769  -0.40465  -0.40181
 Alpha  occ. eigenvalues --   -0.39858  -0.39535  -0.39058  -0.38842  -0.38825
 Alpha  occ. eigenvalues --   -0.38506  -0.38206  -0.37427  -0.37361  -0.36941
 Alpha  occ. eigenvalues --   -0.36363  -0.36199  -0.35549  -0.35161  -0.33933
 Alpha  occ. eigenvalues --   -0.33653  -0.33332  -0.32553  -0.32318  -0.31991
 Alpha  occ. eigenvalues --   -0.30697  -0.30412  -0.29000  -0.28543  -0.27861
 Alpha  occ. eigenvalues --   -0.27090  -0.26953  -0.26896  -0.25468  -0.24613
 Alpha  occ. eigenvalues --   -0.24552  -0.24032  -0.23386  -0.21557  -0.18703
 Alpha virt. eigenvalues --   -0.11466  -0.07264  -0.06754  -0.00954  -0.00320
 Alpha virt. eigenvalues --    0.00889   0.00948   0.01626   0.02023   0.02827
 Alpha virt. eigenvalues --    0.03102   0.03308   0.03461   0.03834   0.04439

 Mulliken charges:
               1
     1  O   -0.148084
     2  O   -0.215947
     3  O   -0.256285
     4  O   -0.294489
     5  O   -0.223836
     6  O   -0.251286
     7  N    0.017479
     8  N   -0.230480
     9  N   -0.084454
    10  N   -0.293203
    11  C    0.157897
    12  C    0.147364
    13  C   -0.110323
    14  C   -0.211469
    15  C   -0.052679
    16  C    0.011777
    17  C   -0.143273
    18  C    0.023515
    19  C   -0.082100
    20  C   -0.132851
    21  C    0.076968
    22  C    0.153598
    23  C   -0.095357
    24  C    0.128224
    25  C    0.011200
    26  C   -0.169244
    27  C    0.150038
    28  C    0.173204
    29  C    0.095935
    30  C   -0.067529
    31  C   -0.004188
    32  C    0.156332
    33  C   -0.084885
    34  C    0.114656
    35  C    0.059524
    36  C   -0.079170
    37  C    0.141067
    38  C    0.040803
    39  C   -0.114801
    40  C    0.179030
    41  C    0.021534
    42  C   -0.142414
    43  C   -0.052140
    44  H   -0.001690
    45  H   -0.014159
    46  H    0.025189
    47  H    0.109307
    48  H    0.120003
    49  H    0.001876
    50  H    0.032325
    51  H    0.020328
    52  H   -0.035403
    53  H    0.038651
    54  H    0.052802
    55  H    0.006408
    56  H    0.054625
    57  H    0.056484
    58  H    0.037553
    59  H   -0.019342
    60  H    0.169843
    61  H    0.060328
    62  H    0.011141
    63  H    0.055514
    64  H    0.064687
    65  H    0.054691
    66  H   -0.015188
    67  H    0.026287
    68  H    0.023194
    69  H   -0.029054
    70  H    0.052166
    71  H    0.068062
    72  H    0.209209
    73  H   -0.051203
    74  H    0.056052
    75  H    0.083269
    76  H    0.082294
    77  H    0.211322
    78  H    0.038270
    79  H    0.024501
 Sum of Mulliken charges =  -0.00000

 Dipole moment (field-independent basis, Debye):
    X=              2.3722    Y=              1.7555    Z=              1.9906  Tot=              3.5597
 Quadrupole moment (field-independent basis, Debye-Ang):
   XX=           -219.4534   YY=           -265.3839   ZZ=           -262.0700
   XY=            -10.2578   XZ=             30.8491   YZ=             -0.1982

 Normal termination of Gaussian 16 at Wed Oct  9 05:55:54 2019.
