 Gaussian 16, Revision A.03,
 Gaussian 16:  ES64L-G16RevA.03 25-Dec-2016

 --------------------------
 # td=(NStates=1) B3LYP/SVP
 --------------------------

 --
 TD
 --
 Symbolic Z-matrix:
 Charge =  0 Multiplicity = 1

                         Standard orientation:
 ---------------------------------------------------------------------
 Center     Atomic      Atomic             Coordinates (Angstroms)
 Number     Number       Type             X           Y           Z
 ---------------------------------------------------------------------
      1          8           0        5.320106   -0.043753   -3.307087
      2          8           0       -2.991335   -3.074347    3.176988
      3          8           0       -3.278517   -0.817122    3.244868
      4          8           0       -1.799817    7.237225    1.531076
      5          8           0       -0.772349    7.037535   -0.391706
      6          8           0       -1.656987   -4.014777    0.047210
      7          7           0        2.381613    0.905277    0.734280
      8          7           0        4.358319   -0.497303   -1.298236
      9          7           0       -1.851746    0.675289   -0.500894
     10          7           0       -2.519167   -1.905950   -0.492205
     11          6           0        4.731891   -1.217859   -0.026985
     12          6           0        4.401789   -0.413339    1.235360
     13          6           0        2.957530   -0.110162    1.456005
     14          6           0        1.976799   -0.627003    2.211334
     15          6           0        0.672399    0.002315    1.785740
     16          6           0        1.009104    1.014865    0.856225
     17          6           0        6.217979   -1.239965   -0.204711
     18          6           0       -0.595636   -0.136264    2.652604
     19          6           0        6.614936   -0.720558   -1.433945
     20          6           0        0.168303    2.001698    0.240152
     21          6           0       -1.115769    1.856403   -0.299179
     22          6           0        5.376012   -0.441375   -2.163384
     23          6           0       -1.978965    2.917629   -0.807250
     24          6           0        2.112825   -1.748044    3.232089
     25          6           0        7.038051   -2.015943    0.855980
     26          6           0       -3.134529    2.361639   -1.270398
     27          6           0       -1.052459   -1.699409    2.505399
     28          6           0       -3.051464    0.947577   -1.081210
     29          6           0       -1.516571    4.414115   -0.954646
     30          6           0        7.952587   -0.570563   -2.063097
     31          6           0       -1.865924    5.094298    0.431175
     32          6           0       -4.384658    2.967767   -2.006018
     33          6           0       -3.856147   -0.128382   -1.444778
     34          6           0       -2.603870   -1.811134    3.068345
     35          6           0       -3.541656   -1.488918   -1.156542
     36          6           0        9.183546   -0.611381   -1.519626
     37          6           0       -1.393052    6.531000    0.405864
     38          6           0       -4.445171   -2.609455   -1.584144
     39          6           0       -3.924323   -3.776082   -1.156970
     40          6           0       -2.577642   -3.337960   -0.385138
     41          6           0       -5.755112   -2.453807   -2.319874
     42          6           0       -4.227324   -5.237451   -1.166840
     43          6           0       -6.635268   -3.425291   -2.525491
     44          1           0        4.171839   -2.199358    0.092899
     45          1           0        5.065218    0.392265    1.321763
     46          1           0        4.642093   -1.070177    2.171244
     47          1           0        2.904006    1.309185    0.022954
     48          1           0        3.365033   -0.922757   -1.582900
     49          1           0       -0.327312   -0.155555    3.672121
     50          1           0       -1.505014    0.401516    2.229670
     51          1           0        0.756513    2.966126    0.072541
     52          1           0        3.330980   -2.072488    3.478112
     53          1           0        1.794179   -1.455087    4.289121
     54          1           0        1.579091   -2.491994    3.009585
     55          1           0        6.355429   -2.845551    1.308137
     56          1           0        7.333029   -1.378019    1.786397
     57          1           0        7.845750   -2.481173    0.203939
     58          1           0       -0.824857   -2.089413    1.514797
     59          1           0       -0.536788   -2.359416    3.158143
     60          1           0       -1.438977   -0.235766   -0.164189
     61          1           0       -2.030984    4.982962   -1.730119
     62          1           0       -0.346204    4.307705   -1.105649
     63          1           0        8.036793   -0.437905   -3.039367
     64          1           0       -1.143840    4.579631    1.231620
     65          1           0       -2.876376    5.203821    0.832382
     66          1           0       -4.459322    3.985133   -2.226802
     67          1           0       -5.080324    2.982453   -1.299238
     68          1           0       -4.551169    2.505400   -3.108344
     69          1           0       -4.623413    0.239771   -2.292249
     70          1           0        9.352184   -0.723928   -0.437506
     71          1           0       10.049696   -0.262275   -2.128369
     72          1           0       -4.034387   -3.323384    3.312744
     73          1           0       -5.900157   -1.441974   -2.653818
     74          1           0       -5.279803   -5.495308   -0.766572
     75          1           0       -4.321081   -5.626993   -2.246645
     76          1           0       -3.468235   -5.834420   -0.607895
     77          1           0       -1.288412    8.125972    1.336830
     78          1           0       -7.634306   -3.110105   -3.022173
     79          1           0       -6.612063   -4.541954   -2.340838
 ---------------------------------------------------------------------

 SCF Done:  E(RB3LYP) =  -1947.85428125     A.U. after   16 cycles

 Excitation energies and oscillator strengths:

 Excited State   1:      Singlet-A      2.2100 eV  561.02 nm  f=0.4428  <S**2>=0.000
     155 ->156         0.70127
     155 <-156        -0.11199
 This state for optimization and/or second-order correction.
 Total Energy, E(TD-HF/TD-DFT) =  -1947.77306586
 Copying the excited state density for this state as the 1-particle RhoCI density.

 The electronic state is 1-A.
 Alpha  occ. eigenvalues --  -19.18104 -19.17201 -19.13618 -19.11636 -19.11202
 Alpha  occ. eigenvalues --  -19.09643 -14.36954 -14.36445 -14.36168 -14.29027
 Alpha  occ. eigenvalues --  -10.31233 -10.31109 -10.28088 -10.27487 -10.25477
 Alpha  occ. eigenvalues --  -10.24667 -10.24475 -10.23307 -10.23174 -10.23087
 Alpha  occ. eigenvalues --  -10.22813 -10.22807 -10.22762 -10.22425 -10.22231
 Alpha  occ. eigenvalues --  -10.21979 -10.21721 -10.21273 -10.21239 -10.20315
 Alpha  occ. eigenvalues --  -10.20201 -10.20159 -10.20065 -10.20037 -10.20016
 Alpha  occ. eigenvalues --  -10.19977 -10.19830 -10.19780 -10.19694 -10.19515
 Alpha  occ. eigenvalues --  -10.19266 -10.19043 -10.18567  -1.11994  -1.07246
 Alpha  occ. eigenvalues --   -1.03048  -1.01673  -1.00951  -0.98879  -0.98521
 Alpha  occ. eigenvalues --   -0.98054  -0.94342  -0.92198  -0.82093  -0.81853
 Alpha  occ. eigenvalues --   -0.81490  -0.80241  -0.79878  -0.79571  -0.77659
 Alpha  occ. eigenvalues --   -0.77048  -0.75450  -0.74649  -0.74206  -0.72361
 Alpha  occ. eigenvalues --   -0.71509  -0.70869  -0.69746  -0.69031  -0.67900
 Alpha  occ. eigenvalues --   -0.65865  -0.65636  -0.63813  -0.61184  -0.60179
 Alpha  occ. eigenvalues --   -0.59163  -0.58225  -0.57332  -0.56845  -0.56600
 Alpha  occ. eigenvalues --   -0.55633  -0.55001  -0.54786  -0.54417  -0.53723
 Alpha  occ. eigenvalues --   -0.52050  -0.51746  -0.51181  -0.50151  -0.49927
 Alpha  occ. eigenvalues --   -0.48915  -0.48616  -0.48483  -0.47892  -0.47179
 Alpha  occ. eigenvalues --   -0.46728  -0.46468  -0.46116  -0.45913  -0.45806
 Alpha  occ. eigenvalues --   -0.45257  -0.44230  -0.44175  -0.43964  -0.43809
 Alpha  occ. eigenvalues --   -0.43249  -0.43121  -0.42737  -0.42529  -0.42322
 Alpha  occ. eigenvalues --   -0.42137  -0.41831  -0.41699  -0.41593  -0.41294
 Alpha  occ. eigenvalues --   -0.40962  -0.40735  -0.39952  -0.39734  -0.39561
 Alpha  occ. eigenvalues --   -0.39164  -0.39064  -0.38657  -0.38436  -0.38393
 Alpha  occ. eigenvalues --   -0.38109  -0.37663  -0.37305  -0.36962  -0.35953
 Alpha  occ. eigenvalues --   -0.35804  -0.35374  -0.35336  -0.35160  -0.34538
 Alpha  occ. eigenvalues --   -0.33905  -0.33218  -0.32838  -0.32793  -0.31915
 Alpha  occ. eigenvalues --   -0.31198  -0.30905  -0.29272  -0.29107  -0.27524
 Alpha  occ. eigenvalues --   -0.27373  -0.26398  -0.26333  -0.25428  -0.24758
 Alpha  occ. eigenvalues --   -0.24275  -0.24004  -0.23492  -0.22770  -0.19172
 Alpha virt. eigenvalues --   -0.10553  -0.06725  -0.05938  -0.00161   0.00186
 Alpha virt. eigenvalues --    0.00918   0.01239   0.01628   0.02381   0.02926
 Alpha virt. eigenvalues --    0.03463   0.03956   0.04265   0.04545   0.04959

 Mulliken charges:
               1
     1  O   -0.211441
     2  O   -0.228727
     3  O   -0.231817
     4  O   -0.261700
     5  O   -0.144632
     6  O   -0.197063
     7  N   -0.037404
     8  N   -0.204197
     9  N   -0.113065
    10  N   -0.246052
    11  C    0.039046
    12  C    0.194092
    13  C   -0.086157
    14  C   -0.127590
    15  C   -0.149815
    16  C    0.031210
    17  C   -0.173185
    18  C    0.141178
    19  C    0.004637
    20  C   -0.092715
    21  C    0.109155
    22  C    0.116748
    23  C   -0.102712
    24  C    0.096181
    25  C    0.019329
    26  C   -0.106527
    27  C   -0.100496
    28  C    0.081435
    29  C    0.098733
    30  C    0.032276
    31  C   -0.041064
    32  C    0.146581
    33  C   -0.175725
    34  C    0.170822
    35  C    0.118932
    36  C   -0.047391
    37  C    0.092393
    38  C   -0.009601
    39  C   -0.207033
    40  C    0.160077
    41  C    0.059735
    42  C    0.042262
    43  C   -0.065740
    44  H    0.038106
    45  H   -0.020555
    46  H    0.007867
    47  H    0.083191
    48  H    0.167234
    49  H   -0.002973
    50  H    0.052030
    51  H    0.014316
    52  H    0.017486
    53  H    0.020157
    54  H   -0.013823
    55  H    0.035347
    56  H    0.059649
    57  H    0.061198
    58  H    0.067739
    59  H    0.010829
    60  H    0.173157
    61  H    0.024807
    62  H    0.050990
    63  H   -0.043056
    64  H    0.068991
    65  H    0.049110
    66  H   -0.027845
    67  H   -0.007033
    68  H    0.062101
    69  H    0.024948
    70  H    0.014501
    71  H    0.038618
    72  H    0.236127
    73  H   -0.024013
    74  H    0.033263
    75  H    0.036525
    76  H    0.040659
    77  H    0.196415
    78  H    0.029019
    79  H    0.031947
 Sum of Mulliken charges =  -0.00000

 Dipole moment (field-independent basis, Debye):
    X=              0.3091    Y=              0.4618    Z=              2.2526  Tot=              2.3202
 Quadrupole moment (field-independent basis, Debye-Ang):
   XX=           -220.3098   YY=           -243.0748   ZZ=           -264.8910
   XY=             -4.0436   XZ=             31.1182   YZ=             -4.1974

 Normal termination of Gaussian 16 at Wed Sep 18 16:43:20 2019.
