 Gaussian 16, Revision A.03,
 Gaussian 16:  ES64L-G16RevA.03 25-Dec-2016

 --------------------------
 # td=(NStates=1) B3LYP/SVP
 --------------------------

 --
 TD
 --
 Symbolic Z-matrix:
 Charge =  0 Multiplicity = 1

                         Standard orientation:
 ---------------------------------------------------------------------
 Center     Atomic      Atomic             Coordinates (Angstroms)
 Number     Number       Type             X           Y           Z
 ---------------------------------------------------------------------
      1          8           0       -3.239127   -1.205653   -2.855562
      2          8           0        3.261870    2.909876    3.121617
      3          8           0        3.717155    1.088634    4.454974
      4          8           0        7.692398   -1.410821   -0.697054
      5          8           0        6.737437   -2.637862   -2.328626
      6          8           0       -2.527413    1.560416    1.743601
      7          7           0       -0.212193   -2.475650    0.692187
      8          7           0       -2.645606   -1.124780   -0.685565
      9          7           0        1.067951    0.050413   -0.821686
     10          7           0       -1.064703    1.492793   -0.085819
     11          6           0       -3.305489   -1.301667    0.545123
     12          6           0       -2.584960   -2.408877    1.452020
     13          6           0       -1.172560   -2.150786    1.666387
     14          6           0       -0.484088   -1.378933    2.647990
     15          6           0        0.857748   -1.338851    2.320989
     16          6           0        1.033237   -1.969023    1.078486
     17          6           0       -4.647811   -1.818136    0.219068
     18          6           0        1.930610   -0.571196    3.116518
     19          6           0       -4.768250   -1.966984   -1.115981
     20          6           0        2.085043   -1.918409    0.117300
     21          6           0        2.123643   -0.899345   -0.772968
     22          6           0       -3.551318   -1.365057   -1.702516
     23          6           0        3.009377   -0.505051   -1.884119
     24          6           0       -1.211723   -0.791976    3.878300
     25          6           0       -5.605952   -2.223222    1.272151
     26          6           0        2.515328    0.648257   -2.423759
     27          6           0        2.079871    0.931330    2.616857
     28          6           0        1.273505    0.989024   -1.709457
     29          6           0        4.292512   -1.239080   -2.189270
     30          6           0       -5.858677   -2.361355   -1.989807
     31          6           0        5.449715   -0.975261   -1.185548
     32          6           0        3.191850    1.442010   -3.520182
     33          6           0        0.433735    2.109906   -1.914992
     34          6           0        3.112623    1.624413    3.527413
     35          6           0       -0.677642    2.420198   -1.101025
     36          6           0       -6.827332   -3.326946   -1.827773
     37          6           0        6.669682   -1.743128   -1.460651
     38          6           0       -1.673929    3.555852   -1.072354
     39          6           0       -2.429971    3.325914    0.082862
     40          6           0       -2.104936    2.050742    0.656602
     41          6           0       -1.556319    4.618968   -1.909304
     42          6           0       -3.606620    4.124368    0.571002
     43          6           0       -2.428880    5.730725   -1.889219
     44          1           0       -3.541284   -0.509283    1.071410
     45          1           0       -2.746420   -3.346332    1.018264
     46          1           0       -3.283162   -2.328315    2.332675
     47          1           0       -0.520597   -2.889376   -0.168362
     48          1           0       -2.096998   -0.258126   -0.654921
     49          1           0        1.765815   -0.493188    4.297227
     50          1           0        2.721795   -1.192360    2.930131
     51          1           0        2.648545   -2.845982   -0.009582
     52          1           0       -1.905244   -1.592800    4.228662
     53          1           0       -0.643669   -0.514020    4.681822
     54          1           0       -1.882139   -0.013701    3.551404
     55          1           0       -5.531546   -1.413278    1.878226
     56          1           0       -5.282299   -3.325540    1.544069
     57          1           0       -6.544987   -2.521916    0.797053
     58          1           0        2.322713    0.974784    1.507469
     59          1           0        1.168924    1.427589    2.644604
     60          1           0        0.228902   -0.007668   -0.267749
     61          1           0        4.778190   -1.042512   -3.139199
     62          1           0        4.011554   -2.258398   -2.321191
     63          1           0       -5.811870   -2.058271   -3.085129
     64          1           0        5.044099   -1.127154   -0.142386
     65          1           0        5.579785    0.235782   -0.993524
     66          1           0        4.189791    1.050490   -3.943832
     67          1           0        3.283116    2.494713   -3.302989
     68          1           0        2.560072    1.430351   -4.422157
     69          1           0        0.431422    2.871015   -2.687440
     70          1           0       -6.862615   -4.025880   -0.817416
     71          1           0       -7.438167   -3.864355   -2.493788
     72          1           0        4.064983    3.169655    3.586496
     73          1           0       -0.666864    4.519429   -2.581113
     74          1           0       -4.185573    4.534249   -0.437147
     75          1           0       -4.119222    3.620031    1.209530
     76          1           0       -3.276634    4.929683    0.908795
     77          1           0        8.316237   -1.978580   -0.776088
     78          1           0       -2.137677    6.389435   -2.539413
     79          1           0       -3.167807    6.013124   -1.210694
 ---------------------------------------------------------------------

 SCF Done:  E(RB3LYP) =  -1947.83236191     A.U. after   19 cycles

 Excitation energies and oscillator strengths:

 Excited State   1:      Singlet-A      0.9875 eV 1255.55 nm  f=0.0080  <S**2>=0.000
     155 ->156         0.70203
 This state for optimization and/or second-order correction.
 Total Energy, E(TD-HF/TD-DFT) =  -1947.79607226
 Copying the excited state density for this state as the 1-particle RhoCI density.

 The electronic state is 1-A.
 Alpha  occ. eigenvalues --  -19.19573 -19.18682 -19.13667 -19.13090 -19.11193
 Alpha  occ. eigenvalues --  -19.07779 -14.38518 -14.36747 -14.31732 -14.29770
 Alpha  occ. eigenvalues --  -10.33961 -10.32240 -10.27669 -10.27000 -10.26132
 Alpha  occ. eigenvalues --  -10.25965 -10.25090 -10.23660 -10.23178 -10.23056
 Alpha  occ. eigenvalues --  -10.22679 -10.21796 -10.21788 -10.21605 -10.21423
 Alpha  occ. eigenvalues --  -10.20904 -10.20854 -10.20742 -10.20112 -10.20087
 Alpha  occ. eigenvalues --  -10.20052 -10.19820 -10.19819 -10.19814 -10.19623
 Alpha  occ. eigenvalues --  -10.19381 -10.19158 -10.18942 -10.18278 -10.17963
 Alpha  occ. eigenvalues --  -10.17135 -10.16559 -10.16048  -1.13961  -1.09638
 Alpha  occ. eigenvalues --   -1.01382  -1.01323  -1.01280  -1.00386  -1.00081
 Alpha  occ. eigenvalues --   -0.95800  -0.93076  -0.91140  -0.84346  -0.82964
 Alpha  occ. eigenvalues --   -0.81787  -0.81305  -0.79719  -0.79514  -0.78722
 Alpha  occ. eigenvalues --   -0.77524  -0.76205  -0.75512  -0.74568  -0.73602
 Alpha  occ. eigenvalues --   -0.71679  -0.71156  -0.70729  -0.70235  -0.68309
 Alpha  occ. eigenvalues --   -0.66785  -0.66500  -0.64551  -0.64013  -0.62406
 Alpha  occ. eigenvalues --   -0.60020  -0.59774  -0.59405  -0.58782  -0.57639
 Alpha  occ. eigenvalues --   -0.56749  -0.55685  -0.55333  -0.53302  -0.53075
 Alpha  occ. eigenvalues --   -0.52836  -0.52118  -0.51953  -0.51088  -0.50112
 Alpha  occ. eigenvalues --   -0.49802  -0.49554  -0.49010  -0.48701  -0.48459
 Alpha  occ. eigenvalues --   -0.48094  -0.47494  -0.47000  -0.46635  -0.46508
 Alpha  occ. eigenvalues --   -0.45707  -0.45328  -0.45150  -0.44717  -0.44476
 Alpha  occ. eigenvalues --   -0.44134  -0.43741  -0.43094  -0.42837  -0.42359
 Alpha  occ. eigenvalues --   -0.42198  -0.41805  -0.41484  -0.41393  -0.41062
 Alpha  occ. eigenvalues --   -0.40972  -0.40496  -0.40136  -0.39944  -0.39792
 Alpha  occ. eigenvalues --   -0.39267  -0.39021  -0.38921  -0.38452  -0.38282
 Alpha  occ. eigenvalues --   -0.37604  -0.37345  -0.37271  -0.36959  -0.36724
 Alpha  occ. eigenvalues --   -0.36199  -0.35627  -0.35449  -0.34908  -0.34829
 Alpha  occ. eigenvalues --   -0.34120  -0.33460  -0.32896  -0.32216  -0.32137
 Alpha  occ. eigenvalues --   -0.31652  -0.30240  -0.29538  -0.28825  -0.28516
 Alpha  occ. eigenvalues --   -0.27899  -0.27523  -0.25107  -0.25044  -0.23641
 Alpha  occ. eigenvalues --   -0.23386  -0.23114  -0.22701  -0.21632  -0.18916
 Alpha virt. eigenvalues --   -0.12928  -0.08411  -0.04107  -0.02662  -0.02544
 Alpha virt. eigenvalues --   -0.00288   0.01091   0.02199   0.02800   0.03643
 Alpha virt. eigenvalues --    0.04316   0.04729   0.04964   0.05570   0.05927

 Mulliken charges:
               1
     1  O   -0.215670
     2  O   -0.169502
     3  O   -0.241650
     4  O   -0.058311
     5  O   -0.261374
     6  O   -0.256912
     7  N   -0.096700
     8  N   -0.174947
     9  N   -0.023043
    10  N   -0.379155
    11  C    0.149388
    12  C    0.201280
    13  C   -0.055187
    14  C   -0.126137
    15  C   -0.109752
    16  C   -0.032472
    17  C   -0.292883
    18  C    0.115042
    19  C   -0.000776
    20  C   -0.120717
    21  C    0.139709
    22  C    0.090916
    23  C   -0.076159
    24  C    0.158375
    25  C    0.162990
    26  C   -0.122394
    27  C    0.002490
    28  C    0.160582
    29  C    0.156210
    30  C   -0.013529
    31  C   -0.087208
    32  C    0.096487
    33  C   -0.066139
    34  C    0.157535
    35  C    0.016029
    36  C   -0.092628
    37  C    0.158464
    38  C    0.117156
    39  C   -0.217658
    40  C    0.185497
    41  C   -0.102092
    42  C    0.269572
    43  C    0.078111
    44  H   -0.033521
    45  H   -0.046214
    46  H   -0.004933
    47  H    0.110259
    48  H    0.149034
    49  H    0.038036
    50  H   -0.021678
    51  H    0.020992
    52  H   -0.005965
    53  H   -0.027458
    54  H    0.024214
    55  H    0.015932
    56  H    0.050355
    57  H    0.010193
    58  H    0.036655
    59  H    0.026960
    60  H    0.167369
    61  H    0.002413
    62  H    0.014678
    63  H    0.031251
    64  H    0.050126
    65  H    0.060809
    66  H    0.036823
    67  H    0.020841
    68  H    0.025606
    69  H   -0.034539
    70  H    0.011150
    71  H    0.017880
    72  H    0.166552
    73  H    0.003468
    74  H    0.038471
    75  H   -0.032628
    76  H   -0.046469
    77  H    0.112375
    78  H   -0.025116
    79  H    0.013235
 Sum of Mulliken charges =  -0.00000

 Dipole moment (field-independent basis, Debye):
    X=              3.5509    Y=              2.9287    Z=             -1.2957  Tot=              4.7818
 Quadrupole moment (field-independent basis, Debye-Ang):
   XX=           -232.6527   YY=           -230.6210   ZZ=           -274.3197
   XY=              7.5246   XZ=            -14.8686   YZ=            -12.5748

 Normal termination of Gaussian 16 at Sun Jul 28 21:39:55 2019.
