 Gaussian 16, Revision A.03,
 Gaussian 16:  ES64L-G16RevA.03 25-Dec-2016

 --------------------------
 # td=(NStates=1) B3LYP/SVP
 --------------------------

 --
 TD
 --
 Symbolic Z-matrix:
 Charge =  0 Multiplicity = 1

                         Standard orientation:
 ---------------------------------------------------------------------
 Center     Atomic      Atomic             Coordinates (Angstroms)
 Number     Number       Type             X           Y           Z
 ---------------------------------------------------------------------
      1          8           0        5.232813   -0.067612   -3.291205
      2          8           0       -3.324080   -2.731291    3.057480
      3          8           0       -3.399063   -0.547250    2.974126
      4          8           0       -1.222483    7.246809    1.398068
      5          8           0       -0.448177    7.145139   -0.685858
      6          8           0       -1.855400   -4.057733    0.097116
      7          7           0        2.337946    0.930780    0.626584
      8          7           0        4.274810   -0.653269   -1.268703
      9          7           0       -1.800194    0.793423   -0.323458
     10          7           0       -2.536800   -1.870858   -0.458818
     11          6           0        4.661554   -1.295214   -0.065822
     12          6           0        4.319602   -0.467516    1.260514
     13          6           0        2.848025   -0.079525    1.444739
     14          6           0        1.857375   -0.622416    2.315321
     15          6           0        0.632381   -0.020650    2.021954
     16          6           0        0.940057    0.932613    0.901925
     17          6           0        6.194865   -1.543887   -0.197968
     18          6           0       -0.661183   -0.198855    2.724481
     19          6           0        6.493096   -0.918876   -1.394141
     20          6           0        0.313781    1.939291    0.176675
     21          6           0       -1.084293    1.889112   -0.205350
     22          6           0        5.273256   -0.461603   -2.087092
     23          6           0       -1.857419    3.006453   -0.854883
     24          6           0        2.162136   -1.846062    3.262291
     25          6           0        7.014923   -2.216482    0.907977
     26          6           0       -3.130223    2.416232   -1.232171
     27          6           0       -1.254933   -1.657372    2.644484
     28          6           0       -3.007148    0.999139   -0.958096
     29          6           0       -1.335990    4.404700   -0.966832
     30          6           0        7.751834   -0.907781   -2.033736
     31          6           0       -1.487270    5.206358    0.388014
     32          6           0       -4.294593    3.111585   -1.869187
     33          6           0       -3.822689   -0.119899   -1.350852
     34          6           0       -2.739722   -1.591738    2.849969
     35          6           0       -3.611616   -1.512090   -1.110346
     36          6           0        8.981714   -0.935025   -1.491012
     37          6           0       -0.980369    6.565920    0.267930
     38          6           0       -4.499675   -2.604477   -1.544707
     39          6           0       -3.894419   -3.703083   -1.177355
     40          6           0       -2.594307   -3.224978   -0.448038
     41          6           0       -5.823480   -2.460687   -2.250557
     42          6           0       -4.053106   -5.250565   -1.282949
     43          6           0       -6.699278   -3.519120   -2.515253
     44          1           0        3.986551   -2.285960   -0.070556
     45          1           0        4.701132    0.629143    0.951215
     46          1           0        4.882495   -0.964682    2.074674
     47          1           0        2.733421    1.490810    0.039717
     48          1           0        3.251610   -0.705604   -1.308465
     49          1           0       -0.647406    0.225183    3.712816
     50          1           0       -1.286565    0.380142    1.900368
     51          1           0        0.683735    2.818865   -0.116116
     52          1           0        3.119039   -1.839797    3.586095
     53          1           0        1.717389   -1.687641    4.197517
     54          1           0        1.748073   -2.717399    2.852397
     55          1           0        6.247587   -2.638282    1.664027
     56          1           0        7.658117   -1.421636    1.553484
     57          1           0        7.537144   -3.091480    0.562281
     58          1           0       -1.007461   -2.011308    1.755950
     59          1           0       -0.770404   -2.229022    3.319623
     60          1           0       -1.741006   -0.075241   -0.107012
     61          1           0       -1.822024    4.949192   -1.860752
     62          1           0       -0.348358    4.429667   -1.324076
     63          1           0        7.655962   -0.832103   -3.130670
     64          1           0       -0.732272    4.629992    0.935763
     65          1           0       -2.552173    5.353080    0.796922
     66          1           0       -4.128753    4.167441   -2.229096
     67          1           0       -5.083565    3.093135   -1.132175
     68          1           0       -4.672304    2.459851   -2.671951
     69          1           0       -4.825479    0.019409   -1.937705
     70          1           0        9.386314   -1.042579   -0.489258
     71          1           0        9.816976   -0.882408   -2.184244
     72          1           0       -4.208461   -2.597260    3.379026
     73          1           0       -6.043285   -1.411141   -2.302670
     74          1           0       -4.931551   -5.563594   -0.503078
     75          1           0       -4.176793   -5.401036   -2.324855
     76          1           0       -3.146775   -5.702798   -0.818673
     77          1           0       -0.598395    8.031972    1.201409
     78          1           0       -7.628021   -3.323684   -2.887571
     79          1           0       -6.251034   -4.439265   -2.290977
 ---------------------------------------------------------------------

 SCF Done:  E(RB3LYP) =  -1947.84636851     A.U. after   23 cycles

 Excitation energies and oscillator strengths:

 Excited State   1:      Singlet-A      2.0074 eV  617.63 nm  f=0.5463  <S**2>=0.000
     155 ->156         0.71490
     155 <-156        -0.16099
 This state for optimization and/or second-order correction.
 Total Energy, E(TD-HF/TD-DFT) =  -1947.77259715
 Copying the excited state density for this state as the 1-particle RhoCI density.

 The electronic state is 1-A.
 Alpha  occ. eigenvalues --  -19.19166 -19.17574 -19.13411 -19.10402 -19.09501
 Alpha  occ. eigenvalues --  -19.08946 -14.39191 -14.36810 -14.36389 -14.28788
 Alpha  occ. eigenvalues --  -10.32609 -10.30882 -10.28584 -10.26209 -10.25500
 Alpha  occ. eigenvalues --  -10.25161 -10.25159 -10.24822 -10.24745 -10.23894
 Alpha  occ. eigenvalues --  -10.23299 -10.23066 -10.22998 -10.22611 -10.22161
 Alpha  occ. eigenvalues --  -10.21811 -10.21720 -10.21705 -10.21640 -10.20831
 Alpha  occ. eigenvalues --  -10.20445 -10.20377 -10.20322 -10.20153 -10.19910
 Alpha  occ. eigenvalues --  -10.19702 -10.19409 -10.19366 -10.19259 -10.18828
 Alpha  occ. eigenvalues --  -10.18610 -10.18526 -10.18088  -1.10770  -1.10509
 Alpha  occ. eigenvalues --   -1.01955  -1.00633  -0.99916  -0.99902  -0.99279
 Alpha  occ. eigenvalues --   -0.97776  -0.94792  -0.93233  -0.83132  -0.82985
 Alpha  occ. eigenvalues --   -0.82672  -0.81829  -0.80004  -0.79637  -0.78748
 Alpha  occ. eigenvalues --   -0.77909  -0.76565  -0.75030  -0.73897  -0.73391
 Alpha  occ. eigenvalues --   -0.72692  -0.72097  -0.70359  -0.69910  -0.69691
 Alpha  occ. eigenvalues --   -0.68407  -0.66878  -0.64112  -0.63231  -0.62554
 Alpha  occ. eigenvalues --   -0.61015  -0.60331  -0.59955  -0.58464  -0.57975
 Alpha  occ. eigenvalues --   -0.56867  -0.56415  -0.55416  -0.54338  -0.53293
 Alpha  occ. eigenvalues --   -0.52473  -0.51458  -0.51411  -0.50864  -0.50568
 Alpha  occ. eigenvalues --   -0.50144  -0.49397  -0.48884  -0.48721  -0.48179
 Alpha  occ. eigenvalues --   -0.48009  -0.47120  -0.46829  -0.46534  -0.45910
 Alpha  occ. eigenvalues --   -0.45749  -0.45263  -0.44873  -0.44619  -0.43983
 Alpha  occ. eigenvalues --   -0.43744  -0.43485  -0.43355  -0.43188  -0.42702
 Alpha  occ. eigenvalues --   -0.42576  -0.42013  -0.41792  -0.41670  -0.41403
 Alpha  occ. eigenvalues --   -0.41171  -0.40912  -0.40778  -0.40568  -0.40251
 Alpha  occ. eigenvalues --   -0.39892  -0.39248  -0.38886  -0.38691  -0.38445
 Alpha  occ. eigenvalues --   -0.38377  -0.38305  -0.37742  -0.37701  -0.37241
 Alpha  occ. eigenvalues --   -0.36786  -0.36323  -0.35721  -0.34754  -0.34224
 Alpha  occ. eigenvalues --   -0.33800  -0.33487  -0.32718  -0.32531  -0.31664
 Alpha  occ. eigenvalues --   -0.30682  -0.30420  -0.29010  -0.28589  -0.28154
 Alpha  occ. eigenvalues --   -0.27155  -0.26343  -0.26153  -0.25644  -0.24846
 Alpha  occ. eigenvalues --   -0.24405  -0.23854  -0.23279  -0.22513  -0.18327
 Alpha virt. eigenvalues --   -0.11108  -0.06481  -0.05746  -0.01627  -0.00978
 Alpha virt. eigenvalues --   -0.00296   0.01020   0.01346   0.02229   0.03221
 Alpha virt. eigenvalues --    0.03476   0.04207   0.04477   0.04801   0.05465

 Mulliken charges:
               1
     1  O   -0.279558
     2  O   -0.115232
     3  O   -0.279155
     4  O   -0.195617
     5  O   -0.259656
     6  O   -0.244080
     7  N   -0.053332
     8  N   -0.094851
     9  N    0.096998
    10  N   -0.217417
    11  C   -0.026000
    12  C    0.129613
    13  C   -0.035674
    14  C   -0.167286
    15  C   -0.091167
    16  C    0.134750
    17  C   -0.120085
    18  C    0.036691
    19  C   -0.058576
    20  C   -0.042956
    21  C    0.009995
    22  C    0.149851
    23  C   -0.106137
    24  C    0.226516
    25  C    0.046702
    26  C   -0.126879
    27  C    0.153268
    28  C    0.064655
    29  C    0.050928
    30  C   -0.013725
    31  C    0.045461
    32  C    0.117526
    33  C   -0.108869
    34  C    0.116686
    35  C    0.019712
    36  C   -0.036815
    37  C    0.115016
    38  C    0.014708
    39  C   -0.257100
    40  C    0.129705
    41  C   -0.015211
    42  C    0.090018
    43  C    0.074555
    44  H    0.040731
    45  H    0.012916
    46  H    0.014465
    47  H    0.060399
    48  H    0.138185
    49  H    0.026708
    50  H    0.036245
    51  H   -0.070722
    52  H   -0.034004
    53  H   -0.015723
    54  H    0.039783
    55  H    0.023500
    56  H    0.071153
    57  H    0.044253
    58  H   -0.006341
    59  H   -0.012189
    60  H    0.028152
    61  H    0.022923
    62  H    0.007010
    63  H    0.023339
    64  H    0.043671
    65  H    0.076367
    66  H    0.031223
    67  H    0.021811
    68  H    0.025221
    69  H   -0.006627
    70  H    0.010267
    71  H    0.019788
    72  H    0.170490
    73  H   -0.036270
    74  H    0.046970
    75  H    0.037169
    76  H    0.039604
    77  H    0.196315
    78  H    0.000891
    79  H   -0.005652
 Sum of Mulliken charges =  -0.00000

 Dipole moment (field-independent basis, Debye):
    X=              1.6173    Y=              1.3345    Z=              5.2173  Tot=              5.6229
 Quadrupole moment (field-independent basis, Debye-Ang):
   XX=           -227.7785   YY=           -254.6154   ZZ=           -263.0712
   XY=            -11.6553   XZ=             34.3945   YZ=              0.0569

 Normal termination of Gaussian 16 at Mon Sep 23 14:17:29 2019.
