 Gaussian 16, Revision A.03,
 Gaussian 16:  ES64L-G16RevA.03 25-Dec-2016

 --------------------------
 # td=(NStates=1) B3LYP/SVP
 --------------------------

 --
 TD
 --
 Symbolic Z-matrix:
 Charge =  0 Multiplicity = 1

                         Standard orientation:
 ---------------------------------------------------------------------
 Center     Atomic      Atomic             Coordinates (Angstroms)
 Number     Number       Type             X           Y           Z
 ---------------------------------------------------------------------
      1          8           0       -3.283127   -1.670497   -2.899634
      2          8           0        3.184723    3.157370    2.807799
      3          8           0        3.822866    1.618981    4.151050
      4          8           0        7.744840   -1.673616   -0.621797
      5          8           0        6.594706   -3.003071   -2.063608
      6          8           0       -2.541326    1.765737    1.504177
      7          7           0       -0.319748   -2.319011    1.110500
      8          7           0       -2.679332   -1.238925   -0.620595
      9          7           0        1.110877    0.015032   -0.744485
     10          7           0       -1.135551    1.420585   -0.348633
     11          6           0       -3.423672   -1.214397    0.550819
     12          6           0       -2.734039   -1.969262    1.737311
     13          6           0       -1.178796   -1.898544    1.992893
     14          6           0       -0.469730   -1.056487    2.907332
     15          6           0        0.874462   -1.082532    2.535308
     16          6           0        0.906989   -1.891991    1.376812
     17          6           0       -4.692025   -1.818745    0.273793
     18          6           0        1.870480   -0.278726    3.135640
     19          6           0       -4.769827   -2.146433   -0.983651
     20          6           0        1.962144   -1.928794    0.352164
     21          6           0        2.027336   -1.018866   -0.660285
     22          6           0       -3.460547   -1.651772   -1.728645
     23          6           0        2.996392   -0.692634   -1.629691
     24          6           0       -1.223180   -0.403902    4.024441
     25          6           0       -5.767622   -1.994222    1.377757
     26          6           0        2.549122    0.397949   -2.449012
     27          6           0        1.918712    1.099523    2.626860
     28          6           0        1.283321    0.864342   -1.771882
     29          6           0        4.324210   -1.583540   -1.896026
     30          6           0       -5.741114   -2.796793   -1.913374
     31          6           0        5.453706   -1.164422   -1.245613
     32          6           0        3.131860    1.028859   -3.567727
     33          6           0        0.530878    1.979864   -2.104744
     34          6           0        3.120493    1.947245    3.291023
     35          6           0       -0.636887    2.301978   -1.322556
     36          6           0       -6.934681   -3.430198   -1.500417
     37          6           0        6.655071   -2.037846   -1.330468
     38          6           0       -1.400703    3.468959   -1.292415
     39          6           0       -2.269511    3.383910   -0.291591
     40          6           0       -2.076012    2.066105    0.420243
     41          6           0       -1.301873    4.633356   -2.232833
     42          6           0       -3.334031    4.327622    0.139341
     43          6           0       -2.145786    5.652726   -2.465737
     44          1           0       -3.655563   -0.097931    0.928150
     45          1           0       -2.850242   -2.958344    1.442814
     46          1           0       -3.126700   -1.983883    2.734789
     47          1           0       -0.734293   -2.704099    0.146791
     48          1           0       -1.958606   -0.484471   -0.722713
     49          1           0        1.656384   -0.101535    4.270036
     50          1           0        2.831217   -0.608924    3.046930
     51          1           0        2.701330   -2.745984    0.304517
     52          1           0       -1.950489   -1.104172    4.638641
     53          1           0       -0.518958    0.143060    4.819425
     54          1           0       -1.850599    0.394831    3.671718
     55          1           0       -6.034428   -1.149393    1.885048
     56          1           0       -5.813748   -3.049241    2.022723
     57          1           0       -6.660831   -2.272008    0.730838
     58          1           0        1.944555    1.091735    1.597293
     59          1           0        0.770591    1.682160    2.756656
     60          1           0        0.178381    0.411739   -0.075789
     61          1           0        4.535053   -1.927079   -2.948533
     62          1           0        4.021292   -2.544333   -1.680061
     63          1           0       -5.274690   -2.694487   -3.078869
     64          1           0        5.258894   -1.065054   -0.039099
     65          1           0        5.802120   -0.199822   -1.560341
     66          1           0        3.950622    0.495708   -4.013792
     67          1           0        3.537209    2.159598   -3.248290
     68          1           0        2.351287    1.101970   -4.382940
     69          1           0        0.944199    2.482721   -3.056840
     70          1           0       -7.011025   -3.484586   -0.311127
     71          1           0       -7.847892   -3.614666   -2.126139
     72          1           0        3.837509    3.527997    3.329902
     73          1           0       -0.329593    4.652940   -2.859564
     74          1           0       -4.034224    4.443093   -0.694661
     75          1           0       -4.003134    3.850004    1.023622
     76          1           0       -3.123593    5.445935    0.565274
     77          1           0        8.306961   -2.387321   -0.666204
     78          1           0       -1.972462    6.318884   -3.294309
     79          1           0       -3.162535    5.717984   -2.087718
 ---------------------------------------------------------------------

 SCF Done:  E(RB3LYP) =  -1947.80143956     A.U. after   18 cycles

 Excitation energies and oscillator strengths:

 Excited State   1:      Singlet-A      0.9254 eV 1339.73 nm  f=0.0002  <S**2>=0.000
     155 ->156         0.70320
 This state for optimization and/or second-order correction.
 Total Energy, E(TD-HF/TD-DFT) =  -1947.76743018
 Copying the excited state density for this state as the 1-particle RhoCI density.

 The electronic state is 1-A.
 Alpha  occ. eigenvalues --  -19.19718 -19.17624 -19.13671 -19.12953 -19.12585
 Alpha  occ. eigenvalues --  -19.11040 -14.37592 -14.36868 -14.33983 -14.31825
 Alpha  occ. eigenvalues --  -10.33152 -10.31387 -10.28695 -10.28192 -10.26607
 Alpha  occ. eigenvalues --  -10.26380 -10.25160 -10.23134 -10.23015 -10.22900
 Alpha  occ. eigenvalues --  -10.22455 -10.22400 -10.22366 -10.22099 -10.21798
 Alpha  occ. eigenvalues --  -10.21334 -10.21159 -10.20975 -10.20961 -10.20600
 Alpha  occ. eigenvalues --  -10.20472 -10.20203 -10.20171 -10.20129 -10.20109
 Alpha  occ. eigenvalues --  -10.19680 -10.19358 -10.18731 -10.18343 -10.18155
 Alpha  occ. eigenvalues --  -10.17397 -10.16804 -10.16240  -1.13471  -1.12068
 Alpha  occ. eigenvalues --   -1.03908  -1.03847  -1.02812  -1.02655  -0.99572
 Alpha  occ. eigenvalues --   -0.98833  -0.94668  -0.94480  -0.84149  -0.83000
 Alpha  occ. eigenvalues --   -0.81742  -0.81616  -0.80583  -0.80252  -0.78274
 Alpha  occ. eigenvalues --   -0.76418  -0.75523  -0.75476  -0.74050  -0.72547
 Alpha  occ. eigenvalues --   -0.71657  -0.69944  -0.69362  -0.69281  -0.67605
 Alpha  occ. eigenvalues --   -0.66536  -0.65924  -0.63807  -0.61591  -0.61206
 Alpha  occ. eigenvalues --   -0.60250  -0.60060  -0.59043  -0.57631  -0.56412
 Alpha  occ. eigenvalues --   -0.55872  -0.55558  -0.55127  -0.53864  -0.53637
 Alpha  occ. eigenvalues --   -0.52467  -0.52122  -0.51387  -0.50581  -0.50211
 Alpha  occ. eigenvalues --   -0.49714  -0.49495  -0.48830  -0.48631  -0.48230
 Alpha  occ. eigenvalues --   -0.47495  -0.47232  -0.46537  -0.46400  -0.45877
 Alpha  occ. eigenvalues --   -0.45647  -0.45273  -0.45105  -0.44524  -0.44323
 Alpha  occ. eigenvalues --   -0.44233  -0.43667  -0.42904  -0.42802  -0.42670
 Alpha  occ. eigenvalues --   -0.42635  -0.42311  -0.42153  -0.41556  -0.41221
 Alpha  occ. eigenvalues --   -0.40908  -0.40833  -0.40701  -0.40494  -0.40189
 Alpha  occ. eigenvalues --   -0.39007  -0.38827  -0.38480  -0.37998  -0.37991
 Alpha  occ. eigenvalues --   -0.37739  -0.37390  -0.37145  -0.36796  -0.36429
 Alpha  occ. eigenvalues --   -0.36242  -0.36213  -0.34932  -0.34671  -0.34043
 Alpha  occ. eigenvalues --   -0.33418  -0.33187  -0.32915  -0.32334  -0.31982
 Alpha  occ. eigenvalues --   -0.31448  -0.30242  -0.29743  -0.29562  -0.29026
 Alpha  occ. eigenvalues --   -0.28621  -0.26426  -0.26144  -0.25916  -0.25263
 Alpha  occ. eigenvalues --   -0.24456  -0.23063  -0.22882  -0.22458  -0.19041
 Alpha virt. eigenvalues --   -0.13050  -0.08064  -0.04380  -0.02204  -0.00957
 Alpha virt. eigenvalues --    0.01167   0.01739   0.02240   0.03035   0.03515
 Alpha virt. eigenvalues --    0.04234   0.04667   0.05084   0.05271   0.05627

 Mulliken charges:
               1
     1  O   -0.179573
     2  O   -0.096916
     3  O   -0.181487
     4  O   -0.131607
     5  O   -0.232409
     6  O   -0.197240
     7  N    0.000314
     8  N   -0.228877
     9  N   -0.185672
    10  N   -0.391331
    11  C    0.060723
    12  C    0.271765
    13  C   -0.201040
    14  C   -0.108084
    15  C   -0.057773
    16  C   -0.025595
    17  C   -0.184913
    18  C    0.173141
    19  C   -0.103498
    20  C   -0.119595
    21  C    0.150560
    22  C    0.157645
    23  C   -0.080115
    24  C    0.028322
    25  C    0.086580
    26  C   -0.106391
    27  C   -0.093738
    28  C    0.064697
    29  C    0.123431
    30  C   -0.032347
    31  C    0.022428
    32  C    0.036221
    33  C   -0.109689
    34  C    0.103606
    35  C    0.160110
    36  C   -0.089562
    37  C    0.110895
    38  C    0.083699
    39  C   -0.185231
    40  C    0.202521
    41  C   -0.027576
    42  C   -0.020228
    43  C   -0.018039
    44  H    0.063397
    45  H   -0.059801
    46  H   -0.016761
    47  H    0.163614
    48  H    0.150092
    49  H    0.015677
    50  H   -0.042490
    51  H    0.011296
    52  H    0.026654
    53  H    0.004724
    54  H    0.023998
    55  H    0.006828
    56  H    0.052006
    57  H   -0.000049
    58  H   -0.014038
    59  H    0.059182
    60  H    0.269641
    61  H    0.018136
    62  H   -0.031628
    63  H    0.064852
    64  H    0.052391
    65  H    0.023423
    66  H    0.017210
    67  H    0.062159
    68  H    0.047959
    69  H    0.017538
    70  H    0.041714
    71  H    0.048409
    72  H    0.130664
    73  H    0.010399
    74  H    0.040533
    75  H    0.044301
    76  H    0.063419
    77  H    0.151439
    78  H    0.021639
    79  H    0.013340
 Sum of Mulliken charges =  -0.00000

 Dipole moment (field-independent basis, Debye):
    X=              2.9383    Y=              3.2660    Z=             -1.9484  Tot=              4.8059
 Quadrupole moment (field-independent basis, Debye-Ang):
   XX=           -233.2609   YY=           -243.2242   ZZ=           -268.6302
   XY=             -2.4974   XZ=            -17.4521   YZ=            -15.5419

 Normal termination of Gaussian 16 at Tue Jul 30 06:51:06 2019.
