 Gaussian 16, Revision A.03,
 Gaussian 16:  ES64L-G16RevA.03 25-Dec-2016

 --------------------------
 # td=(NStates=1) B3LYP/SVP
 --------------------------

 --
 TD
 --
 Symbolic Z-matrix:
 Charge =  0 Multiplicity = 1

                         Standard orientation:
 ---------------------------------------------------------------------
 Center     Atomic      Atomic             Coordinates (Angstroms)
 Number     Number       Type             X           Y           Z
 ---------------------------------------------------------------------
      1          8           0       -3.166473   -1.654245   -2.711641
      2          8           0        3.302685    3.369880    2.791098
      3          8           0        4.127802    1.602124    4.031168
      4          8           0        7.755757   -1.491542   -1.083784
      5          8           0        6.454516   -3.473140   -1.567614
      6          8           0       -2.611355    1.837088    1.321734
      7          7           0       -0.224247   -2.137367    1.138708
      8          7           0       -2.621379   -1.210929   -0.472646
      9          7           0        1.071803    0.008732   -0.799593
     10          7           0       -1.034177    1.515164   -0.279951
     11          6           0       -3.337964   -1.336048    0.727268
     12          6           0       -2.545528   -2.226859    1.839853
     13          6           0       -1.221964   -1.831275    2.024257
     14          6           0       -0.591606   -0.918896    3.035887
     15          6           0        0.752773   -0.819801    2.621532
     16          6           0        0.972000   -1.624402    1.526966
     17          6           0       -4.750272   -1.859648    0.456115
     18          6           0        1.818577   -0.039605    3.340862
     19          6           0       -4.704644   -2.147897   -0.859105
     20          6           0        2.057004   -1.737317    0.641547
     21          6           0        2.027856   -0.884626   -0.502010
     22          6           0       -3.465568   -1.709826   -1.503371
     23          6           0        2.882130   -0.793261   -1.703872
     24          6           0       -1.394928   -0.093862    4.030198
     25          6           0       -5.785228   -1.994511    1.449434
     26          6           0        2.507862    0.206243   -2.498377
     27          6           0        2.010579    1.406912    2.765190
     28          6           0        1.227623    0.739813   -1.978068
     29          6           0        4.202936   -1.608600   -1.887776
     30          6           0       -5.767679   -2.812280   -1.859757
     31          6           0        5.395929   -1.135645   -1.170976
     32          6           0        3.067690    0.713083   -3.821755
     33          6           0        0.428340    1.828282   -2.240408
     34          6           0        3.232232    2.109893    3.296473
     35          6           0       -0.609283    2.178527   -1.485431
     36          6           0       -6.791326   -3.660047   -1.512110
     37          6           0        6.551355   -2.235988   -1.295992
     38          6           0       -1.540864    3.371161   -1.537010
     39          6           0       -2.396988    3.441389   -0.510483
     40          6           0       -1.975895    2.260535    0.313403
     41          6           0       -1.404028    4.271478   -2.595096
     42          6           0       -3.456744    4.353910    0.035772
     43          6           0       -2.178666    5.494494   -2.801770
     44          1           0       -3.298526   -0.394850    1.418314
     45          1           0       -2.774304   -3.404372    1.358181
     46          1           0       -3.170809   -2.219538    2.722026
     47          1           0       -0.399290   -2.638136    0.317299
     48          1           0       -1.864661   -0.503530   -0.692024
     49          1           0        1.811490    0.128639    4.512173
     50          1           0        2.903212   -0.441757    3.071205
     51          1           0        2.688715   -2.539680    0.491149
     52          1           0       -1.872061   -0.859322    4.617124
     53          1           0       -0.732749    0.470010    4.648576
     54          1           0       -2.109526    0.642044    3.463446
     55          1           0       -5.814364   -1.120731    2.326624
     56          1           0       -5.560146   -2.922397    2.046987
     57          1           0       -6.839915   -2.134040    0.885416
     58          1           0        1.750899    1.470248    1.594532
     59          1           0        0.956059    2.029060    3.154920
     60          1           0        0.361851    0.238183   -0.096183
     61          1           0        4.275197   -1.678762   -3.166120
     62          1           0        4.041274   -2.671166   -1.539960
     63          1           0       -5.555940   -2.468103   -2.708536
     64          1           0        5.247646   -0.872402   -0.077711
     65          1           0        5.822186   -0.301823   -1.659555
     66          1           0        3.608408   -0.103777   -4.403455
     67          1           0        3.898312    1.461973   -3.496066
     68          1           0        2.283329    1.155760   -4.468104
     69          1           0        0.699461    2.408375   -3.146357
     70          1           0       -6.780807   -3.730202   -0.315225
     71          1           0       -7.632017   -4.037805   -2.168570
     72          1           0        4.044406    3.742181    3.208071
     73          1           0       -0.780491    4.174050   -3.222044
     74          1           0       -4.325004    4.266252   -0.690811
     75          1           0       -3.819157    3.788398    1.049558
     76          1           0       -3.199094    5.498589    0.319962
     77          1           0        8.357382   -2.372858   -0.992821
     78          1           0       -1.887259    6.054664   -3.641763
     79          1           0       -2.875434    5.704336   -2.121921
 ---------------------------------------------------------------------

 SCF Done:  E(RB3LYP) =  -1947.75293087     A.U. after   27 cycles

 Excitation energies and oscillator strengths:

 Excited State   1:      Singlet-A      0.6900 eV 1796.84 nm  f=0.0001  <S**2>=0.000
     155 ->156         0.70440
 This state for optimization and/or second-order correction.
 Total Energy, E(TD-HF/TD-DFT) =  -1947.72757333
 Copying the excited state density for this state as the 1-particle RhoCI density.

 The electronic state is 1-A.
 Alpha  occ. eigenvalues --  -19.20888 -19.18666 -19.16454 -19.13162 -19.10957
 Alpha  occ. eigenvalues --  -19.08320 -14.38239 -14.37066 -14.33028 -14.30836
 Alpha  occ. eigenvalues --  -10.35287 -10.32966 -10.28087 -10.26936 -10.26766
 Alpha  occ. eigenvalues --  -10.26209 -10.25752 -10.23632 -10.23318 -10.23229
 Alpha  occ. eigenvalues --  -10.23099 -10.23031 -10.22854 -10.22354 -10.22337
 Alpha  occ. eigenvalues --  -10.22083 -10.21984 -10.21653 -10.20943 -10.20792
 Alpha  occ. eigenvalues --  -10.20721 -10.20556 -10.20535 -10.20534 -10.20377
 Alpha  occ. eigenvalues --  -10.20045 -10.19967 -10.19266 -10.19220 -10.18728
 Alpha  occ. eigenvalues --  -10.17798 -10.17718 -10.17697  -1.09786  -1.07728
 Alpha  occ. eigenvalues --   -1.01250  -1.00477  -1.00459  -0.99335  -0.99133
 Alpha  occ. eigenvalues --   -0.97961  -0.92240  -0.91748  -0.84200  -0.83956
 Alpha  occ. eigenvalues --   -0.81636  -0.80662  -0.80374  -0.79933  -0.79411
 Alpha  occ. eigenvalues --   -0.76721  -0.75662  -0.75477  -0.74502  -0.73225
 Alpha  occ. eigenvalues --   -0.71085  -0.70284  -0.70054  -0.69017  -0.67095
 Alpha  occ. eigenvalues --   -0.67038  -0.65955  -0.63705  -0.62366  -0.60707
 Alpha  occ. eigenvalues --   -0.59350  -0.59046  -0.58820  -0.57868  -0.56909
 Alpha  occ. eigenvalues --   -0.56271  -0.56021  -0.55219  -0.53907  -0.53443
 Alpha  occ. eigenvalues --   -0.52225  -0.51453  -0.51201  -0.50600  -0.49652
 Alpha  occ. eigenvalues --   -0.49391  -0.48989  -0.48775  -0.48424  -0.48188
 Alpha  occ. eigenvalues --   -0.47541  -0.47237  -0.46920  -0.46421  -0.46060
 Alpha  occ. eigenvalues --   -0.45597  -0.44696  -0.44491  -0.44391  -0.43955
 Alpha  occ. eigenvalues --   -0.43767  -0.43358  -0.43214  -0.42658  -0.42486
 Alpha  occ. eigenvalues --   -0.41919  -0.41685  -0.41405  -0.41182  -0.41119
 Alpha  occ. eigenvalues --   -0.40793  -0.40371  -0.40223  -0.40117  -0.40098
 Alpha  occ. eigenvalues --   -0.39691  -0.39376  -0.38740  -0.38397  -0.38297
 Alpha  occ. eigenvalues --   -0.38177  -0.37741  -0.37082  -0.36983  -0.36160
 Alpha  occ. eigenvalues --   -0.36123  -0.35707  -0.35227  -0.35026  -0.34201
 Alpha  occ. eigenvalues --   -0.33987  -0.32788  -0.32528  -0.32114  -0.31362
 Alpha  occ. eigenvalues --   -0.30748  -0.30665  -0.28846  -0.28763  -0.28428
 Alpha  occ. eigenvalues --   -0.27833  -0.27479  -0.25408  -0.24122  -0.23957
 Alpha  occ. eigenvalues --   -0.23630  -0.23400  -0.23236  -0.22404  -0.18828
 Alpha virt. eigenvalues --   -0.13726  -0.08064  -0.04341  -0.03994  -0.02693
 Alpha virt. eigenvalues --   -0.02205   0.00597   0.01310   0.01406   0.02122
 Alpha virt. eigenvalues --    0.03147   0.03718   0.04060   0.04897   0.05235

 Mulliken charges:
               1
     1  O   -0.265209
     2  O   -0.145820
     3  O   -0.273469
     4  O   -0.259421
     5  O   -0.253606
     6  O   -0.258816
     7  N   -0.018170
     8  N   -0.215672
     9  N   -0.090706
    10  N   -0.316733
    11  C    0.008653
    12  C    0.048267
    13  C   -0.031743
    14  C   -0.137366
    15  C   -0.050372
    16  C    0.026118
    17  C   -0.075904
    18  C    0.036497
    19  C   -0.123257
    20  C    0.009808
    21  C   -0.005960
    22  C    0.159703
    23  C   -0.066968
    24  C    0.100912
    25  C   -0.019194
    26  C   -0.114844
    27  C   -0.158203
    28  C    0.122678
    29  C   -0.009097
    30  C    0.114707
    31  C    0.048014
    32  C    0.056122
    33  C   -0.095291
    34  C    0.194970
    35  C    0.165519
    36  C   -0.049606
    37  C    0.196313
    38  C    0.137140
    39  C   -0.168007
    40  C    0.147607
    41  C    0.002103
    42  C   -0.008086
    43  C    0.091279
    44  H    0.056042
    45  H   -0.001760
    46  H   -0.016717
    47  H    0.091629
    48  H    0.161746
    49  H    0.042787
    50  H    0.019299
    51  H   -0.027427
    52  H    0.007891
    53  H   -0.013946
    54  H    0.078606
    55  H    0.057866
    56  H    0.047763
    57  H    0.065294
    58  H    0.063198
    59  H    0.066521
    60  H    0.182213
    61  H    0.046853
    62  H    0.038269
    63  H   -0.085350
    64  H    0.071589
    65  H    0.020607
    66  H    0.039334
    67  H    0.051991
    68  H    0.047781
    69  H   -0.002060
    70  H    0.031209
    71  H    0.049496
    72  H    0.153487
    73  H   -0.181881
    74  H    0.047193
    75  H    0.063297
    76  H    0.068085
    77  H    0.217683
    78  H    0.018937
    79  H   -0.032415
 Sum of Mulliken charges =  -0.00000

 Dipole moment (field-independent basis, Debye):
    X=              3.4675    Y=              3.2763    Z=             -1.8024  Tot=              5.0996
 Quadrupole moment (field-independent basis, Debye-Ang):
   XX=           -237.5704   YY=           -246.5086   ZZ=           -261.0444
   XY=              3.6619   XZ=            -24.4068   YZ=            -14.2056

 Normal termination of Gaussian 16 at Thu Jul 25 20:28:35 2019.
