 Gaussian 16, Revision A.03,
 Gaussian 16:  ES64L-G16RevA.03 25-Dec-2016

 --------------------------
 # td=(NStates=1) B3LYP/SVP
 --------------------------

 --
 TD
 --
 Symbolic Z-matrix:
 Charge =  0 Multiplicity = 1

                         Standard orientation:
 ---------------------------------------------------------------------
 Center     Atomic      Atomic             Coordinates (Angstroms)
 Number     Number       Type             X           Y           Z
 ---------------------------------------------------------------------
      1          8           0       -3.390866   -1.951357   -2.646148
      2          8           0        3.023128    3.703056    2.639360
      3          8           0        3.714661    2.263312    4.176319
      4          8           0        7.755085   -1.635883   -0.496369
      5          8           0        6.641896   -3.427116   -1.512409
      6          8           0       -2.554566    1.913596    1.087244
      7          7           0       -0.210514   -2.152661    1.406091
      8          7           0       -2.703126   -1.312056   -0.414830
      9          7           0        1.194100   -0.043510   -0.681949
     10          7           0       -0.962748    1.329566   -0.538635
     11          6           0       -3.331564   -1.100291    0.733494
     12          6           0       -2.590483   -1.856820    1.989827
     13          6           0       -1.196759   -1.554127    2.208751
     14          6           0       -0.563847   -0.571262    2.991163
     15          6           0        0.776859   -0.574297    2.629675
     16          6           0        0.962394   -1.532450    1.522011
     17          6           0       -4.770360   -1.782453    0.574141
     18          6           0        2.003195    0.273455    3.144019
     19          6           0       -4.818286   -2.220621   -0.646500
     20          6           0        2.064658   -1.745030    0.627911
     21          6           0        2.085322   -1.054736   -0.542939
     22          6           0       -3.560536   -1.911836   -1.408902
     23          6           0        2.965992   -1.030070   -1.619712
     24          6           0       -1.356917    0.389642    3.931867
     25          6           0       -5.735752   -1.769732    1.681970
     26          6           0        2.486718   -0.087316   -2.487251
     27          6           0        1.900849    1.661520    2.603746
     28          6           0        1.360461    0.582758   -1.943859
     29          6           0        4.175834   -1.954540   -1.693644
     30          6           0       -5.911283   -2.965649   -1.404428
     31          6           0        5.410392   -1.356668   -0.998688
     32          6           0        3.240466    0.275284   -3.775806
     33          6           0        0.528527    1.539266   -2.327946
     34          6           0        2.933484    2.477560    3.262475
     35          6           0       -0.515774    2.046015   -1.666372
     36          6           0       -6.947619   -3.559909   -0.908055
     37          6           0        6.637760   -2.218784   -1.081515
     38          6           0       -1.435672    3.187770   -1.940142
     39          6           0       -2.276185    3.274489   -0.832011
     40          6           0       -2.034697    2.142864    0.063392
     41          6           0       -1.319859    4.022779   -3.096666
     42          6           0       -3.424239    4.266248   -0.492055
     43          6           0       -1.990820    5.087295   -3.382931
     44          1           0       -3.461771   -0.078103    0.915829
     45          1           0       -2.741774   -3.109543    1.950441
     46          1           0       -3.286987   -1.825263    2.880388
     47          1           0       -0.146168   -2.961554    0.720418
     48          1           0       -1.674742   -0.790123   -0.552879
     49          1           0        2.028074    0.351554    4.235185
     50          1           0        2.952822   -0.236163    2.618077
     51          1           0        2.741716   -2.468026    0.941851
     52          1           0       -2.181566   -0.276113    4.312718
     53          1           0       -0.646961    0.747475    4.694237
     54          1           0       -1.963792    1.185159    3.401501
     55          1           0       -5.545801   -0.933824    2.345249
     56          1           0       -5.982504   -2.825238    2.157757
     57          1           0       -6.771884   -1.627297    1.376590
     58          1           0        2.051004    1.554480    1.461740
     59          1           0        0.932118    2.235762    2.787017
     60          1           0        0.428985    0.303769   -0.076855
     61          1           0        4.592719   -2.114389   -2.656823
     62          1           0        4.010170   -3.123278   -1.361940
     63          1           0       -5.923828   -2.632714   -2.581842
     64          1           0        5.214831   -1.137286    0.096010
     65          1           0        5.435139   -0.247637   -1.564603
     66          1           0        3.899148   -0.316254   -4.051203
     67          1           0        3.641147    1.427220   -3.735315
     68          1           0        2.452630    0.187150   -4.674352
     69          1           0        0.770680    1.997401   -3.225481
     70          1           0       -6.952407   -3.711827    0.052043
     71          1           0       -7.615818   -4.002859   -1.597302
     72          1           0        3.444799    4.227300    3.292353
     73          1           0       -0.368096    3.758402   -3.679039
     74          1           0       -4.113137    4.220100   -1.320805
     75          1           0       -3.658565    4.116958    0.477310
     76          1           0       -2.983693    5.365307   -0.530187
     77          1           0        8.548334   -2.395909   -0.700294
     78          1           0       -1.548794    5.732539   -4.327438
     79          1           0       -2.828274    5.446457   -2.749175
 ---------------------------------------------------------------------

 SCF Done:  E(RB3LYP) =  -1947.78573213     A.U. after   17 cycles

 Excitation energies and oscillator strengths:

 Excited State   1:      Singlet-A      0.7396 eV 1676.47 nm  f=0.0010  <S**2>=0.000
     155 ->156         0.70406
 This state for optimization and/or second-order correction.
 Total Energy, E(TD-HF/TD-DFT) =  -1947.75855395
 Copying the excited state density for this state as the 1-particle RhoCI density.

 The electronic state is 1-A.
 Alpha  occ. eigenvalues --  -19.20796 -19.16180 -19.14668 -19.13437 -19.12610
 Alpha  occ. eigenvalues --  -19.08423 -14.37392 -14.36394 -14.32823 -14.30704
 Alpha  occ. eigenvalues --  -10.34624 -10.31319 -10.28349 -10.27093 -10.26011
 Alpha  occ. eigenvalues --  -10.24952 -10.24771 -10.24428 -10.23150 -10.22880
 Alpha  occ. eigenvalues --  -10.22627 -10.22233 -10.22063 -10.21720 -10.21633
 Alpha  occ. eigenvalues --  -10.21514 -10.21250 -10.21074 -10.20491 -10.20481
 Alpha  occ. eigenvalues --  -10.20466 -10.20125 -10.20052 -10.19829 -10.19778
 Alpha  occ. eigenvalues --  -10.19741 -10.19582 -10.18937 -10.18424 -10.18031
 Alpha  occ. eigenvalues --  -10.17466 -10.17260 -10.16047  -1.08935  -1.07659
 Alpha  occ. eigenvalues --   -1.06527  -1.00248  -0.99251  -0.98839  -0.98662
 Alpha  occ. eigenvalues --   -0.96906  -0.92443  -0.92009  -0.84274  -0.83810
 Alpha  occ. eigenvalues --   -0.81813  -0.80471  -0.80405  -0.79680  -0.78923
 Alpha  occ. eigenvalues --   -0.77097  -0.76225  -0.75677  -0.74642  -0.73332
 Alpha  occ. eigenvalues --   -0.71425  -0.70775  -0.69822  -0.68747  -0.67786
 Alpha  occ. eigenvalues --   -0.66556  -0.65410  -0.63738  -0.61353  -0.59814
 Alpha  occ. eigenvalues --   -0.59006  -0.58577  -0.58056  -0.56895  -0.56804
 Alpha  occ. eigenvalues --   -0.56392  -0.55453  -0.55020  -0.53468  -0.52767
 Alpha  occ. eigenvalues --   -0.52372  -0.51546  -0.51015  -0.50356  -0.49914
 Alpha  occ. eigenvalues --   -0.49362  -0.49070  -0.48903  -0.48323  -0.47640
 Alpha  occ. eigenvalues --   -0.47560  -0.47264  -0.47058  -0.46718  -0.46159
 Alpha  occ. eigenvalues --   -0.45838  -0.45640  -0.45155  -0.44546  -0.44208
 Alpha  occ. eigenvalues --   -0.44146  -0.43391  -0.43234  -0.42765  -0.42253
 Alpha  occ. eigenvalues --   -0.42184  -0.41999  -0.41376  -0.41132  -0.40588
 Alpha  occ. eigenvalues --   -0.40227  -0.40012  -0.39859  -0.39745  -0.39560
 Alpha  occ. eigenvalues --   -0.39098  -0.38959  -0.38400  -0.38185  -0.37901
 Alpha  occ. eigenvalues --   -0.37751  -0.37326  -0.37192  -0.37049  -0.36596
 Alpha  occ. eigenvalues --   -0.36215  -0.35915  -0.35128  -0.35031  -0.34554
 Alpha  occ. eigenvalues --   -0.33776  -0.33299  -0.32849  -0.32510  -0.31500
 Alpha  occ. eigenvalues --   -0.30795  -0.29965  -0.29710  -0.29519  -0.29434
 Alpha  occ. eigenvalues --   -0.27999  -0.27648  -0.25834  -0.24238  -0.24053
 Alpha  occ. eigenvalues --   -0.23846  -0.23644  -0.22765  -0.21906  -0.18485
 Alpha virt. eigenvalues --   -0.13176  -0.08115  -0.04051  -0.02853  -0.01502
 Alpha virt. eigenvalues --   -0.00490   0.00326   0.01669   0.01889   0.02737
 Alpha virt. eigenvalues --    0.03607   0.03774   0.04463   0.05000   0.05174

 Mulliken charges:
               1
     1  O   -0.260652
     2  O   -0.189819
     3  O   -0.232401
     4  O   -0.263259
     5  O   -0.286915
     6  O   -0.146056
     7  N   -0.055410
     8  N   -0.251182
     9  N   -0.130659
    10  N   -0.417652
    11  C    0.126295
    12  C    0.036361
    13  C   -0.017066
    14  C   -0.107050
    15  C   -0.128191
    16  C   -0.075298
    17  C   -0.191263
    18  C    0.094352
    19  C   -0.052752
    20  C   -0.141291
    21  C    0.165847
    22  C    0.189239
    23  C   -0.019177
    24  C    0.083368
    25  C    0.078990
    26  C   -0.127152
    27  C   -0.043432
    28  C    0.150115
    29  C    0.066290
    30  C   -0.047985
    31  C   -0.085227
    32  C    0.147447
    33  C   -0.070393
    34  C    0.131456
    35  C    0.130751
    36  C    0.073665
    37  C    0.222625
    38  C    0.100856
    39  C   -0.250820
    40  C    0.199060
    41  C   -0.016558
    42  C    0.140898
    43  C   -0.056632
    44  H    0.011627
    45  H   -0.003054
    46  H   -0.006327
    47  H    0.136351
    48  H    0.187439
    49  H    0.017244
    50  H    0.017406
    51  H   -0.011629
    52  H    0.004172
    53  H    0.014188
    54  H    0.049214
    55  H    0.025493
    56  H    0.046404
    57  H    0.006469
    58  H    0.053489
    59  H    0.064997
    60  H    0.191693
    61  H   -0.000888
    62  H    0.059935
    63  H    0.041546
    64  H    0.067538
    65  H    0.073771
    66  H   -0.067505
    67  H    0.058203
    68  H    0.039630
    69  H   -0.071046
    70  H   -0.057498
    71  H    0.012406
    72  H    0.150701
    73  H    0.006167
    74  H    0.048192
    75  H   -0.001493
    76  H    0.033201
    77  H    0.249736
    78  H    0.055664
    79  H    0.023239
 Sum of Mulliken charges =  -0.00000

 Dipole moment (field-independent basis, Debye):
    X=              2.7296    Y=              3.3522    Z=             -1.6388  Tot=              4.6232
 Quadrupole moment (field-independent basis, Debye-Ang):
   XX=           -236.4868   YY=           -242.3040   ZZ=           -263.2728
   XY=             -7.2411   XZ=            -28.0470   YZ=            -18.3151

 Normal termination of Gaussian 16 at Fri Jul 26 17:17:16 2019.
