 Gaussian 16, Revision A.03,
 Gaussian 16:  ES64L-G16RevA.03 25-Dec-2016

 --------------------------
 # td=(NStates=1) B3LYP/SVP
 --------------------------

 --
 TD
 --
 Symbolic Z-matrix:
 Charge =  0 Multiplicity = 1

                         Standard orientation:
 ---------------------------------------------------------------------
 Center     Atomic      Atomic             Coordinates (Angstroms)
 Number     Number       Type             X           Y           Z
 ---------------------------------------------------------------------
      1          8           0       -3.178018   -1.279689   -2.904039
      2          8           0        3.093424    2.919645    3.088367
      3          8           0        3.705492    1.177071    4.543683
      4          8           0        7.640463   -1.315141   -0.780464
      5          8           0        6.789878   -2.646509   -2.374081
      6          8           0       -2.727280    1.537472    1.470364
      7          7           0       -0.207325   -2.463411    0.806568
      8          7           0       -2.645478   -1.257480   -0.614327
      9          7           0        1.052839    0.099748   -0.717988
     10          7           0       -1.017025    1.517268   -0.059412
     11          6           0       -3.367743   -1.381561    0.581877
     12          6           0       -2.614178   -2.413204    1.473454
     13          6           0       -1.080420   -2.114070    1.759080
     14          6           0       -0.516538   -1.360286    2.757710
     15          6           0        0.805077   -1.346484    2.480320
     16          6           0        0.930869   -1.898345    1.154806
     17          6           0       -4.730082   -1.772677    0.140143
     18          6           0        1.897202   -0.602243    3.173530
     19          6           0       -4.739677   -1.915161   -1.180865
     20          6           0        1.967692   -1.879362    0.185762
     21          6           0        2.002848   -0.914696   -0.780314
     22          6           0       -3.380984   -1.493399   -1.734538
     23          6           0        2.959909   -0.612901   -1.885107
     24          6           0       -1.206727   -0.765327    4.021850
     25          6           0       -5.793111   -2.138701    1.124819
     26          6           0        2.543575    0.549586   -2.462534
     27          6           0        2.014773    0.810269    2.870118
     28          6           0        1.314758    0.987740   -1.769749
     29          6           0        4.164518   -1.489992   -2.060001
     30          6           0       -5.844451   -2.402267   -2.092085
     31          6           0        5.316910   -0.978614   -1.202592
     32          6           0        3.206387    1.214989   -3.694884
     33          6           0        0.570715    2.203714   -1.808141
     34          6           0        3.068867    1.611355    3.614972
     35          6           0       -0.559426    2.354267   -0.975892
     36          6           0       -6.858022   -3.247310   -1.856872
     37          6           0        6.625665   -1.777193   -1.545666
     38          6           0       -1.429573    3.558597   -1.016204
     39          6           0       -2.357613    3.476485   -0.015646
     40          6           0       -2.040349    2.106324    0.601374
     41          6           0       -1.327342    4.707110   -2.016362
     42          6           0       -3.516696    4.271288    0.429683
     43          6           0       -2.196879    5.716016   -2.088912
     44          1           0       -3.281204   -0.378205    0.985161
     45          1           0       -2.966949   -3.536737    0.994856
     46          1           0       -3.179027   -2.176817    2.470606
     47          1           0       -0.555538   -2.931948   -0.197437
     48          1           0       -2.198879   -0.387218   -0.928024
     49          1           0        1.955156   -0.592704    4.330090
     50          1           0        2.851374   -1.125377    3.005945
     51          1           0        2.691984   -2.724821    0.179661
     52          1           0       -2.130350   -1.398188    4.329425
     53          1           0       -0.345276   -0.803598    4.849639
     54          1           0       -1.778687    0.109552    3.707062
     55          1           0       -5.779820   -1.271150    1.783324
     56          1           0       -5.472304   -3.045571    1.643793
     57          1           0       -6.752646   -2.207852    0.594627
     58          1           0        2.251429    0.928665    1.728344
     59          1           0        1.017270    1.246363    3.072339
     60          1           0        0.490762    0.259704    0.078779
     61          1           0        4.522098   -1.373788   -2.999849
     62          1           0        4.036799   -2.596100   -1.904666
     63          1           0       -5.643657   -1.741476   -3.051925
     64          1           0        5.226687   -1.002713   -0.097624
     65          1           0        5.633893    0.029553   -1.703156
     66          1           0        4.125286    0.586332   -3.904962
     67          1           0        3.454239    2.266925   -3.308540
     68          1           0        2.416824    1.429443   -4.527829
     69          1           0        1.105202    2.899305   -2.615912
     70          1           0       -6.924284   -3.719217   -0.767861
     71          1           0       -7.638382   -3.521901   -2.780677
     72          1           0        3.785288    3.125042    3.713344
     73          1           0       -0.482668    4.630986   -2.750612
     74          1           0       -4.435269    4.351055   -0.242917
     75          1           0       -4.071798    3.824637    1.384792
     76          1           0       -3.016491    5.320674    0.695125
     77          1           0        8.460115   -1.988339   -1.049750
     78          1           0       -1.998618    6.731437   -2.768100
     79          1           0       -3.225041    5.984688   -1.300421
 ---------------------------------------------------------------------

 SCF Done:  E(RB3LYP) =  -1947.82466327     A.U. after   17 cycles

 Excitation energies and oscillator strengths:

 Excited State   1:      Singlet-A      1.1503 eV 1077.83 nm  f=0.0012  <S**2>=0.000
     155 ->156         0.70401
 This state for optimization and/or second-order correction.
 Total Energy, E(TD-HF/TD-DFT) =  -1947.78239008
 Copying the excited state density for this state as the 1-particle RhoCI density.

 The electronic state is 1-A.
 Alpha  occ. eigenvalues --  -19.20228 -19.18694 -19.14752 -19.14571 -19.11862
 Alpha  occ. eigenvalues --  -19.08922 -14.38065 -14.37510 -14.32412 -14.30428
 Alpha  occ. eigenvalues --  -10.33629 -10.32824 -10.27921 -10.27584 -10.26395
 Alpha  occ. eigenvalues --  -10.25599 -10.25244 -10.23960 -10.23949 -10.23816
 Alpha  occ. eigenvalues --  -10.23678 -10.22604 -10.22208 -10.22036 -10.21982
 Alpha  occ. eigenvalues --  -10.21650 -10.21457 -10.21430 -10.21286 -10.20767
 Alpha  occ. eigenvalues --  -10.20721 -10.20499 -10.20258 -10.20068 -10.20014
 Alpha  occ. eigenvalues --  -10.19476 -10.19418 -10.19002 -10.18747 -10.18700
 Alpha  occ. eigenvalues --  -10.17519 -10.17335 -10.16745  -1.10355  -1.10019
 Alpha  occ. eigenvalues --   -1.02234  -1.02135  -1.01971  -1.01241  -0.99782
 Alpha  occ. eigenvalues --   -0.98755  -0.94249  -0.94183  -0.84899  -0.82520
 Alpha  occ. eigenvalues --   -0.81562  -0.80781  -0.80452  -0.79507  -0.78160
 Alpha  occ. eigenvalues --   -0.76766  -0.75778  -0.74976  -0.73575  -0.72650
 Alpha  occ. eigenvalues --   -0.70408  -0.69707  -0.69626  -0.69448  -0.67406
 Alpha  occ. eigenvalues --   -0.66363  -0.65752  -0.62632  -0.59894  -0.59080
 Alpha  occ. eigenvalues --   -0.58318  -0.58198  -0.57854  -0.57277  -0.56785
 Alpha  occ. eigenvalues --   -0.55317  -0.54888  -0.54635  -0.53659  -0.52656
 Alpha  occ. eigenvalues --   -0.52321  -0.51666  -0.50780  -0.50725  -0.50276
 Alpha  occ. eigenvalues --   -0.49597  -0.49527  -0.49123  -0.48698  -0.48247
 Alpha  occ. eigenvalues --   -0.48185  -0.47005  -0.45937  -0.45286  -0.44832
 Alpha  occ. eigenvalues --   -0.44760  -0.44327  -0.44205  -0.44081  -0.44002
 Alpha  occ. eigenvalues --   -0.43677  -0.43221  -0.42851  -0.42341  -0.41960
 Alpha  occ. eigenvalues --   -0.41835  -0.41577  -0.41494  -0.41302  -0.41142
 Alpha  occ. eigenvalues --   -0.40965  -0.40743  -0.40648  -0.40408  -0.40135
 Alpha  occ. eigenvalues --   -0.39888  -0.38892  -0.38531  -0.38308  -0.37967
 Alpha  occ. eigenvalues --   -0.37765  -0.37676  -0.37422  -0.37047  -0.36621
 Alpha  occ. eigenvalues --   -0.36397  -0.35689  -0.35289  -0.34371  -0.33803
 Alpha  occ. eigenvalues --   -0.33774  -0.33714  -0.32343  -0.31901  -0.31746
 Alpha  occ. eigenvalues --   -0.31334  -0.29969  -0.29526  -0.29136  -0.28830
 Alpha  occ. eigenvalues --   -0.28440  -0.27778  -0.25865  -0.25417  -0.24506
 Alpha  occ. eigenvalues --   -0.23779  -0.23592  -0.23184  -0.22462  -0.19162
 Alpha virt. eigenvalues --   -0.12321  -0.07014  -0.02702  -0.01414  -0.00969
 Alpha virt. eigenvalues --   -0.00863   0.00801   0.01528   0.01964   0.02465
 Alpha virt. eigenvalues --    0.02708   0.02915   0.03796   0.04490   0.04605

 Mulliken charges:
               1
     1  O   -0.223766
     2  O   -0.188819
     3  O   -0.210269
     4  O   -0.241204
     5  O   -0.227567
     6  O   -0.231791
     7  N   -0.033245
     8  N   -0.180215
     9  N   -0.093766
    10  N   -0.238399
    11  C    0.103386
    12  C    0.052942
    13  C   -0.070266
    14  C   -0.114547
    15  C   -0.052369
    16  C   -0.046477
    17  C   -0.213845
    18  C    0.062507
    19  C   -0.115946
    20  C   -0.164163
    21  C    0.104539
    22  C    0.097727
    23  C   -0.042670
    24  C    0.062386
    25  C    0.126761
    26  C   -0.152988
    27  C   -0.026420
    28  C    0.105358
    29  C    0.174613
    30  C   -0.000927
    31  C   -0.048087
    32  C    0.055922
    33  C   -0.159059
    34  C    0.159830
    35  C    0.155173
    36  C   -0.103835
    37  C    0.132361
    38  C   -0.003248
    39  C   -0.161960
    40  C    0.148772
    41  C    0.044706
    42  C   -0.020885
    43  C   -0.146367
    44  H    0.026678
    45  H    0.019262
    46  H   -0.000387
    47  H    0.195915
    48  H    0.136129
    49  H    0.010724
    50  H   -0.017784
    51  H    0.009651
    52  H    0.010396
    53  H    0.049259
    54  H    0.033565
    55  H    0.017336
    56  H    0.037125
    57  H    0.025335
    58  H    0.036363
    59  H    0.051381
    60  H    0.170719
    61  H   -0.032856
    62  H    0.040054
    63  H    0.038014
    64  H    0.063247
    65  H    0.056219
    66  H    0.044121
    67  H    0.042436
    68  H    0.067050
    69  H    0.024380
    70  H    0.045148
    71  H    0.059276
    72  H    0.145416
    73  H    0.005889
    74  H    0.059808
    75  H    0.045391
    76  H    0.059956
    77  H    0.232536
    78  H    0.051069
    79  H    0.067297
 Sum of Mulliken charges =  -0.00000

 Dipole moment (field-independent basis, Debye):
    X=              4.5946    Y=              2.3157    Z=             -1.0859  Tot=              5.2585
 Quadrupole moment (field-independent basis, Debye-Ang):
   XX=           -235.2359   YY=           -241.7403   ZZ=           -272.1615
   XY=             -0.2944   XZ=            -19.8998   YZ=            -11.6927

 Normal termination of Gaussian 16 at Thu Jul 25 22:49:25 2019.
