 Gaussian 16, Revision A.03,
 Gaussian 16:  ES64L-G16RevA.03 25-Dec-2016

 --------------------------
 # td=(NStates=1) B3LYP/SVP
 --------------------------

 --
 TD
 --
 Symbolic Z-matrix:
 Charge =  0 Multiplicity = 1

                         Standard orientation:
 ---------------------------------------------------------------------
 Center     Atomic      Atomic             Coordinates (Angstroms)
 Number     Number       Type             X           Y           Z
 ---------------------------------------------------------------------
      1          8           0       -3.442404   -1.233319   -2.886113
      2          8           0        3.186125    3.089631    3.140214
      3          8           0        3.827170    1.268604    4.284281
      4          8           0        7.787717   -1.587584   -0.636559
      5          8           0        6.734302   -2.979720   -2.078729
      6          8           0       -2.741577    1.600956    1.518334
      7          7           0       -0.238994   -2.499037    0.855159
      8          7           0       -2.743835   -1.208895   -0.662534
      9          7           0        1.207934    0.101645   -0.685321
     10          7           0       -1.051991    1.437857   -0.063917
     11          6           0       -3.441481   -1.318484    0.678554
     12          6           0       -2.688672   -2.249107    1.648322
     13          6           0       -1.218029   -1.927493    1.689505
     14          6           0       -0.501928   -1.109338    2.696118
     15          6           0        0.900889   -1.270564    2.408398
     16          6           0        0.982568   -1.991136    1.214563
     17          6           0       -4.737918   -1.914566    0.285250
     18          6           0        1.952920   -0.447731    3.087008
     19          6           0       -4.863328   -1.979830   -1.096515
     20          6           0        2.070788   -1.948362    0.280423
     21          6           0        2.095338   -0.869363   -0.700504
     22          6           0       -3.640204   -1.440302   -1.643064
     23          6           0        3.014858   -0.602043   -1.816713
     24          6           0       -1.248876   -0.491013    3.770343
     25          6           0       -5.751767   -2.201181    1.368012
     26          6           0        2.551172    0.508123   -2.469295
     27          6           0        1.991530    1.073094    2.610413
     28          6           0        1.347847    0.901927   -1.784824
     29          6           0        4.276677   -1.471287   -2.172901
     30          6           0       -5.929083   -2.488997   -1.871977
     31          6           0        5.530720   -1.016869   -1.239534
     32          6           0        3.083085    1.261490   -3.689855
     33          6           0        0.483167    1.987508   -1.930784
     34          6           0        3.117684    1.809506    3.439254
     35          6           0       -0.645385    2.289953   -1.111963
     36          6           0       -6.957499   -3.341734   -1.737853
     37          6           0        6.676982   -1.951641   -1.462790
     38          6           0       -1.433804    3.468884   -1.165469
     39          6           0       -2.379368    3.387382   -0.053521
     40          6           0       -2.098718    2.033565    0.602110
     41          6           0       -1.302216    4.620876   -2.097528
     42          6           0       -3.423165    4.348213    0.362114
     43          6           0       -1.996544    5.705843   -2.357056
     44          1           0       -3.458871   -0.407220    1.206952
     45          1           0       -2.803294   -3.347738    1.339576
     46          1           0       -3.450721   -2.164361    2.656593
     47          1           0       -0.325464   -3.242817   -0.062039
     48          1           0       -2.107561   -0.357918   -0.789993
     49          1           0        1.804811   -0.510243    4.103905
     50          1           0        2.880515   -0.908197    3.142392
     51          1           0        2.931223   -2.741217    0.226693
     52          1           0       -1.656772   -1.231203    4.308642
     53          1           0       -0.674913   -0.021247    4.561760
     54          1           0       -1.894425    0.191735    3.132474
     55          1           0       -5.871207   -1.338380    2.064162
     56          1           0       -5.364367   -3.229933    1.943207
     57          1           0       -6.756321   -2.437426    0.811031
     58          1           0        2.340185    1.038959    1.561747
     59          1           0        1.070506    1.537392    2.860612
     60          1           0        0.455965    0.092126    0.143827
     61          1           0        4.424284   -1.148911   -3.317620
     62          1           0        3.999283   -2.560228   -1.835869
     63          1           0       -5.865367   -2.193138   -2.944803
     64          1           0        5.519929   -1.085634   -0.311327
     65          1           0        5.864302   -0.013570   -1.361910
     66          1           0        3.724544    0.616736   -4.337047
     67          1           0        3.760480    2.127094   -3.160862
     68          1           0        2.417397    1.643909   -4.248738
     69          1           0        0.317429    2.715700   -2.744795
     70          1           0       -7.102419   -3.638450   -0.686889
     71          1           0       -7.846873   -3.517122   -2.576927
     72          1           0        3.780631    3.489246    3.782541
     73          1           0       -0.542098    4.243820   -2.763852
     74          1           0       -4.516617    4.403518   -0.361545
     75          1           0       -3.752847    4.035542    1.397578
     76          1           0       -2.980052    5.365501    0.477878
     77          1           0        8.428728   -2.212945   -0.879398
     78          1           0       -1.676175    6.496048   -2.920888
     79          1           0       -3.005748    6.029096   -1.681664
 ---------------------------------------------------------------------

 SCF Done:  E(RB3LYP) =  -1947.77381778     A.U. after   20 cycles

 Excitation energies and oscillator strengths:

 Excited State   1:      Singlet-A      0.8683 eV 1427.94 nm  f=0.0003  <S**2>=0.000
     155 ->156         0.70334
 This state for optimization and/or second-order correction.
 Total Energy, E(TD-HF/TD-DFT) =  -1947.74190936
 Copying the excited state density for this state as the 1-particle RhoCI density.

 The electronic state is 1-A.
 Alpha  occ. eigenvalues --  -19.19293 -19.17385 -19.14755 -19.12440 -19.12320
 Alpha  occ. eigenvalues --  -19.06694 -14.38718 -14.38380 -14.32750 -14.30096
 Alpha  occ. eigenvalues --  -10.33408 -10.32161 -10.27813 -10.27404 -10.25760
 Alpha  occ. eigenvalues --  -10.25585 -10.25368 -10.25330 -10.23905 -10.23362
 Alpha  occ. eigenvalues --  -10.23138 -10.22175 -10.21974 -10.21801 -10.21786
 Alpha  occ. eigenvalues --  -10.21673 -10.21637 -10.21612 -10.21564 -10.21531
 Alpha  occ. eigenvalues --  -10.21511 -10.21097 -10.21092 -10.20801 -10.20754
 Alpha  occ. eigenvalues --  -10.20640 -10.19095 -10.18609 -10.18108 -10.17885
 Alpha  occ. eigenvalues --  -10.17756 -10.17623 -10.16296  -1.11166  -1.09792
 Alpha  occ. eigenvalues --   -1.04216  -1.01660  -1.01371  -1.00158  -0.97808
 Alpha  occ. eigenvalues --   -0.95665  -0.92195  -0.90391  -0.83781  -0.82371
 Alpha  occ. eigenvalues --   -0.80685  -0.80442  -0.80214  -0.80089  -0.78700
 Alpha  occ. eigenvalues --   -0.76663  -0.76067  -0.75500  -0.74512  -0.73471
 Alpha  occ. eigenvalues --   -0.71912  -0.70787  -0.69887  -0.69567  -0.67493
 Alpha  occ. eigenvalues --   -0.66973  -0.65474  -0.62564  -0.61067  -0.60772
 Alpha  occ. eigenvalues --   -0.59458  -0.59439  -0.58907  -0.58440  -0.56742
 Alpha  occ. eigenvalues --   -0.55622  -0.54712  -0.54167  -0.53382  -0.52847
 Alpha  occ. eigenvalues --   -0.52008  -0.51322  -0.51028  -0.50289  -0.49583
 Alpha  occ. eigenvalues --   -0.49019  -0.48849  -0.48506  -0.48457  -0.48192
 Alpha  occ. eigenvalues --   -0.48012  -0.47462  -0.46757  -0.46539  -0.46144
 Alpha  occ. eigenvalues --   -0.45533  -0.45282  -0.44614  -0.44227  -0.44067
 Alpha  occ. eigenvalues --   -0.43385  -0.42969  -0.42844  -0.42727  -0.42193
 Alpha  occ. eigenvalues --   -0.41900  -0.41744  -0.41431  -0.41313  -0.41191
 Alpha  occ. eigenvalues --   -0.41048  -0.40941  -0.40337  -0.40045  -0.39853
 Alpha  occ. eigenvalues --   -0.39466  -0.39215  -0.39002  -0.38506  -0.38257
 Alpha  occ. eigenvalues --   -0.37837  -0.37449  -0.37180  -0.36982  -0.36691
 Alpha  occ. eigenvalues --   -0.36213  -0.36102  -0.35311  -0.35129  -0.34000
 Alpha  occ. eigenvalues --   -0.33691  -0.33233  -0.32506  -0.32050  -0.31408
 Alpha  occ. eigenvalues --   -0.31055  -0.29924  -0.29888  -0.29053  -0.28889
 Alpha  occ. eigenvalues --   -0.27896  -0.27575  -0.25231  -0.24154  -0.23376
 Alpha  occ. eigenvalues --   -0.22749  -0.22552  -0.22100  -0.22006  -0.19236
 Alpha virt. eigenvalues --   -0.13447  -0.08129  -0.04795  -0.01847  -0.01089
 Alpha virt. eigenvalues --    0.00344   0.00707   0.01607   0.02060   0.02461
 Alpha virt. eigenvalues --    0.03595   0.03962   0.04290   0.04511   0.05031

 Mulliken charges:
               1
     1  O   -0.302801
     2  O   -0.136616
     3  O   -0.251955
     4  O   -0.225131
     5  O   -0.200102
     6  O   -0.194936
     7  N   -0.135218
     8  N   -0.203011
     9  N   -0.088985
    10  N   -0.349689
    11  C    0.088746
    12  C    0.060626
    13  C   -0.034388
    14  C   -0.166825
    15  C   -0.116278
    16  C   -0.015425
    17  C   -0.165868
    18  C    0.190806
    19  C    0.053992
    20  C   -0.107983
    21  C    0.023474
    22  C    0.122404
    23  C   -0.112142
    24  C    0.142163
    25  C    0.007942
    26  C   -0.133762
    27  C    0.017527
    28  C    0.193916
    29  C    0.063017
    30  C   -0.062279
    31  C    0.152176
    32  C    0.165160
    33  C   -0.108128
    34  C    0.108048
    35  C    0.046109
    36  C   -0.080368
    37  C    0.115609
    38  C    0.005078
    39  C   -0.179563
    40  C    0.178240
    41  C    0.059050
    42  C   -0.006723
    43  C   -0.045045
    44  H    0.034874
    45  H   -0.006979
    46  H    0.037434
    47  H    0.194181
    48  H    0.161108
    49  H   -0.036618
    50  H   -0.038304
    51  H    0.032626
    52  H   -0.017464
    53  H   -0.021020
    54  H    0.068877
    55  H    0.050943
    56  H    0.061173
    57  H    0.044379
    58  H    0.046622
    59  H    0.040750
    60  H    0.256869
    61  H    0.058163
    62  H    0.059664
    63  H    0.011124
    64  H   -0.042034
    65  H    0.024091
    66  H    0.025750
    67  H    0.056660
    68  H   -0.025698
    69  H   -0.004887
    70  H   -0.004509
    71  H    0.059431
    72  H    0.173042
    73  H   -0.032318
    74  H    0.075862
    75  H    0.034695
    76  H    0.045753
    77  H    0.153058
    78  H    0.007000
    79  H    0.044842
 Sum of Mulliken charges =  -0.00000

 Dipole moment (field-independent basis, Debye):
    X=              3.7049    Y=              3.3833    Z=              0.1461  Tot=              5.0194
 Quadrupole moment (field-independent basis, Debye-Ang):
   XX=           -247.8827   YY=           -235.4908   ZZ=           -265.5033
   XY=              5.0297   XZ=            -25.8559   YZ=            -11.0232

 Normal termination of Gaussian 16 at Mon Jul 29 09:51:21 2019.
