 Gaussian 16, Revision A.03,
 Gaussian 16:  ES64L-G16RevA.03 25-Dec-2016

 --------------------------
 # td=(NStates=1) B3LYP/SVP
 --------------------------

 --
 TD
 --
 Symbolic Z-matrix:
 Charge =  0 Multiplicity = 1

                         Standard orientation:
 ---------------------------------------------------------------------
 Center     Atomic      Atomic             Coordinates (Angstroms)
 Number     Number       Type             X           Y           Z
 ---------------------------------------------------------------------
      1          8           0       -3.220257   -1.310822   -2.934244
      2          8           0        3.289732    2.944918    3.269917
      3          8           0        3.808448    1.168281    4.546900
      4          8           0        7.610846   -1.553476   -0.867019
      5          8           0        6.503561   -2.884471   -2.166291
      6          8           0       -2.604780    1.451095    1.583498
      7          7           0       -0.214894   -2.476258    0.751438
      8          7           0       -2.651775   -1.185941   -0.550323
      9          7           0        1.148649    0.295260   -0.704877
     10          7           0       -0.988570    1.485180    0.002675
     11          6           0       -3.309818   -1.420163    0.681907
     12          6           0       -2.633995   -2.446706    1.534154
     13          6           0       -1.145571   -2.244530    1.658239
     14          6           0       -0.401419   -1.476771    2.780708
     15          6           0        0.906624   -1.287749    2.343556
     16          6           0        1.009305   -1.857571    0.976388
     17          6           0       -4.630746   -1.828944    0.227634
     18          6           0        1.947470   -0.633155    2.979352
     19          6           0       -4.772070   -1.973983   -1.120807
     20          6           0        2.135574   -1.795466    0.021932
     21          6           0        2.127156   -0.682792   -0.793731
     22          6           0       -3.446543   -1.489896   -1.752793
     23          6           0        3.039577   -0.300191   -1.892424
     24          6           0       -1.060136   -0.960704    3.919655
     25          6           0       -5.612851   -2.292327    1.302439
     26          6           0        2.436764    0.700462   -2.552277
     27          6           0        2.099605    0.922477    2.769322
     28          6           0        1.252246    1.102206   -1.758054
     29          6           0        4.288668   -1.225330   -2.222446
     30          6           0       -5.870769   -2.329037   -2.039331
     31          6           0        5.483302   -0.834264   -1.358124
     32          6           0        3.031934    1.448290   -3.683386
     33          6           0        0.350081    2.215423   -1.979694
     34          6           0        3.109306    1.609735    3.622394
     35          6           0       -0.726977    2.298846   -1.119760
     36          6           0       -6.919978   -3.134318   -1.833969
     37          6           0        6.511509   -1.928049   -1.515857
     38          6           0       -1.659060    3.398350   -1.052074
     39          6           0       -2.430466    3.333148    0.054861
     40          6           0       -2.081734    2.031249    0.719164
     41          6           0       -1.611556    4.560289   -2.008656
     42          6           0       -3.621265    4.192743    0.561637
     43          6           0       -2.204481    5.834923   -1.718929
     44          1           0       -3.418982   -0.317575    1.114829
     45          1           0       -2.674218   -3.427755    0.896064
     46          1           0       -2.846843   -2.638093    2.636365
     47          1           0       -0.487287   -2.604806   -0.331547
     48          1           0       -1.811636   -0.458888   -0.699959
     49          1           0        1.880789   -0.750550    4.086403
     50          1           0        3.009462   -1.112898    2.678727
     51          1           0        2.791851   -2.435821   -0.067673
     52          1           0       -1.794209   -1.754084    4.298086
     53          1           0       -0.420566   -0.853558    4.970715
     54          1           0       -1.459297    0.196901    3.780759
     55          1           0       -5.457134   -1.673707    2.130711
     56          1           0       -5.460050   -3.347206    1.639676
     57          1           0       -6.478617   -2.146613    0.864819
     58          1           0        2.393542    1.072844    1.702551
     59          1           0        1.028526    1.366707    2.585567
     60          1           0        0.243774    0.457853   -0.101872
     61          1           0        4.459127   -1.420756   -3.337477
     62          1           0        4.170892   -2.232402   -2.271539
     63          1           0       -5.705910   -2.217350   -3.135982
     64          1           0        5.192435   -0.754718   -0.464812
     65          1           0        6.050767    0.197620   -1.686627
     66          1           0        3.556210    0.598149   -4.443878
     67          1           0        3.566197    2.379312   -3.593188
     68          1           0        2.242257    2.048242   -4.366963
     69          1           0        0.383281    3.162845   -2.528914
     70          1           0       -7.179054   -3.808809   -0.890278
     71          1           0       -7.546773   -3.476518   -2.655510
     72          1           0        4.001822    3.173237    3.938556
     73          1           0       -1.149191    4.671383   -3.050282
     74          1           0       -4.323799    4.645736   -0.140812
     75          1           0       -4.398068    3.356141    1.152318
     76          1           0       -3.433421    5.149233    1.188340
     77          1           0        8.393656   -2.093269   -1.125612
     78          1           0       -2.213233    6.638554   -2.570854
     79          1           0       -2.798672    6.021529   -0.661381
 ---------------------------------------------------------------------

 SCF Done:  E(RB3LYP) =  -1947.73340716     A.U. after   19 cycles

 Excitation energies and oscillator strengths:

 Excited State   1:      Singlet-A      0.7964 eV 1556.72 nm  f=0.0031  <S**2>=0.000
     155 ->156         0.70322
 This state for optimization and/or second-order correction.
 Total Energy, E(TD-HF/TD-DFT) =  -1947.70413835
 Copying the excited state density for this state as the 1-particle RhoCI density.

 The electronic state is 1-A.
 Alpha  occ. eigenvalues --  -19.18326 -19.17271 -19.14204 -19.12743 -19.12580
 Alpha  occ. eigenvalues --  -19.10046 -14.38354 -14.37939 -14.33375 -14.30640
 Alpha  occ. eigenvalues --  -10.32673 -10.32294 -10.28242 -10.27864 -10.27797
 Alpha  occ. eigenvalues --  -10.25897 -10.24639 -10.23411 -10.23086 -10.23082
 Alpha  occ. eigenvalues --  -10.23068 -10.22931 -10.22172 -10.22138 -10.22098
 Alpha  occ. eigenvalues --  -10.22040 -10.21966 -10.21907 -10.21580 -10.21384
 Alpha  occ. eigenvalues --  -10.21089 -10.21007 -10.20972 -10.20916 -10.19836
 Alpha  occ. eigenvalues --  -10.19546 -10.19384 -10.19248 -10.19088 -10.18937
 Alpha  occ. eigenvalues --  -10.17369 -10.17285 -10.17177  -1.12706  -1.07788
 Alpha  occ. eigenvalues --   -1.06466  -1.03150  -1.01038  -1.01001  -0.98195
 Alpha  occ. eigenvalues --   -0.96679  -0.92776  -0.92073  -0.84297  -0.82653
 Alpha  occ. eigenvalues --   -0.80889  -0.80763  -0.79885  -0.79513  -0.78545
 Alpha  occ. eigenvalues --   -0.77155  -0.75824  -0.74851  -0.73863  -0.72821
 Alpha  occ. eigenvalues --   -0.70768  -0.70240  -0.69614  -0.69519  -0.67692
 Alpha  occ. eigenvalues --   -0.66429  -0.65023  -0.63369  -0.61983  -0.61601
 Alpha  occ. eigenvalues --   -0.60106  -0.58583  -0.58022  -0.57743  -0.57113
 Alpha  occ. eigenvalues --   -0.56143  -0.54581  -0.54192  -0.53557  -0.52990
 Alpha  occ. eigenvalues --   -0.52497  -0.51584  -0.50755  -0.50691  -0.50060
 Alpha  occ. eigenvalues --   -0.49575  -0.49454  -0.48598  -0.48428  -0.47732
 Alpha  occ. eigenvalues --   -0.47439  -0.47043  -0.46733  -0.46235  -0.46074
 Alpha  occ. eigenvalues --   -0.45244  -0.44861  -0.44751  -0.44496  -0.44274
 Alpha  occ. eigenvalues --   -0.43787  -0.43405  -0.42942  -0.42720  -0.42223
 Alpha  occ. eigenvalues --   -0.41886  -0.41690  -0.41470  -0.41270  -0.40999
 Alpha  occ. eigenvalues --   -0.40711  -0.40386  -0.40060  -0.39960  -0.39823
 Alpha  occ. eigenvalues --   -0.39548  -0.38830  -0.38671  -0.38317  -0.38150
 Alpha  occ. eigenvalues --   -0.37940  -0.37213  -0.36859  -0.36523  -0.36470
 Alpha  occ. eigenvalues --   -0.36146  -0.36052  -0.34700  -0.34327  -0.34164
 Alpha  occ. eigenvalues --   -0.33359  -0.33033  -0.32371  -0.31588  -0.31299
 Alpha  occ. eigenvalues --   -0.30530  -0.30416  -0.30250  -0.29268  -0.28620
 Alpha  occ. eigenvalues --   -0.28346  -0.28018  -0.26282  -0.24780  -0.24421
 Alpha  occ. eigenvalues --   -0.24129  -0.23053  -0.22534  -0.22446  -0.18202
 Alpha virt. eigenvalues --   -0.12674  -0.07872  -0.04048  -0.02612  -0.01093
 Alpha virt. eigenvalues --   -0.00361   0.00768   0.02031   0.02695   0.02781
 Alpha virt. eigenvalues --    0.02979   0.03816   0.04193   0.04637   0.04922

 Mulliken charges:
               1
     1  O   -0.219627
     2  O   -0.226480
     3  O   -0.255624
     4  O   -0.189629
     5  O   -0.165780
     6  O   -0.143779
     7  N   -0.043882
     8  N   -0.353119
     9  N   -0.090188
    10  N   -0.413265
    11  C    0.133923
    12  C    0.206257
    13  C   -0.169576
    14  C   -0.071734
    15  C   -0.019960
    16  C   -0.037270
    17  C   -0.263769
    18  C    0.032339
    19  C   -0.042914
    20  C    0.043609
    21  C    0.089359
    22  C    0.179965
    23  C   -0.002318
    24  C   -0.056572
    25  C    0.200576
    26  C   -0.087137
    27  C   -0.052523
    28  C    0.132959
    29  C    0.050883
    30  C    0.008334
    31  C    0.087452
    32  C   -0.009266
    33  C   -0.071028
    34  C    0.194040
    35  C    0.084176
    36  C   -0.093910
    37  C    0.084345
    38  C    0.086594
    39  C   -0.158281
    40  C    0.171857
    41  C   -0.083039
    42  C   -0.026133
    43  C   -0.101882
    44  H    0.087572
    45  H   -0.002985
    46  H    0.020575
    47  H    0.158661
    48  H    0.169605
    49  H    0.015841
    50  H    0.010836
    51  H   -0.122146
    52  H    0.020262
    53  H    0.011604
    54  H    0.067958
    55  H   -0.011872
    56  H    0.035479
    57  H   -0.016166
    58  H    0.030491
    59  H    0.071952
    60  H    0.224259
    61  H    0.011688
    62  H   -0.008738
    63  H    0.024311
    64  H   -0.033345
    65  H    0.075057
    66  H    0.061598
    67  H    0.037428
    68  H    0.021294
    69  H   -0.007301
    70  H    0.032464
    71  H    0.019190
    72  H    0.185204
    73  H    0.033942
    74  H    0.029901
    75  H    0.057551
    76  H    0.056476
    77  H    0.187008
    78  H    0.054061
    79  H    0.052299
 Sum of Mulliken charges =  -0.00000

 Dipole moment (field-independent basis, Debye):
    X=              3.3370    Y=              2.7383    Z=             -2.6594  Tot=              5.0701
 Quadrupole moment (field-independent basis, Debye-Ang):
   XX=           -233.2418   YY=           -236.3387   ZZ=           -269.3115
   XY=              1.4011   XZ=            -25.2620   YZ=            -12.0412

 Normal termination of Gaussian 16 at Sun Jul 28 20:31:31 2019.
