 Gaussian 16, Revision A.03,
 Gaussian 16:  ES64L-G16RevA.03 25-Dec-2016

 --------------------------
 # td=(NStates=1) B3LYP/SVP
 --------------------------

 --
 TD
 --
 Symbolic Z-matrix:
 Charge =  0 Multiplicity = 1

                         Standard orientation:
 ---------------------------------------------------------------------
 Center     Atomic      Atomic             Coordinates (Angstroms)
 Number     Number       Type             X           Y           Z
 ---------------------------------------------------------------------
      1          8           0       -3.226349   -1.395389   -2.885341
      2          8           0        3.065348    2.884251    3.204179
      3          8           0        3.731657    1.180827    4.542207
      4          8           0        7.729335   -1.393784   -0.832864
      5          8           0        6.681599   -2.759857   -2.290317
      6          8           0       -2.744510    1.470341    1.576610
      7          7           0       -0.195218   -2.406362    0.753499
      8          7           0       -2.562049   -1.237139   -0.624272
      9          7           0        1.226630    0.232730   -0.634132
     10          7           0       -1.087543    1.467095   -0.058700
     11          6           0       -3.356000   -1.391022    0.614707
     12          6           0       -2.555920   -2.426103    1.510520
     13          6           0       -1.171906   -2.132215    1.702146
     14          6           0       -0.450236   -1.499196    2.761502
     15          6           0        0.892639   -1.370628    2.429521
     16          6           0        1.079249   -1.888256    1.123523
     17          6           0       -4.713454   -1.994420    0.168158
     18          6           0        2.029554   -0.584220    3.063836
     19          6           0       -4.645074   -2.070222   -1.189064
     20          6           0        2.147769   -1.875930    0.195358
     21          6           0        2.132559   -0.793545   -0.731190
     22          6           0       -3.368901   -1.467615   -1.648125
     23          6           0        2.985607   -0.448969   -1.821732
     24          6           0       -1.222863   -0.899355    3.962002
     25          6           0       -5.881163   -2.241112    1.113373
     26          6           0        2.508025    0.696378   -2.462420
     27          6           0        1.912964    0.837692    2.881302
     28          6           0        1.311506    1.052331   -1.707979
     29          6           0        4.200099   -1.247039   -2.216069
     30          6           0       -5.659524   -2.392985   -2.164245
     31          6           0        5.486392   -0.814814   -1.364942
     32          6           0        3.058006    1.324198   -3.658388
     33          6           0        0.422495    2.172994   -1.945119
     34          6           0        3.070748    1.611158    3.578717
     35          6           0       -0.730261    2.361268   -1.093324
     36          6           0       -6.888574   -3.047936   -2.008556
     37          6           0        6.644179   -1.790132   -1.602169
     38          6           0       -1.589818    3.465798   -1.055833
     39          6           0       -2.469771    3.285231    0.083976
     40          6           0       -2.111150    2.006700    0.681764
     41          6           0       -1.482786    4.775619   -1.949949
     42          6           0       -3.502748    4.180382    0.535751
     43          6           0       -2.220928    5.867239   -1.922117
     44          1           0       -3.289953   -0.283865    1.156709
     45          1           0       -2.583950   -3.370466    0.915979
     46          1           0       -3.094280   -2.500464    2.341585
     47          1           0       -0.434318   -2.760531   -0.130928
     48          1           0       -2.060310   -0.186800   -0.682272
     49          1           0        2.122560   -0.749998    4.302675
     50          1           0        2.950260   -1.126114    2.891186
     51          1           0        3.151651   -2.636927    0.085078
     52          1           0       -1.798281   -1.759682    4.600169
     53          1           0       -0.651487   -0.490306    4.759213
     54          1           0       -1.829549    0.044179    3.595182
     55          1           0       -5.799257   -1.845312    2.236865
     56          1           0       -6.165847   -3.404777    1.267418
     57          1           0       -6.879836   -1.919709    0.620986
     58          1           0        1.648309    1.224861    1.881847
     59          1           0        1.124120    1.329626    3.299948
     60          1           0        0.522957    0.334098   -0.121000
     61          1           0        4.389534   -1.164933   -3.019990
     62          1           0        4.144249   -2.215657   -1.971055
     63          1           0       -5.295014   -1.846332   -3.171142
     64          1           0        5.270401   -0.936348   -0.182652
     65          1           0        5.806119    0.222038   -1.646550
     66          1           0        3.821411    0.711217   -4.095081
     67          1           0        3.342680    2.506146   -3.668758
     68          1           0        2.210913    1.309270   -4.601081
     69          1           0        0.755085    2.867385   -2.832088
     70          1           0       -7.245591   -3.371709   -1.082225
     71          1           0       -7.361184   -3.315374   -2.920607
     72          1           0        3.679254    3.321072    3.779579
     73          1           0       -0.642990    4.742278   -2.645014
     74          1           0       -4.362010    4.260684   -0.291027
     75          1           0       -4.045394    3.707962    1.474982
     76          1           0       -3.338729    4.989311    1.003220
     77          1           0        8.321404   -2.166697   -0.909326
     78          1           0       -1.982680    6.694536   -2.588528
     79          1           0       -3.133919    5.934315   -1.413445
 ---------------------------------------------------------------------

 SCF Done:  E(RB3LYP) =  -1947.72772391     A.U. after   24 cycles

 Excitation energies and oscillator strengths:

 Excited State   1:      Singlet-A      0.8185 eV 1514.73 nm  f=0.0068  <S**2>=0.000
     155 ->156         0.70147
 This state for optimization and/or second-order correction.
 Total Energy, E(TD-HF/TD-DFT) =  -1947.69764365
 Copying the excited state density for this state as the 1-particle RhoCI density.

 The electronic state is 1-A.
 Alpha  occ. eigenvalues --  -19.19157 -19.18878 -19.15238 -19.12583 -19.12537
 Alpha  occ. eigenvalues --  -19.07207 -14.37961 -14.36662 -14.33183 -14.30315
 Alpha  occ. eigenvalues --  -10.33801 -10.32307 -10.27925 -10.27776 -10.26489
 Alpha  occ. eigenvalues --  -10.26063 -10.25462 -10.25446 -10.24227 -10.24110
 Alpha  occ. eigenvalues --  -10.23540 -10.23495 -10.23477 -10.22374 -10.22189
 Alpha  occ. eigenvalues --  -10.21712 -10.21702 -10.21676 -10.21524 -10.20798
 Alpha  occ. eigenvalues --  -10.20551 -10.19755 -10.19669 -10.19589 -10.19547
 Alpha  occ. eigenvalues --  -10.19502 -10.18844 -10.18678 -10.18256 -10.18240
 Alpha  occ. eigenvalues --  -10.17459 -10.17457 -10.17353  -1.11039  -1.10882
 Alpha  occ. eigenvalues --   -1.03744  -1.02496  -1.02471  -0.99550  -0.99242
 Alpha  occ. eigenvalues --   -0.95938  -0.92958  -0.91611  -0.85850  -0.82997
 Alpha  occ. eigenvalues --   -0.81297  -0.80456  -0.79984  -0.79434  -0.78713
 Alpha  occ. eigenvalues --   -0.77306  -0.76690  -0.75862  -0.74263  -0.72636
 Alpha  occ. eigenvalues --   -0.71894  -0.71659  -0.70041  -0.68449  -0.67974
 Alpha  occ. eigenvalues --   -0.66908  -0.65685  -0.63441  -0.61735  -0.61230
 Alpha  occ. eigenvalues --   -0.60317  -0.59392  -0.59055  -0.58911  -0.58539
 Alpha  occ. eigenvalues --   -0.56503  -0.55380  -0.54202  -0.53894  -0.53790
 Alpha  occ. eigenvalues --   -0.53331  -0.51873  -0.51135  -0.50069  -0.49863
 Alpha  occ. eigenvalues --   -0.49752  -0.49163  -0.48743  -0.48404  -0.48220
 Alpha  occ. eigenvalues --   -0.47593  -0.47241  -0.46972  -0.46420  -0.46087
 Alpha  occ. eigenvalues --   -0.45676  -0.45319  -0.45060  -0.44570  -0.44226
 Alpha  occ. eigenvalues --   -0.44013  -0.43425  -0.43342  -0.42833  -0.42658
 Alpha  occ. eigenvalues --   -0.42289  -0.41936  -0.41699  -0.41328  -0.41036
 Alpha  occ. eigenvalues --   -0.40657  -0.40578  -0.40432  -0.39995  -0.39952
 Alpha  occ. eigenvalues --   -0.39705  -0.39427  -0.39221  -0.38453  -0.38199
 Alpha  occ. eigenvalues --   -0.37920  -0.37815  -0.37712  -0.37473  -0.36576
 Alpha  occ. eigenvalues --   -0.36234  -0.35406  -0.34424  -0.34277  -0.34157
 Alpha  occ. eigenvalues --   -0.34004  -0.33577  -0.32220  -0.31933  -0.31408
 Alpha  occ. eigenvalues --   -0.30728  -0.30451  -0.29160  -0.28866  -0.28452
 Alpha  occ. eigenvalues --   -0.28003  -0.27772  -0.25998  -0.24907  -0.23765
 Alpha  occ. eigenvalues --   -0.23539  -0.22776  -0.22450  -0.21627  -0.19458
 Alpha virt. eigenvalues --   -0.14043  -0.09016  -0.04163  -0.01836  -0.01489
 Alpha virt. eigenvalues --   -0.00263  -0.00043   0.01791   0.01996   0.02336
 Alpha virt. eigenvalues --    0.02960   0.04061   0.04776   0.05171   0.05603

 Mulliken charges:
               1
     1  O   -0.283423
     2  O   -0.133581
     3  O   -0.264993
     4  O   -0.212729
     5  O   -0.194443
     6  O   -0.214288
     7  N   -0.073092
     8  N   -0.222978
     9  N    0.102724
    10  N   -0.376243
    11  C   -0.108146
    12  C    0.321864
    13  C   -0.068523
    14  C   -0.123185
    15  C   -0.057525
    16  C    0.019008
    17  C   -0.079874
    18  C    0.077102
    19  C   -0.068676
    20  C   -0.109251
    21  C    0.059234
    22  C    0.130045
    23  C   -0.122465
    24  C    0.019356
    25  C   -0.025313
    26  C   -0.066209
    27  C    0.080980
    28  C    0.036354
    29  C    0.442291
    30  C   -0.072366
    31  C   -0.104188
    32  C   -0.015802
    33  C   -0.093686
    34  C    0.122453
    35  C    0.137889
    36  C    0.005054
    37  C    0.143871
    38  C    0.010148
    39  C   -0.177349
    40  C    0.183332
    41  C    0.013040
    42  C    0.097331
    43  C    0.010530
    44  H    0.116567
    45  H   -0.021839
    46  H   -0.059748
    47  H    0.095310
    48  H    0.211644
    49  H    0.023498
    50  H   -0.001711
    51  H    0.057524
    52  H    0.027121
    53  H   -0.016745
    54  H    0.061316
    55  H    0.050118
    56  H    0.044346
    57  H    0.047885
    58  H   -0.004789
    59  H    0.000726
    60  H    0.052120
    61  H   -0.180913
    62  H   -0.033832
    63  H    0.054430
    64  H    0.078289
    65  H    0.058448
    66  H    0.020376
    67  H    0.066619
    68  H    0.055245
    69  H    0.032703
    70  H   -0.009595
    71  H    0.018332
    72  H    0.162897
    73  H   -0.014621
    74  H    0.062638
    75  H    0.019429
    76  H   -0.021661
    77  H    0.178466
    78  H    0.023362
    79  H    0.001764
 Sum of Mulliken charges =  -0.00000

 Dipole moment (field-independent basis, Debye):
    X=              4.2808    Y=              4.2140    Z=             -0.8640  Tot=              6.0687
 Quadrupole moment (field-independent basis, Debye-Ang):
   XX=           -242.3320   YY=           -235.0140   ZZ=           -269.2845
   XY=             -1.1804   XZ=            -25.7939   YZ=            -13.1044

 Normal termination of Gaussian 16 at Wed Jul 24 08:42:13 2019.
