 Gaussian 16, Revision A.03,
 Gaussian 16:  ES64L-G16RevA.03 25-Dec-2016

 --------------------------
 # td=(NStates=1) B3LYP/SVP
 --------------------------

 --
 TD
 --
 Symbolic Z-matrix:
 Charge =  0 Multiplicity = 1

                         Standard orientation:
 ---------------------------------------------------------------------
 Center     Atomic      Atomic             Coordinates (Angstroms)
 Number     Number       Type             X           Y           Z
 ---------------------------------------------------------------------
      1          8           0       -3.292682   -1.331172   -2.964310
      2          8           0        3.386954    2.801970    3.151413
      3          8           0        3.485940    1.130940    4.689796
      4          8           0        7.654076   -1.710781   -0.749523
      5          8           0        6.452197   -2.927987   -2.313012
      6          8           0       -2.791470    1.730582    1.497074
      7          7           0       -0.357319   -2.485888    0.843128
      8          7           0       -2.675006   -1.236647   -0.733523
      9          7           0        1.077950    0.089487   -0.726003
     10          7           0       -0.963474    1.536720   -0.014189
     11          6           0       -3.377358   -1.400327    0.609606
     12          6           0       -2.631771   -2.341044    1.542296
     13          6           0       -1.190185   -2.070032    1.660028
     14          6           0       -0.605533   -1.319420    2.774444
     15          6           0        0.703923   -1.189204    2.390751
     16          6           0        0.892591   -1.866897    1.191392
     17          6           0       -4.712305   -1.924122    0.235666
     18          6           0        1.783202   -0.540441    3.155127
     19          6           0       -4.732815   -2.018756   -1.227453
     20          6           0        2.144764   -1.783309    0.319089
     21          6           0        2.047781   -0.821709   -0.672649
     22          6           0       -3.546238   -1.453344   -1.777320
     23          6           0        2.937974   -0.584208   -1.818238
     24          6           0       -1.245445   -0.734331    3.956606
     25          6           0       -5.854060   -2.189998    1.147528
     26          6           0        2.630713    0.635898   -2.412308
     27          6           0        2.086270    0.959737    2.752961
     28          6           0        1.329217    0.991891   -1.695180
     29          6           0        4.165487   -1.422334   -2.198904
     30          6           0       -5.829803   -2.383994   -2.102775
     31          6           0        5.410826   -1.096655   -1.342684
     32          6           0        3.160102    1.406521   -3.640352
     33          6           0        0.549199    2.194767   -1.859069
     34          6           0        3.060902    1.568811    3.597433
     35          6           0       -0.495197    2.487876   -1.014651
     36          6           0       -6.774109   -3.222936   -1.826173
     37          6           0        6.565948   -2.023673   -1.542945
     38          6           0       -1.513312    3.606378   -1.158713
     39          6           0       -2.333341    3.376945   -0.032256
     40          6           0       -2.005669    2.168340    0.568612
     41          6           0       -1.194783    4.774997   -2.053733
     42          6           0       -3.370443    4.387189    0.461773
     43          6           0       -1.873687    5.920266   -2.152358
     44          1           0       -3.439293   -0.513842    1.003634
     45          1           0       -2.692364   -3.347940    1.195023
     46          1           0       -2.965249   -2.498289    2.597569
     47          1           0       -0.540511   -2.926413   -0.034770
     48          1           0       -2.117638   -0.550193   -0.766121
     49          1           0        1.708387   -0.691314    4.183691
     50          1           0        2.687527   -1.164644    3.087867
     51          1           0        2.955983   -2.665670    0.376426
     52          1           0       -1.985203   -1.482664    4.475243
     53          1           0       -0.455216   -0.353836    4.770789
     54          1           0       -1.885852    0.136230    3.631586
     55          1           0       -5.848768   -1.575058    2.154035
     56          1           0       -5.933628   -3.461017    1.411700
     57          1           0       -6.814655   -1.977268    0.791506
     58          1           0        2.142464    1.011367    1.559806
     59          1           0        1.054195    1.375053    2.799528
     60          1           0        0.539393    0.485524   -0.028117
     61          1           0        4.504440   -1.414068   -3.309223
     62          1           0        3.917669   -2.443632   -2.166346
     63          1           0       -5.579286   -2.173618   -3.107177
     64          1           0        5.304698   -1.139255   -0.209957
     65          1           0        6.068089   -0.060452   -1.529964
     66          1           0        4.368850    0.990838   -3.788214
     67          1           0        3.099927    2.481176   -3.312995
     68          1           0        2.342813    0.775446   -4.315730
     69          1           0        1.006727    3.013769   -2.564233
     70          1           0       -6.976157   -3.636750   -1.029432
     71          1           0       -7.322437   -3.622817   -2.481575
     72          1           0        4.049920    3.169869    4.054829
     73          1           0       -0.391719    4.551242   -2.866193
     74          1           0       -4.288639    4.338887   -0.375792
     75          1           0       -3.805854    4.044131    1.406556
     76          1           0       -2.700722    5.333068    0.628480
     77          1           0        8.353777   -2.359059   -0.954276
     78          1           0       -1.547803    6.673863   -2.911362
     79          1           0       -2.646098    6.245913   -1.467492
 ---------------------------------------------------------------------

 SCF Done:  E(RB3LYP) =  -1947.71068798     A.U. after   22 cycles

 Excitation energies and oscillator strengths:

 Excited State   1:      Singlet-A      0.6309 eV 1965.09 nm  f=0.0011  <S**2>=0.000
     155 ->156         0.70446
 This state for optimization and/or second-order correction.
 Total Energy, E(TD-HF/TD-DFT) =  -1947.68750162
 Copying the excited state density for this state as the 1-particle RhoCI density.

 The electronic state is 1-A.
 Alpha  occ. eigenvalues --  -19.19743 -19.19045 -19.14162 -19.12397 -19.10144
 Alpha  occ. eigenvalues --  -19.07877 -14.38262 -14.37517 -14.31669 -14.30219
 Alpha  occ. eigenvalues --  -10.33156 -10.31848 -10.27892 -10.26159 -10.26080
 Alpha  occ. eigenvalues --  -10.25847 -10.25747 -10.25275 -10.24153 -10.24103
 Alpha  occ. eigenvalues --  -10.23570 -10.23435 -10.22714 -10.22170 -10.21948
 Alpha  occ. eigenvalues --  -10.21582 -10.21533 -10.21526 -10.21359 -10.20931
 Alpha  occ. eigenvalues --  -10.20862 -10.20532 -10.20214 -10.20032 -10.19828
 Alpha  occ. eigenvalues --  -10.18792 -10.18504 -10.18422 -10.17802 -10.17340
 Alpha  occ. eigenvalues --  -10.16344 -10.15609 -10.14547  -1.10388  -1.07466
 Alpha  occ. eigenvalues --   -1.02947  -1.02612  -1.00629  -0.99519  -0.98839
 Alpha  occ. eigenvalues --   -0.97852  -0.92018  -0.90964  -0.83980  -0.82609
 Alpha  occ. eigenvalues --   -0.81085  -0.80866  -0.79987  -0.78981  -0.78726
 Alpha  occ. eigenvalues --   -0.77100  -0.76710  -0.75605  -0.74974  -0.73248
 Alpha  occ. eigenvalues --   -0.71148  -0.70375  -0.70108  -0.69266  -0.67445
 Alpha  occ. eigenvalues --   -0.67329  -0.66019  -0.63478  -0.61965  -0.61343
 Alpha  occ. eigenvalues --   -0.60968  -0.59107  -0.57913  -0.57601  -0.56566
 Alpha  occ. eigenvalues --   -0.56227  -0.56072  -0.54797  -0.53996  -0.53709
 Alpha  occ. eigenvalues --   -0.51889  -0.50750  -0.50470  -0.50206  -0.49720
 Alpha  occ. eigenvalues --   -0.49454  -0.49219  -0.49136  -0.48346  -0.48066
 Alpha  occ. eigenvalues --   -0.47679  -0.47528  -0.46641  -0.46501  -0.46238
 Alpha  occ. eigenvalues --   -0.45731  -0.44994  -0.44037  -0.43841  -0.43616
 Alpha  occ. eigenvalues --   -0.43353  -0.42932  -0.42547  -0.42412  -0.42231
 Alpha  occ. eigenvalues --   -0.41586  -0.41111  -0.40881  -0.40734  -0.40238
 Alpha  occ. eigenvalues --   -0.40016  -0.39959  -0.39766  -0.39449  -0.39322
 Alpha  occ. eigenvalues --   -0.38865  -0.38652  -0.38338  -0.38221  -0.37873
 Alpha  occ. eigenvalues --   -0.37677  -0.37544  -0.37468  -0.36972  -0.36213
 Alpha  occ. eigenvalues --   -0.35777  -0.35559  -0.35137  -0.34966  -0.34370
 Alpha  occ. eigenvalues --   -0.34169  -0.33560  -0.32415  -0.31730  -0.31275
 Alpha  occ. eigenvalues --   -0.30965  -0.30352  -0.29312  -0.28246  -0.28106
 Alpha  occ. eigenvalues --   -0.28059  -0.27668  -0.25326  -0.24549  -0.24285
 Alpha  occ. eigenvalues --   -0.23671  -0.23213  -0.22384  -0.21797  -0.17888
 Alpha virt. eigenvalues --   -0.12996  -0.07659  -0.05384  -0.01860  -0.01315
 Alpha virt. eigenvalues --   -0.00567  -0.00058   0.00657   0.02316   0.02499
 Alpha virt. eigenvalues --    0.02872   0.03179   0.04224   0.04344   0.04539

 Mulliken charges:
               1
     1  O   -0.241335
     2  O   -0.267954
     3  O   -0.273792
     4  O   -0.213911
     5  O   -0.204766
     6  O   -0.295433
     7  N    0.075949
     8  N   -0.148078
     9  N    0.055744
    10  N   -0.332232
    11  C    0.226006
    12  C    0.252543
    13  C   -0.236430
    14  C   -0.087642
    15  C   -0.079496
    16  C   -0.096530
    17  C   -0.146369
    18  C    0.125369
    19  C   -0.084757
    20  C   -0.128765
    21  C    0.097968
    22  C    0.132537
    23  C   -0.060488
    24  C    0.016194
    25  C    0.018406
    26  C   -0.142410
    27  C   -0.050761
    28  C    0.025022
    29  C    0.135691
    30  C    0.027696
    31  C   -0.075481
    32  C   -0.022164
    33  C   -0.088669
    34  C    0.215145
    35  C    0.076746
    36  C    0.154832
    37  C    0.130535
    38  C    0.043068
    39  C   -0.170931
    40  C    0.176608
    41  C   -0.040202
    42  C    0.039892
    43  C   -0.030979
    44  H   -0.037119
    45  H   -0.056046
    46  H   -0.003054
    47  H    0.110881
    48  H    0.054392
    49  H   -0.018201
    50  H   -0.020136
    51  H    0.057392
    52  H    0.011808
    53  H    0.027617
    54  H    0.045552
    55  H    0.042485
    56  H    0.053705
    57  H    0.021055
    58  H    0.046933
    59  H    0.067167
    60  H    0.142691
    61  H    0.028877
    62  H    0.001089
    63  H   -0.014622
    64  H    0.056734
    65  H    0.061555
    66  H    0.073618
    67  H    0.074586
    68  H    0.114169
    69  H    0.025180
    70  H   -0.097792
    71  H   -0.052488
    72  H    0.249354
    73  H    0.024947
    74  H    0.067267
    75  H    0.029478
    76  H    0.058665
    77  H    0.187918
    78  H    0.031181
    79  H    0.026782
 Sum of Mulliken charges =  -0.00000

 Dipole moment (field-independent basis, Debye):
    X=              4.8167    Y=              1.6581    Z=             -1.4913  Tot=              5.3079
 Quadrupole moment (field-independent basis, Debye-Ang):
   XX=           -226.3712   YY=           -233.0023   ZZ=           -273.5148
   XY=              7.3471   XZ=            -21.7962   YZ=            -12.0737

 Normal termination of Gaussian 16 at Mon Jul 29 08:51:54 2019.
