 Gaussian 16, Revision A.03,
 Gaussian 16:  ES64L-G16RevA.03 25-Dec-2016

 --------------------------
 # td=(NStates=1) B3LYP/SVP
 --------------------------

 --
 TD
 --
 Symbolic Z-matrix:
 Charge =  0 Multiplicity = 1

                         Standard orientation:
 ---------------------------------------------------------------------
 Center     Atomic      Atomic             Coordinates (Angstroms)
 Number     Number       Type             X           Y           Z
 ---------------------------------------------------------------------
      1          8           0       -3.191285   -1.790187   -2.743021
      2          8           0        3.057848    3.455082    3.182264
      3          8           0        3.760344    1.713330    4.437357
      4          8           0        7.852993   -1.547622   -0.890445
      5          8           0        6.637477   -3.200680   -1.859986
      6          8           0       -2.606399    1.675028    1.326317
      7          7           0       -0.276028   -2.246488    1.100303
      8          7           0       -2.710673   -1.203444   -0.434346
      9          7           0        1.233382    0.034224   -0.625586
     10          7           0       -1.019003    1.413239   -0.333080
     11          6           0       -3.337243   -1.301342    0.771831
     12          6           0       -2.694862   -2.234483    1.908536
     13          6           0       -1.233730   -1.728951    1.952926
     14          6           0       -0.660213   -0.895521    2.913559
     15          6           0        0.734608   -0.963621    2.653865
     16          6           0        0.958531   -1.719832    1.421236
     17          6           0       -4.686193   -1.813531    0.316857
     18          6           0        1.766369   -0.053063    3.290326
     19          6           0       -4.771118   -1.987057   -0.974150
     20          6           0        2.087675   -1.816519    0.452622
     21          6           0        2.169700   -0.904518   -0.571675
     22          6           0       -3.521738   -1.820712   -1.576764
     23          6           0        3.064821   -0.828025   -1.737857
     24          6           0       -1.359820   -0.059342    3.862910
     25          6           0       -5.806856   -2.022641    1.361137
     26          6           0        2.625461    0.256116   -2.459462
     27          6           0        1.846432    1.404434    2.927296
     28          6           0        1.462603    0.870976   -1.814082
     29          6           0        4.237625   -1.649409   -1.825478
     30          6           0       -5.759736   -2.696249   -1.757441
     31          6           0        5.422468   -1.232357   -1.128482
     32          6           0        3.222644    0.827533   -3.748078
     33          6           0        0.551062    1.775027   -2.150753
     34          6           0        2.970687    2.192747    3.617482
     35          6           0       -0.627264    2.148309   -1.381936
     36          6           0       -7.007603   -3.234263   -1.382914
     37          6           0        6.733295   -2.157142   -1.353399
     38          6           0       -1.467016    3.363967   -1.660113
     39          6           0       -2.351805    3.223812   -0.612645
     40          6           0       -2.035661    1.987695    0.235219
     41          6           0       -1.356718    4.328568   -2.754004
     42          6           0       -3.552456    4.154446   -0.228402
     43          6           0       -1.968909    5.552522   -2.892202
     44          1           0       -3.505997   -0.203257    1.160247
     45          1           0       -2.800211   -3.345416    1.547984
     46          1           0       -3.258989   -2.257193    3.032405
     47          1           0       -0.496568   -2.699804    0.246841
     48          1           0       -1.809919   -0.588419   -0.576008
     49          1           0        1.612314   -0.205958    4.357926
     50          1           0        2.547614   -0.421950    3.197743
     51          1           0        2.726055   -2.734310    0.261413
     52          1           0       -1.952432   -0.817117    4.467605
     53          1           0       -0.652488    0.444749    4.598632
     54          1           0       -1.980807    0.516680    3.272452
     55          1           0       -5.758345   -1.190110    2.209170
     56          1           0       -5.857373   -3.099090    1.672366
     57          1           0       -6.639020   -1.839402    0.685966
     58          1           0        2.089865    1.345468    1.853794
     59          1           0        0.846937    1.876441    2.978508
     60          1           0        0.378011    0.255488   -0.138806
     61          1           0        4.565962   -1.694096   -3.012162
     62          1           0        4.110096   -2.797292   -1.555555
     63          1           0       -5.541645   -2.608680   -2.903427
     64          1           0        5.321151   -1.351808   -0.024754
     65          1           0        5.778551   -0.229451   -1.601698
     66          1           0        4.002810    0.214099   -4.150255
     67          1           0        3.436807    1.899138   -3.380590
     68          1           0        2.632875    0.931606   -4.564792
     69          1           0        0.785989    2.295166   -3.120200
     70          1           0       -7.387251   -3.385101   -0.221403
     71          1           0       -7.434601   -3.855220   -2.240746
     72          1           0        3.673615    3.938262    3.772081
     73          1           0       -0.789232    4.002929   -3.551653
     74          1           0       -4.096313    4.369459   -1.286119
     75          1           0       -4.340216    3.711823    0.414932
     76          1           0       -3.120532    5.178755    0.021533
     77          1           0        8.748245   -2.128399   -1.079184
     78          1           0       -1.907760    6.050983   -3.866963
     79          1           0       -2.539021    6.193259   -2.103996
 ---------------------------------------------------------------------

 SCF Done:  E(RB3LYP) =  -1947.79938762     A.U. after   17 cycles

 Excitation energies and oscillator strengths:

 Excited State   1:      Singlet-A      0.8627 eV 1437.15 nm  f=0.0044  <S**2>=0.000
     155 ->156         0.70427
 This state for optimization and/or second-order correction.
 Total Energy, E(TD-HF/TD-DFT) =  -1947.76768357
 Copying the excited state density for this state as the 1-particle RhoCI density.

 The electronic state is 1-A.
 Alpha  occ. eigenvalues --  -19.20075 -19.18287 -19.14256 -19.12337 -19.11811
 Alpha  occ. eigenvalues --  -19.10001 -14.36369 -14.36330 -14.31820 -14.31640
 Alpha  occ. eigenvalues --  -10.33074 -10.31746 -10.28471 -10.27264 -10.27110
 Alpha  occ. eigenvalues --  -10.26318 -10.24562 -10.23446 -10.22882 -10.22625
 Alpha  occ. eigenvalues --  -10.22370 -10.22170 -10.22041 -10.21999 -10.21967
 Alpha  occ. eigenvalues --  -10.21745 -10.21739 -10.21588 -10.21533 -10.21275
 Alpha  occ. eigenvalues --  -10.21256 -10.21034 -10.20433 -10.20179 -10.20102
 Alpha  occ. eigenvalues --  -10.20032 -10.19858 -10.19376 -10.17443 -10.17007
 Alpha  occ. eigenvalues --  -10.16633 -10.15999 -10.15203  -1.10690  -1.09161
 Alpha  occ. eigenvalues --   -1.02694  -1.02023  -1.01476  -0.98975  -0.98857
 Alpha  occ. eigenvalues --   -0.95892  -0.95253  -0.92081  -0.84692  -0.82975
 Alpha  occ. eigenvalues --   -0.81736  -0.80823  -0.80398  -0.79172  -0.77728
 Alpha  occ. eigenvalues --   -0.76032  -0.75563  -0.74514  -0.73652  -0.72516
 Alpha  occ. eigenvalues --   -0.71015  -0.70360  -0.69463  -0.68733  -0.67327
 Alpha  occ. eigenvalues --   -0.66510  -0.65473  -0.62589  -0.61835  -0.61035
 Alpha  occ. eigenvalues --   -0.60203  -0.59472  -0.58619  -0.57360  -0.56176
 Alpha  occ. eigenvalues --   -0.55780  -0.55417  -0.55001  -0.53831  -0.52596
 Alpha  occ. eigenvalues --   -0.51812  -0.50835  -0.50486  -0.49751  -0.49333
 Alpha  occ. eigenvalues --   -0.49037  -0.48785  -0.48427  -0.48241  -0.47536
 Alpha  occ. eigenvalues --   -0.47323  -0.46874  -0.46674  -0.45616  -0.45377
 Alpha  occ. eigenvalues --   -0.45219  -0.44825  -0.44728  -0.44496  -0.44130
 Alpha  occ. eigenvalues --   -0.43889  -0.43450  -0.43130  -0.42244  -0.41898
 Alpha  occ. eigenvalues --   -0.41739  -0.41535  -0.41083  -0.41053  -0.40876
 Alpha  occ. eigenvalues --   -0.40650  -0.39890  -0.39794  -0.39539  -0.38975
 Alpha  occ. eigenvalues --   -0.38955  -0.38571  -0.38252  -0.38074  -0.37702
 Alpha  occ. eigenvalues --   -0.37610  -0.37335  -0.37235  -0.36889  -0.36810
 Alpha  occ. eigenvalues --   -0.36115  -0.35804  -0.35559  -0.34807  -0.33990
 Alpha  occ. eigenvalues --   -0.33931  -0.33103  -0.32650  -0.31947  -0.31581
 Alpha  occ. eigenvalues --   -0.31415  -0.30266  -0.29777  -0.29257  -0.28763
 Alpha  occ. eigenvalues --   -0.27318  -0.27104  -0.26290  -0.25232  -0.24228
 Alpha  occ. eigenvalues --   -0.23300  -0.22727  -0.22288  -0.21729  -0.18677
 Alpha virt. eigenvalues --   -0.13072  -0.07386  -0.04852  -0.03207   0.00312
 Alpha virt. eigenvalues --    0.00461   0.00703   0.01107   0.01799   0.02476
 Alpha virt. eigenvalues --    0.03746   0.04649   0.04703   0.05315   0.05429

 Mulliken charges:
               1
     1  O   -0.219109
     2  O   -0.172424
     3  O   -0.250929
     4  O   -0.250192
     5  O   -0.162886
     6  O   -0.249844
     7  N   -0.036322
     8  N   -0.319249
     9  N   -0.108588
    10  N   -0.218040
    11  C    0.065126
    12  C    0.088973
    13  C   -0.094268
    14  C   -0.134013
    15  C   -0.173483
    16  C    0.003186
    17  C   -0.213497
    18  C    0.300950
    19  C   -0.000209
    20  C   -0.111283
    21  C    0.070814
    22  C    0.179545
    23  C    0.036112
    24  C    0.148469
    25  C    0.049640
    26  C   -0.126539
    27  C    0.016115
    28  C    0.120507
    29  C   -0.032760
    30  C   -0.063393
    31  C   -0.011622
    32  C    0.142049
    33  C   -0.111222
    34  C    0.137299
    35  C    0.089728
    36  C   -0.097618
    37  C    0.113624
    38  C    0.071650
    39  C   -0.216749
    40  C    0.169625
    41  C    0.020831
    42  C    0.028809
    43  C   -0.057747
    44  H    0.072165
    45  H    0.002430
    46  H    0.038857
    47  H    0.099628
    48  H    0.160860
    49  H   -0.018411
    50  H   -0.156479
    51  H    0.005937
    52  H    0.001530
    53  H    0.012624
    54  H    0.024266
    55  H    0.052375
    56  H    0.046183
    57  H    0.037952
    58  H    0.023335
    59  H    0.039894
    60  H    0.169765
    61  H    0.028052
    62  H    0.048454
    63  H    0.041214
    64  H    0.049504
    65  H    0.045409
    66  H    0.007033
    67  H    0.043906
    68  H    0.002092
    69  H   -0.008951
    70  H    0.053547
    71  H    0.041267
    72  H    0.185478
    73  H   -0.028802
    74  H    0.037135
    75  H    0.050556
    76  H    0.051440
    77  H    0.236782
    78  H    0.031189
    79  H    0.050718
 Sum of Mulliken charges =  -0.00000

 Dipole moment (field-independent basis, Debye):
    X=              3.7360    Y=              3.4072    Z=             -2.9213  Tot=              5.8396
 Quadrupole moment (field-independent basis, Debye-Ang):
   XX=           -228.4869   YY=           -236.8023   ZZ=           -262.0792
   XY=             -0.3920   XZ=            -25.2666   YZ=            -13.8377

 Normal termination of Gaussian 16 at Sat Jul 27 17:50:27 2019.
