 Gaussian 16, Revision A.03,
 Gaussian 16:  ES64L-G16RevA.03 25-Dec-2016

 --------------------------
 # td=(NStates=1) B3LYP/SVP
 --------------------------

 --
 TD
 --
 Symbolic Z-matrix:
 Charge =  0 Multiplicity = 1

                         Standard orientation:
 ---------------------------------------------------------------------
 Center     Atomic      Atomic             Coordinates (Angstroms)
 Number     Number       Type             X           Y           Z
 ---------------------------------------------------------------------
      1          8           0        5.288074   -0.302657   -3.265263
      2          8           0       -2.913204   -2.679062    3.172292
      3          8           0       -3.320286   -0.525166    2.909758
      4          8           0       -1.732899    7.051343    1.339998
      5          8           0       -0.823814    6.985068   -0.736173
      6          8           0       -1.555517   -3.977482    0.117865
      7          7           0        2.251146    1.069881    0.425752
      8          7           0        4.345737   -0.551243   -1.234901
      9          7           0       -1.833411    0.653753   -0.512075
     10          7           0       -2.542431   -1.973428   -0.401015
     11          6           0        4.757342   -1.006636    0.061620
     12          6           0        4.405939   -0.025710    1.297067
     13          6           0        2.948217    0.147022    1.329032
     14          6           0        1.983771   -0.423106    2.183134
     15          6           0        0.628563    0.073189    1.737815
     16          6           0        1.001944    1.008424    0.762160
     17          6           0        6.261306   -1.289415   -0.115635
     18          6           0       -0.552955    0.031015    2.573011
     19          6           0        6.627306   -0.891479   -1.293995
     20          6           0        0.128880    1.992521    0.049053
     21          6           0       -1.221494    1.857585   -0.454992
     22          6           0        5.417197   -0.587965   -2.088690
     23          6           0       -2.107649    2.877290   -0.929943
     24          6           0        2.292769   -1.519901    3.211914
     25          6           0        7.079791   -1.769594    0.964681
     26          6           0       -3.217923    2.161096   -1.355091
     27          6           0       -1.056564   -1.360004    2.760019
     28          6           0       -3.128371    0.830848   -1.017770
     29          6           0       -1.754843    4.356383   -1.057478
     30          6           0        7.948807   -0.791617   -2.003342
     31          6           0       -1.907835    5.019449    0.259608
     32          6           0       -4.431132    2.780414   -1.911927
     33          6           0       -4.042942   -0.266176   -1.260424
     34          6           0       -2.551259   -1.387946    2.999313
     35          6           0       -3.671199   -1.678961   -0.967347
     36          6           0        9.181325   -0.781609   -1.487135
     37          6           0       -1.464562    6.446274    0.152598
     38          6           0       -4.426793   -2.810408   -1.424120
     39          6           0       -3.704599   -3.936938   -0.945074
     40          6           0       -2.452182   -3.361281   -0.328798
     41          6           0       -5.715825   -2.825416   -2.033257
     42          6           0       -4.072329   -5.359489   -0.880446
     43          6           0       -6.475429   -3.848168   -2.490443
     44          1           0        3.949282   -1.996667    0.080185
     45          1           0        4.896923    0.943004    1.073552
     46          1           0        4.681559   -0.426167    2.255524
     47          1           0        2.633466    1.565150   -0.279288
     48          1           0        3.439621   -0.476444   -1.541614
     49          1           0       -0.060539    0.417966    3.487504
     50          1           0       -1.278970    0.792158    2.143934
     51          1           0        0.602398    2.992510   -0.291349
     52          1           0        3.401547   -1.424822    3.278381
     53          1           0        1.618345   -1.350759    4.102454
     54          1           0        2.111953   -2.351270    2.743486
     55          1           0        6.572345   -2.366010    1.750572
     56          1           0        7.571851   -1.006879    1.607807
     57          1           0        7.934858   -2.285358    0.571280
     58          1           0       -0.817116   -2.070470    2.014485
     59          1           0       -0.369574   -2.106473    3.497754
     60          1           0       -1.429276   -0.435420    0.001250
     61          1           0       -2.390674    4.818447   -1.863423
     62          1           0       -0.603401    4.412685   -1.520685
     63          1           0        7.714713   -0.839155   -3.096668
     64          1           0       -1.226233    4.549390    1.147325
     65          1           0       -3.015526    5.229284    0.561192
     66          1           0       -3.961044    3.756633   -2.189234
     67          1           0       -5.363433    2.945554   -1.137543
     68          1           0       -4.916713    2.386536   -2.771657
     69          1           0       -4.931371    0.031683   -1.704672
     70          1           0        9.379269   -0.818605   -0.459799
     71          1           0       10.194616   -0.999946   -2.178532
     72          1           0       -3.779379   -2.725313    3.357088
     73          1           0       -6.138886   -1.793289   -2.212166
     74          1           0       -4.771833   -5.468955   -0.128553
     75          1           0       -4.402163   -5.868781   -1.783518
     76          1           0       -3.257994   -5.975787   -0.413905
     77          1           0       -1.465215    8.008651    1.302188
     78          1           0       -7.475517   -3.796381   -3.144107
     79          1           0       -6.377648   -5.033927   -2.282101
 ---------------------------------------------------------------------

 SCF Done:  E(RB3LYP) =  -1947.82618480     A.U. after   18 cycles

 Excitation energies and oscillator strengths:

 Excited State   1:      Singlet-A      1.9092 eV  649.41 nm  f=0.4115  <S**2>=0.000
     154 ->156         0.10999
     155 ->156         0.69659
     155 <-156        -0.13570
 This state for optimization and/or second-order correction.
 Total Energy, E(TD-HF/TD-DFT) =  -1947.75602319
 Copying the excited state density for this state as the 1-particle RhoCI density.

 The electronic state is 1-A.
 Alpha  occ. eigenvalues --  -19.18656 -19.15646 -19.13430 -19.12206 -19.10656
 Alpha  occ. eigenvalues --  -19.09347 -14.37769 -14.35789 -14.34682 -14.28785
 Alpha  occ. eigenvalues --  -10.32495 -10.30728 -10.27857 -10.26389 -10.26105
 Alpha  occ. eigenvalues --  -10.23771 -10.23568 -10.23396 -10.23313 -10.23104
 Alpha  occ. eigenvalues --  -10.22958 -10.22713 -10.22447 -10.22332 -10.21734
 Alpha  occ. eigenvalues --  -10.21117 -10.20915 -10.20835 -10.20735 -10.20565
 Alpha  occ. eigenvalues --  -10.20550 -10.20188 -10.20102 -10.20036 -10.19926
 Alpha  occ. eigenvalues --  -10.19891 -10.19787 -10.19667 -10.19638 -10.19529
 Alpha  occ. eigenvalues --  -10.19272 -10.19271 -10.18032  -1.10597  -1.09457
 Alpha  occ. eigenvalues --   -1.03859  -1.02710  -1.02055  -1.00602  -0.99326
 Alpha  occ. eigenvalues --   -0.97227  -0.94582  -0.93277  -0.83732  -0.82739
 Alpha  occ. eigenvalues --   -0.82508  -0.81166  -0.80188  -0.79804  -0.77382
 Alpha  occ. eigenvalues --   -0.77225  -0.76342  -0.75303  -0.73879  -0.73063
 Alpha  occ. eigenvalues --   -0.72561  -0.71330  -0.69682  -0.69293  -0.68223
 Alpha  occ. eigenvalues --   -0.67633  -0.65760  -0.63577  -0.61597  -0.60930
 Alpha  occ. eigenvalues --   -0.60266  -0.59611  -0.58896  -0.58191  -0.56903
 Alpha  occ. eigenvalues --   -0.55628  -0.55370  -0.54647  -0.53697  -0.52555
 Alpha  occ. eigenvalues --   -0.52466  -0.52077  -0.50820  -0.50425  -0.50136
 Alpha  occ. eigenvalues --   -0.49354  -0.48433  -0.48304  -0.47623  -0.47513
 Alpha  occ. eigenvalues --   -0.47231  -0.46767  -0.46337  -0.45785  -0.45611
 Alpha  occ. eigenvalues --   -0.45160  -0.44742  -0.44491  -0.44117  -0.43834
 Alpha  occ. eigenvalues --   -0.43602  -0.43381  -0.42983  -0.42740  -0.42488
 Alpha  occ. eigenvalues --   -0.42193  -0.41996  -0.41695  -0.41590  -0.41381
 Alpha  occ. eigenvalues --   -0.41205  -0.41113  -0.40776  -0.40526  -0.40343
 Alpha  occ. eigenvalues --   -0.39662  -0.39453  -0.39225  -0.38918  -0.38611
 Alpha  occ. eigenvalues --   -0.38397  -0.38176  -0.37854  -0.37376  -0.37076
 Alpha  occ. eigenvalues --   -0.36894  -0.35619  -0.35313  -0.34823  -0.34390
 Alpha  occ. eigenvalues --   -0.33660  -0.32924  -0.32867  -0.32236  -0.31788
 Alpha  occ. eigenvalues --   -0.31629  -0.30166  -0.28777  -0.28207  -0.28201
 Alpha  occ. eigenvalues --   -0.27835  -0.25960  -0.25339  -0.25152  -0.25036
 Alpha  occ. eigenvalues --   -0.24406  -0.23982  -0.23100  -0.21645  -0.18431
 Alpha virt. eigenvalues --   -0.11138  -0.06987  -0.05615  -0.00963  -0.00301
 Alpha virt. eigenvalues --    0.00954   0.01156   0.01508   0.02279   0.03200
 Alpha virt. eigenvalues --    0.03866   0.04489   0.04573   0.04920   0.05767

 Mulliken charges:
               1
     1  O   -0.226323
     2  O   -0.138221
     3  O   -0.159459
     4  O   -0.209131
     5  O   -0.229517
     6  O   -0.148676
     7  N   -0.010316
     8  N   -0.147692
     9  N   -0.192827
    10  N   -0.247186
    11  C   -0.007159
    12  C    0.258697
    13  C   -0.102482
    14  C   -0.216882
    15  C   -0.155429
    16  C    0.047263
    17  C   -0.143337
    18  C    0.137990
    19  C   -0.054878
    20  C   -0.119557
    21  C    0.040853
    22  C    0.122171
    23  C   -0.042522
    24  C    0.194938
    25  C    0.081744
    26  C   -0.126240
    27  C   -0.077633
    28  C    0.119177
    29  C    0.026912
    30  C    0.030492
    31  C   -0.035971
    32  C    0.057640
    33  C   -0.063394
    34  C    0.124927
    35  C    0.098432
    36  C   -0.058424
    37  C    0.126996
    38  C    0.039607
    39  C   -0.220918
    40  C    0.127911
    41  C    0.008703
    42  C    0.133145
    43  C   -0.140183
    44  H    0.042892
    45  H   -0.000243
    46  H   -0.006590
    47  H    0.075206
    48  H    0.098802
    49  H    0.025451
    50  H    0.046916
    51  H    0.004245
    52  H   -0.005198
    53  H    0.040222
    54  H   -0.006905
    55  H    0.016247
    56  H    0.029540
    57  H    0.022786
    58  H    0.032121
    59  H    0.036181
    60  H    0.263137
    61  H    0.029381
    62  H    0.062892
    63  H    0.030296
    64  H    0.091596
    65  H    0.063086
    66  H   -0.000827
    67  H    0.048678
    68  H    0.015920
    69  H   -0.065829
    70  H    0.001349
    71  H    0.058042
    72  H    0.120543
    73  H    0.004081
    74  H    0.000621
    75  H    0.034341
    76  H    0.009607
    77  H    0.192728
    78  H    0.044297
    79  H    0.041146
 Sum of Mulliken charges =  -0.00000

 Dipole moment (field-independent basis, Debye):
    X=              0.3369    Y=              1.8576    Z=              4.5613  Tot=              4.9366
 Quadrupole moment (field-independent basis, Debye-Ang):
   XX=           -221.9088   YY=           -242.8478   ZZ=           -263.3985
   XY=             -7.0366   XZ=             30.9756   YZ=              3.2879

 Normal termination of Gaussian 16 at Fri Sep 13 07:36:10 2019.
