 Gaussian 16, Revision A.03,
 Gaussian 16:  ES64L-G16RevA.03 25-Dec-2016

 --------------------------
 # td=(NStates=1) B3LYP/SVP
 --------------------------

 --
 TD
 --
 Symbolic Z-matrix:
 Charge =  0 Multiplicity = 1

                         Standard orientation:
 ---------------------------------------------------------------------
 Center     Atomic      Atomic             Coordinates (Angstroms)
 Number     Number       Type             X           Y           Z
 ---------------------------------------------------------------------
      1          8           0        5.552872   -0.017275   -3.348918
      2          8           0       -2.818131   -3.143023    3.391976
      3          8           0       -3.369663   -0.950543    2.952713
      4          8           0       -1.663478    7.158442    1.549532
      5          8           0       -0.747150    7.179073   -0.572365
      6          8           0       -1.674255   -4.034554   -0.089575
      7          7           0        2.360652    0.889269    0.580872
      8          7           0        4.496186   -0.350664   -1.272965
      9          7           0       -1.850418    0.711572   -0.387800
     10          7           0       -2.543530   -1.865085   -0.556110
     11          6           0        4.781377   -1.133053   -0.033759
     12          6           0        4.395593   -0.300591    1.314292
     13          6           0        2.932089    0.083518    1.340591
     14          6           0        1.948459   -0.546107    2.200819
     15          6           0        0.715845    0.063469    1.938497
     16          6           0        0.950152    0.915947    0.820277
     17          6           0        6.280281   -1.357184   -0.153007
     18          6           0       -0.620632   -0.212188    2.579204
     19          6           0        6.683966   -0.948367   -1.380579
     20          6           0        0.150555    1.944917    0.217296
     21          6           0       -1.133413    1.878175   -0.338107
     22          6           0        5.528371   -0.266693   -2.163350
     23          6           0       -2.015927    2.960578   -0.880143
     24          6           0        2.237395   -1.831646    3.013158
     25          6           0        7.015259   -2.105384    0.905611
     26          6           0       -3.203116    2.306871   -1.273785
     27          6           0       -1.093143   -1.727661    2.729604
     28          6           0       -3.108473    1.001180   -0.972829
     29          6           0       -1.628444    4.431925   -0.859521
     30          6           0        7.991687   -0.902641   -2.061606
     31          6           0       -1.730794    5.040735    0.485283
     32          6           0       -4.428154    3.017175   -1.771961
     33          6           0       -3.986104   -0.066207   -1.288228
     34          6           0       -2.519770   -1.869538    3.005651
     35          6           0       -3.754444   -1.511057   -1.136004
     36          6           0        9.160042   -0.646032   -1.474307
     37          6           0       -1.223890    6.594450    0.415766
     38          6           0       -4.565428   -2.627849   -1.460364
     39          6           0       -3.888125   -3.763264   -1.155780
     40          6           0       -2.616347   -3.330470   -0.498940
     41          6           0       -5.918240   -2.522284   -2.140044
     42          6           0       -4.282977   -5.169638   -1.181393
     43          6           0       -6.774073   -3.409674   -2.683336
     44          1           0        3.972417   -1.995719   -0.253718
     45          1           0        4.898292    0.759421    1.406508
     46          1           0        4.777899   -0.844822    2.259516
     47          1           0        2.563463    1.484765   -0.225776
     48          1           0        3.604767   -0.495695   -1.642662
     49          1           0       -0.572085    0.091333    3.582098
     50          1           0       -1.533763    0.552406    2.005621
     51          1           0        0.657040    2.892345    0.112260
     52          1           0        3.258395   -2.002153    3.094587
     53          1           0        1.889810   -1.972135    4.145839
     54          1           0        1.880338   -2.711752    2.579502
     55          1           0        6.298251   -2.650339    1.533409
     56          1           0        7.316115   -1.122653    1.443420
     57          1           0        7.902774   -2.680866    0.395766
     58          1           0       -0.903575   -2.279206    1.656691
     59          1           0       -0.613054   -2.204551    3.681645
     60          1           0       -1.415208   -0.177542   -0.417689
     61          1           0       -2.035006    4.963708   -1.703865
     62          1           0       -0.422468    4.548128   -1.183055
     63          1           0        7.954387   -0.982577   -3.075106
     64          1           0       -1.121150    4.743498    1.403374
     65          1           0       -2.830530    5.027657    0.987077
     66          1           0       -4.475059    4.176162   -1.890689
     67          1           0       -5.376289    2.730469   -1.205859
     68          1           0       -4.545925    2.667185   -2.970070
     69          1           0       -4.787313    0.178610   -1.987808
     70          1           0        9.102082   -0.479048   -0.305660
     71          1           0       10.274336   -0.485091   -1.892716
     72          1           0       -3.846718   -3.091342    3.272109
     73          1           0       -6.302752   -1.492784   -2.220179
     74          1           0       -5.223443   -5.503254   -0.875410
     75          1           0       -4.056799   -5.421124   -2.322816
     76          1           0       -3.381091   -5.750826   -0.628578
     77          1           0       -1.595350    8.075664    1.192383
     78          1           0       -7.794413   -3.152572   -3.277431
     79          1           0       -6.677625   -4.576363   -2.641638
 ---------------------------------------------------------------------

 SCF Done:  E(RB3LYP) =  -1947.82184499     A.U. after   18 cycles

 Excitation energies and oscillator strengths:

 Excited State   1:      Singlet-A      1.8423 eV  673.00 nm  f=0.3851  <S**2>=0.000
     153 ->156         0.11277
     155 ->156         0.69548
     155 <-156        -0.14099
 This state for optimization and/or second-order correction.
 Total Energy, E(TD-HF/TD-DFT) =  -1947.75414351
 Copying the excited state density for this state as the 1-particle RhoCI density.

 The electronic state is 1-A.
 Alpha  occ. eigenvalues --  -19.20729 -19.17366 -19.15026 -19.11065 -19.11043
 Alpha  occ. eigenvalues --  -19.10876 -14.39763 -14.35689 -14.35601 -14.28700
 Alpha  occ. eigenvalues --  -10.34058 -10.30375 -10.29117 -10.27312 -10.26581
 Alpha  occ. eigenvalues --  -10.24162 -10.24133 -10.24073 -10.24017 -10.23438
 Alpha  occ. eigenvalues --  -10.23176 -10.22659 -10.22642 -10.22586 -10.22436
 Alpha  occ. eigenvalues --  -10.22411 -10.22395 -10.21814 -10.21196 -10.21160
 Alpha  occ. eigenvalues --  -10.21066 -10.20840 -10.20441 -10.20360 -10.20337
 Alpha  occ. eigenvalues --  -10.20003 -10.19912 -10.19783 -10.19710 -10.19592
 Alpha  occ. eigenvalues --  -10.19564 -10.19238 -10.19188  -1.11886  -1.06851
 Alpha  occ. eigenvalues --   -1.03319  -1.01656  -1.01559  -1.00034  -0.97742
 Alpha  occ. eigenvalues --   -0.96999  -0.94876  -0.90278  -0.82746  -0.82697
 Alpha  occ. eigenvalues --   -0.81754  -0.80784  -0.79660  -0.79339  -0.77681
 Alpha  occ. eigenvalues --   -0.76597  -0.75748  -0.75402  -0.74033  -0.71571
 Alpha  occ. eigenvalues --   -0.71307  -0.70866  -0.69716  -0.69384  -0.68251
 Alpha  occ. eigenvalues --   -0.66835  -0.66082  -0.64086  -0.60927  -0.60403
 Alpha  occ. eigenvalues --   -0.59445  -0.58740  -0.58046  -0.57161  -0.56421
 Alpha  occ. eigenvalues --   -0.56081  -0.55785  -0.54387  -0.53199  -0.52968
 Alpha  occ. eigenvalues --   -0.51647  -0.51322  -0.51078  -0.50111  -0.49732
 Alpha  occ. eigenvalues --   -0.48975  -0.48444  -0.48158  -0.47602  -0.47183
 Alpha  occ. eigenvalues --   -0.46750  -0.46581  -0.46504  -0.45861  -0.45421
 Alpha  occ. eigenvalues --   -0.45151  -0.44634  -0.44549  -0.44267  -0.43654
 Alpha  occ. eigenvalues --   -0.43366  -0.43192  -0.43117  -0.42988  -0.42813
 Alpha  occ. eigenvalues --   -0.42567  -0.42408  -0.41618  -0.41245  -0.40763
 Alpha  occ. eigenvalues --   -0.40625  -0.40354  -0.40167  -0.39939  -0.39736
 Alpha  occ. eigenvalues --   -0.39472  -0.38940  -0.38684  -0.38053  -0.37974
 Alpha  occ. eigenvalues --   -0.37551  -0.37442  -0.37170  -0.36793  -0.36683
 Alpha  occ. eigenvalues --   -0.36250  -0.35852  -0.34586  -0.34335  -0.34185
 Alpha  occ. eigenvalues --   -0.33825  -0.33231  -0.33001  -0.31670  -0.31046
 Alpha  occ. eigenvalues --   -0.30695  -0.30156  -0.29580  -0.28339  -0.27531
 Alpha  occ. eigenvalues --   -0.27520  -0.26092  -0.26026  -0.25782  -0.25357
 Alpha  occ. eigenvalues --   -0.24682  -0.23939  -0.23311  -0.21793  -0.18487
 Alpha virt. eigenvalues --   -0.11427  -0.06888  -0.05048  -0.02295  -0.00364
 Alpha virt. eigenvalues --    0.00605   0.00796   0.00939   0.02632   0.02757
 Alpha virt. eigenvalues --    0.03279   0.03574   0.04214   0.04413   0.04946

 Mulliken charges:
               1
     1  O   -0.211216
     2  O   -0.219917
     3  O   -0.273820
     4  O   -0.155374
     5  O   -0.253421
     6  O   -0.227611
     7  N    0.028486
     8  N   -0.186440
     9  N   -0.060798
    10  N   -0.339453
    11  C    0.034485
    12  C    0.107326
    13  C   -0.115460
    14  C   -0.140855
    15  C   -0.014121
    16  C   -0.023828
    17  C   -0.162773
    18  C    0.040110
    19  C   -0.088127
    20  C   -0.101199
    21  C    0.052756
    22  C    0.158648
    23  C   -0.050366
    24  C    0.114818
    25  C    0.066007
    26  C   -0.072779
    27  C   -0.064547
    28  C    0.131854
    29  C    0.075032
    30  C    0.050090
    31  C   -0.080404
    32  C   -0.017472
    33  C   -0.080664
    34  C    0.152877
    35  C    0.063715
    36  C   -0.094502
    37  C    0.157843
    38  C    0.084324
    39  C   -0.204095
    40  C    0.175636
    41  C    0.014090
    42  C    0.045443
    43  C   -0.127188
    44  H    0.064684
    45  H    0.026283
    46  H    0.035415
    47  H    0.127962
    48  H    0.104449
    49  H   -0.011140
    50  H    0.080303
    51  H   -0.022487
    52  H   -0.046562
    53  H    0.020259
    54  H    0.016897
    55  H    0.032541
    56  H    0.058976
    57  H    0.073441
    58  H    0.119922
    59  H    0.049803
    60  H    0.134114
    61  H    0.020736
    62  H    0.040202
    63  H   -0.020746
    64  H    0.057863
    65  H    0.065423
    66  H    0.039860
    67  H    0.053283
    68  H    0.044096
    69  H   -0.023483
    70  H    0.023102
    71  H    0.061763
    72  H    0.202623
    73  H   -0.000789
    74  H    0.033008
    75  H    0.044169
    76  H    0.049550
    77  H    0.173616
    78  H    0.050626
    79  H    0.033125
 Sum of Mulliken charges =  -0.00000

 Dipole moment (field-independent basis, Debye):
    X=              0.6012    Y=              2.5524    Z=              2.3554  Tot=              3.5248
 Quadrupole moment (field-independent basis, Debye-Ang):
   XX=           -226.0243   YY=           -243.6790   ZZ=           -267.0761
   XY=            -12.2770   XZ=             32.7695   YZ=              6.0172

 Normal termination of Gaussian 16 at Sun Sep 15 15:25:12 2019.
