 Gaussian 16, Revision A.03,
 Gaussian 16:  ES64L-G16RevA.03 25-Dec-2016

 --------------------------
 # td=(NStates=1) B3LYP/SVP
 --------------------------

 --
 TD
 --
 Symbolic Z-matrix:
 Charge =  0 Multiplicity = 1

                         Standard orientation:
 ---------------------------------------------------------------------
 Center     Atomic      Atomic             Coordinates (Angstroms)
 Number     Number       Type             X           Y           Z
 ---------------------------------------------------------------------
      1          8           0        5.175484   -0.101325   -3.312261
      2          8           0       -3.085332   -2.873792    3.348239
      3          8           0       -3.270919   -0.578090    3.058703
      4          8           0       -1.767236    7.076092    1.468719
      5          8           0       -1.083859    7.116608   -0.769544
      6          8           0       -1.567350   -4.026338    0.216917
      7          7           0        2.340356    1.092647    0.609469
      8          7           0        4.290140   -0.543947   -1.245162
      9          7           0       -1.763180    0.622519   -0.478916
     10          7           0       -2.461289   -1.934693   -0.496854
     11          6           0        4.726054   -1.093690   -0.000384
     12          6           0        4.352472   -0.182345    1.241668
     13          6           0        2.907667    0.098978    1.418217
     14          6           0        1.992609   -0.466745    2.201214
     15          6           0        0.793638    0.228652    1.936281
     16          6           0        0.976252    1.133616    0.867402
     17          6           0        6.289840   -1.270824   -0.133619
     18          6           0       -0.607208   -0.088020    2.527381
     19          6           0        6.570645   -0.750714   -1.348619
     20          6           0        0.094000    1.996091    0.167339
     21          6           0       -1.138699    1.763575   -0.366052
     22          6           0        5.373323   -0.382547   -2.206344
     23          6           0       -2.005818    2.825918   -1.039118
     24          6           0        2.204203   -1.539584    3.297275
     25          6           0        7.099837   -1.768260    0.934359
     26          6           0       -3.164860    2.160118   -1.427829
     27          6           0       -1.204916   -1.517056    2.578804
     28          6           0       -3.052538    0.805117   -0.998731
     29          6           0       -1.577517    4.273791   -1.019860
     30          6           0        7.816098   -0.763600   -2.072532
     31          6           0       -1.867469    4.979388    0.334634
     32          6           0       -4.279987    2.924341   -2.173091
     33          6           0       -3.912570   -0.225852   -1.236747
     34          6           0       -2.638356   -1.534095    3.060794
     35          6           0       -3.626234   -1.630455   -1.118947
     36          6           0        9.041693   -0.857140   -1.526213
     37          6           0       -1.539924    6.509974    0.279066
     38          6           0       -4.465958   -2.750935   -1.423721
     39          6           0       -3.670910   -3.875683   -1.059752
     40          6           0       -2.410555   -3.400286   -0.451484
     41          6           0       -5.722507   -2.671035   -2.119028
     42          6           0       -3.947911   -5.404743   -1.026620
     43          6           0       -6.396287   -3.843888   -2.654246
     44          1           0        4.540569   -2.084137    0.071964
     45          1           0        4.862640    0.732959    1.121767
     46          1           0        4.685022   -0.815397    1.910388
     47          1           0        2.920890    1.778687    0.080696
     48          1           0        3.334135   -0.394580   -1.481122
     49          1           0       -0.416511    0.268768    3.801224
     50          1           0       -1.303939    0.592024    2.232303
     51          1           0        0.659676    2.823733   -0.003151
     52          1           0        3.233784   -1.601347    3.715739
     53          1           0        1.571440   -1.092786    4.201407
     54          1           0        2.117540   -2.757656    3.079736
     55          1           0        6.464347   -2.284197    1.699759
     56          1           0        7.612024   -1.178699    1.784213
     57          1           0        7.973458   -2.519246    0.533539
     58          1           0       -0.966950   -1.834768    1.466203
     59          1           0       -0.371910   -2.166851    3.247179
     60          1           0       -1.637342   -0.315459   -0.131724
     61          1           0       -2.148560    4.994753   -1.679372
     62          1           0       -0.654437    4.368957   -1.389805
     63          1           0        7.898283   -0.407138   -3.219194
     64          1           0       -1.259679    4.596136    1.041044
     65          1           0       -2.915967    5.121223    0.716803
     66          1           0       -4.220939    4.118685   -1.816995
     67          1           0       -5.211455    2.511106   -1.663395
     68          1           0       -4.366252    2.617486   -3.279254
     69          1           0       -4.768976   -0.003294   -1.849773
     70          1           0        9.073460   -1.069698   -0.395808
     71          1           0       10.034099   -0.866844   -2.066145
     72          1           0       -3.968784   -2.787784    3.759932
     73          1           0       -6.257497   -1.860670   -2.206468
     74          1           0       -5.019208   -5.503093   -0.722224
     75          1           0       -3.698681   -6.185058   -1.939768
     76          1           0       -3.305371   -5.714783   -0.025469
     77          1           0       -1.313900    7.958342    1.726261
     78          1           0       -7.419123   -3.782163   -3.074894
     79          1           0       -5.853029   -4.910477   -2.700521
 ---------------------------------------------------------------------

 SCF Done:  E(RB3LYP) =  -1947.77111137     A.U. after   17 cycles

 Excitation energies and oscillator strengths:

 Excited State   1:      Singlet-A      1.7462 eV  710.04 nm  f=0.3368  <S**2>=0.000
     154 ->156         0.15981
     155 ->156         0.68725
     155 <-156        -0.12318
 This state for optimization and/or second-order correction.
 Total Energy, E(TD-HF/TD-DFT) =  -1947.70694139
 Copying the excited state density for this state as the 1-particle RhoCI density.

 The electronic state is 1-A.
 Alpha  occ. eigenvalues --  -19.20331 -19.15691 -19.13124 -19.12997 -19.11217
 Alpha  occ. eigenvalues --  -19.11169 -14.37932 -14.36045 -14.33299 -14.29023
 Alpha  occ. eigenvalues --  -10.33751 -10.31053 -10.28683 -10.26819 -10.24379
 Alpha  occ. eigenvalues --  -10.24116 -10.23414 -10.23181 -10.22735 -10.22509
 Alpha  occ. eigenvalues --  -10.22345 -10.22173 -10.22047 -10.21997 -10.21732
 Alpha  occ. eigenvalues --  -10.21614 -10.21574 -10.21138 -10.21091 -10.21059
 Alpha  occ. eigenvalues --  -10.21043 -10.20912 -10.20501 -10.20407 -10.20288
 Alpha  occ. eigenvalues --  -10.20176 -10.19906 -10.19892 -10.19851 -10.19797
 Alpha  occ. eigenvalues --  -10.19089 -10.19068 -10.18669  -1.09053  -1.08925
 Alpha  occ. eigenvalues --   -1.05762  -1.00213  -0.99798  -0.99289  -0.97814
 Alpha  occ. eigenvalues --   -0.97777  -0.92851  -0.91134  -0.82348  -0.82331
 Alpha  occ. eigenvalues --   -0.82037  -0.80563  -0.79750  -0.79448  -0.77884
 Alpha  occ. eigenvalues --   -0.77143  -0.75613  -0.74965  -0.73657  -0.71606
 Alpha  occ. eigenvalues --   -0.71463  -0.70182  -0.69311  -0.68761  -0.68115
 Alpha  occ. eigenvalues --   -0.66160  -0.65573  -0.63717  -0.62366  -0.61110
 Alpha  occ. eigenvalues --   -0.59487  -0.59177  -0.58893  -0.57644  -0.57239
 Alpha  occ. eigenvalues --   -0.56346  -0.55878  -0.54882  -0.53834  -0.52808
 Alpha  occ. eigenvalues --   -0.51580  -0.51460  -0.50756  -0.50265  -0.49761
 Alpha  occ. eigenvalues --   -0.49226  -0.48717  -0.48014  -0.47778  -0.47649
 Alpha  occ. eigenvalues --   -0.47235  -0.46777  -0.46395  -0.46248  -0.45495
 Alpha  occ. eigenvalues --   -0.45124  -0.44773  -0.44685  -0.44327  -0.43535
 Alpha  occ. eigenvalues --   -0.43037  -0.42698  -0.42566  -0.42183  -0.41970
 Alpha  occ. eigenvalues --   -0.41799  -0.41682  -0.41543  -0.41235  -0.40759
 Alpha  occ. eigenvalues --   -0.40717  -0.40235  -0.39502  -0.39359  -0.39324
 Alpha  occ. eigenvalues --   -0.39171  -0.38906  -0.38550  -0.38456  -0.38052
 Alpha  occ. eigenvalues --   -0.37799  -0.37205  -0.36842  -0.36295  -0.36143
 Alpha  occ. eigenvalues --   -0.35946  -0.35636  -0.34616  -0.34344  -0.33982
 Alpha  occ. eigenvalues --   -0.33525  -0.32236  -0.32062  -0.32044  -0.31630
 Alpha  occ. eigenvalues --   -0.30997  -0.30345  -0.28234  -0.28033  -0.27906
 Alpha  occ. eigenvalues --   -0.27784  -0.26796  -0.26093  -0.25557  -0.24532
 Alpha  occ. eigenvalues --   -0.24067  -0.23911  -0.23406  -0.21600  -0.18625
 Alpha virt. eigenvalues --   -0.11718  -0.07073  -0.05983  -0.01984  -0.01838
 Alpha virt. eigenvalues --    0.00993   0.01216   0.01800   0.01927   0.02720
 Alpha virt. eigenvalues --    0.03175   0.04148   0.04566   0.05297   0.05411

 Mulliken charges:
               1
     1  O   -0.131089
     2  O   -0.253766
     3  O   -0.141687
     4  O   -0.215953
     5  O   -0.296913
     6  O   -0.213385
     7  N   -0.122579
     8  N   -0.253813
     9  N   -0.002143
    10  N   -0.348763
    11  C    0.126423
    12  C    0.378966
    13  C   -0.097627
    14  C   -0.065947
    15  C   -0.093703
    16  C    0.052535
    17  C   -0.127006
    18  C    0.016262
    19  C   -0.068494
    20  C   -0.089963
    21  C    0.126983
    22  C    0.166050
    23  C   -0.080014
    24  C   -0.013274
    25  C   -0.023430
    26  C   -0.125970
    27  C   -0.075861
    28  C    0.117155
    29  C    0.143950
    30  C   -0.046446
    31  C    0.035560
    32  C    0.028303
    33  C   -0.086054
    34  C    0.182444
    35  C    0.055941
    36  C   -0.078440
    37  C    0.163916
    38  C    0.098423
    39  C   -0.177342
    40  C    0.205545
    41  C    0.008040
    42  C   -0.034723
    43  C   -0.074230
    44  H   -0.018277
    45  H   -0.032235
    46  H   -0.099293
    47  H    0.129709
    48  H    0.111385
    49  H   -0.006316
    50  H   -0.019021
    51  H   -0.052502
    52  H    0.002232
    53  H    0.049391
    54  H    0.064993
    55  H    0.011597
    56  H    0.055799
    57  H    0.067948
    58  H    0.112344
    59  H    0.049373
    60  H    0.130261
    61  H    0.017159
    62  H   -0.017731
    63  H    0.042652
    64  H    0.004807
    65  H    0.052881
    66  H    0.059110
    67  H    0.028277
    68  H    0.059611
    69  H   -0.036367
    70  H    0.016558
    71  H    0.040174
    72  H    0.173186
    73  H   -0.062397
    74  H    0.031302
    75  H    0.071918
    76  H    0.063265
    77  H    0.229857
    78  H    0.038832
    79  H    0.061637
 Sum of Mulliken charges =  -0.00000

 Dipole moment (field-independent basis, Debye):
    X=              0.1505    Y=              2.7229    Z=              3.7466  Tot=              4.6339
 Quadrupole moment (field-independent basis, Debye-Ang):
   XX=           -213.9849   YY=           -246.0527   ZZ=           -259.6816
   XY=             -3.2080   XZ=             29.7724   YZ=             15.5297

 Normal termination of Gaussian 16 at Sat Sep 28 15:15:52 2019.
