 Gaussian 16, Revision A.03,
 Gaussian 16:  ES64L-G16RevA.03 25-Dec-2016

 --------------------------
 # td=(NStates=1) B3LYP/SVP
 --------------------------

 --
 TD
 --
 Symbolic Z-matrix:
 Charge =  0 Multiplicity = 1

                         Standard orientation:
 ---------------------------------------------------------------------
 Center     Atomic      Atomic             Coordinates (Angstroms)
 Number     Number       Type             X           Y           Z
 ---------------------------------------------------------------------
      1          8           0        5.385677    0.175666   -3.202819
      2          8           0       -3.101689   -2.812605    3.381985
      3          8           0       -3.448034   -0.636297    3.137471
      4          8           0       -1.136170    7.020901    1.642124
      5          8           0       -0.639763    7.134624   -0.651582
      6          8           0       -1.891633   -4.016479    0.008271
      7          7           0        2.391495    0.920026    0.625924
      8          7           0        4.370516   -0.508871   -1.309919
      9          7           0       -1.844553    0.778010   -0.263509
     10          7           0       -2.551691   -1.868071   -0.687707
     11          6           0        4.702005   -1.290120   -0.099605
     12          6           0        4.232265   -0.546744    1.184170
     13          6           0        2.813047   -0.131855    1.337003
     14          6           0        1.885336   -0.766395    2.127571
     15          6           0        0.670268   -0.066956    1.917274
     16          6           0        0.985245    1.080935    0.999362
     17          6           0        6.112391   -1.602096   -0.215439
     18          6           0       -0.662872   -0.146605    2.559941
     19          6           0        6.653724   -1.015932   -1.369813
     20          6           0        0.183164    2.052624    0.270013
     21          6           0       -1.104764    1.960117   -0.170286
     22          6           0        5.550195   -0.453432   -2.166516
     23          6           0       -1.826063    2.912862   -0.846781
     24          6           0        2.082695   -1.763970    3.205333
     25          6           0        6.929851   -2.292338    0.760308
     26          6           0       -2.994268    2.436649   -1.355646
     27          6           0       -1.199423   -1.540083    2.519344
     28          6           0       -2.920876    0.976098   -0.935886
     29          6           0       -1.424898    4.306223   -0.843846
     30          6           0        7.996704   -0.867244   -1.931243
     31          6           0       -1.473887    5.096000    0.463035
     32          6           0       -4.078404    3.052567   -2.329367
     33          6           0       -3.857859   -0.020177   -1.389636
     34          6           0       -2.749861   -1.565047    3.058649
     35          6           0       -3.724060   -1.467010   -1.206176
     36          6           0        9.173133   -1.092584   -1.299016
     37          6           0       -1.041944    6.500616    0.435169
     38          6           0       -4.667416   -2.533411   -1.491436
     39          6           0       -4.019479   -3.696238   -1.084455
     40          6           0       -2.712501   -3.264134   -0.561363
     41          6           0       -5.943772   -2.358702   -2.146849
     42          6           0       -4.421808   -5.030461   -1.166747
     43          6           0       -6.775236   -3.383625   -2.530884
     44          1           0        4.236723   -2.367279   -0.141129
     45          1           0        5.103882    0.214252    1.075287
     46          1           0        4.595559   -1.035094    2.035559
     47          1           0        2.716927    1.054936   -0.318133
     48          1           0        3.399514   -0.333097   -1.720545
     49          1           0       -0.637236    0.265197    3.609709
     50          1           0       -1.297882    0.589435    2.187186
     51          1           0        0.731339    2.978634    0.095920
     52          1           0        3.266748   -1.778429    3.200711
     53          1           0        1.445991   -1.437029    4.286661
     54          1           0        1.584861   -2.765369    2.961523
     55          1           0        6.548060   -3.141101    1.213109
     56          1           0        7.312572   -1.692100    1.549826
     57          1           0        7.888254   -2.844560    0.419796
     58          1           0       -1.258501   -2.092792    1.577540
     59          1           0       -0.570020   -2.364763    3.176901
     60          1           0       -1.634532   -0.202673   -0.134920
     61          1           0       -1.888745    5.035563   -1.692083
     62          1           0       -0.366007    4.595646   -1.399115
     63          1           0        7.873700   -0.469484   -3.077660
     64          1           0       -0.975853    4.488816    1.301379
     65          1           0       -2.533831    5.089607    0.881670
     66          1           0       -3.932866    4.251613   -2.521770
     67          1           0       -5.095748    2.780312   -2.059777
     68          1           0       -4.021664    2.576792   -3.189348
     69          1           0       -4.686763    0.331764   -2.293194
     70          1           0        9.206857   -1.470169   -0.249263
     71          1           0       10.199916   -0.924700   -1.736398
     72          1           0       -4.256182   -2.631985    3.602259
     73          1           0       -6.064503   -1.416420   -2.387570
     74          1           0       -5.453765   -5.245969   -0.635143
     75          1           0       -4.569663   -5.423469   -2.083469
     76          1           0       -3.855930   -5.822539   -0.785688
     77          1           0       -0.878036    7.981114    1.643725
     78          1           0       -7.799872   -3.370935   -3.097345
     79          1           0       -6.464567   -4.455058   -2.550426
 ---------------------------------------------------------------------

 SCF Done:  E(RB3LYP) =  -1947.78504541     A.U. after   19 cycles

 Excitation energies and oscillator strengths:

 Excited State   1:      Singlet-A      1.9589 eV  632.93 nm  f=0.3865  <S**2>=0.000
     154 ->156         0.13659
     155 ->156         0.68799
     155 <-156        -0.10955
 This state for optimization and/or second-order correction.
 Total Energy, E(TD-HF/TD-DFT) =  -1947.71305780
 Copying the excited state density for this state as the 1-particle RhoCI density.

 The electronic state is 1-A.
 Alpha  occ. eigenvalues --  -19.20922 -19.18082 -19.12790 -19.12235 -19.10685
 Alpha  occ. eigenvalues --  -19.09902 -14.38385 -14.37027 -14.35157 -14.28861
 Alpha  occ. eigenvalues --  -10.33621 -10.30567 -10.29088 -10.25912 -10.25630
 Alpha  occ. eigenvalues --  -10.24968 -10.23894 -10.23839 -10.23532 -10.23366
 Alpha  occ. eigenvalues --  -10.23345 -10.22485 -10.22113 -10.22086 -10.21951
 Alpha  occ. eigenvalues --  -10.21726 -10.21716 -10.21702 -10.21670 -10.20858
 Alpha  occ. eigenvalues --  -10.20824 -10.20818 -10.20775 -10.20745 -10.20690
 Alpha  occ. eigenvalues --  -10.20350 -10.20275 -10.19947 -10.19906 -10.19671
 Alpha  occ. eigenvalues --  -10.19515 -10.19144 -10.17563  -1.10817  -1.09097
 Alpha  occ. eigenvalues --   -1.02451  -1.01000  -0.99805  -0.99523  -0.98324
 Alpha  occ. eigenvalues --   -0.96789  -0.92790  -0.91706  -0.84186  -0.82593
 Alpha  occ. eigenvalues --   -0.82266  -0.81175  -0.81013  -0.79199  -0.78418
 Alpha  occ. eigenvalues --   -0.77600  -0.76738  -0.75886  -0.74268  -0.72614
 Alpha  occ. eigenvalues --   -0.72073  -0.70717  -0.70285  -0.69333  -0.68934
 Alpha  occ. eigenvalues --   -0.66822  -0.65891  -0.63889  -0.62021  -0.61153
 Alpha  occ. eigenvalues --   -0.60282  -0.59090  -0.58376  -0.57698  -0.57362
 Alpha  occ. eigenvalues --   -0.56264  -0.55810  -0.55244  -0.54370  -0.53461
 Alpha  occ. eigenvalues --   -0.52915  -0.52190  -0.50910  -0.50584  -0.49812
 Alpha  occ. eigenvalues --   -0.48920  -0.48890  -0.48265  -0.47681  -0.47446
 Alpha  occ. eigenvalues --   -0.47103  -0.46883  -0.46628  -0.46340  -0.45664
 Alpha  occ. eigenvalues --   -0.45275  -0.45019  -0.44979  -0.44535  -0.44197
 Alpha  occ. eigenvalues --   -0.43761  -0.43032  -0.42874  -0.42755  -0.42580
 Alpha  occ. eigenvalues --   -0.42374  -0.41722  -0.41504  -0.41404  -0.40875
 Alpha  occ. eigenvalues --   -0.40834  -0.40406  -0.40277  -0.40153  -0.40063
 Alpha  occ. eigenvalues --   -0.39720  -0.39317  -0.39063  -0.39009  -0.38746
 Alpha  occ. eigenvalues --   -0.38623  -0.38202  -0.38059  -0.37032  -0.36011
 Alpha  occ. eigenvalues --   -0.35782  -0.35520  -0.35273  -0.34158  -0.33790
 Alpha  occ. eigenvalues --   -0.33404  -0.32413  -0.32173  -0.31873  -0.31741
 Alpha  occ. eigenvalues --   -0.31403  -0.30380  -0.28561  -0.28073  -0.27897
 Alpha  occ. eigenvalues --   -0.27332  -0.26668  -0.26087  -0.25920  -0.25432
 Alpha  occ. eigenvalues --   -0.24443  -0.23789  -0.23212  -0.21902  -0.18730
 Alpha virt. eigenvalues --   -0.10868  -0.07558  -0.07052  -0.02522  -0.01562
 Alpha virt. eigenvalues --   -0.00448   0.00086   0.00265   0.02548   0.02933
 Alpha virt. eigenvalues --    0.03221   0.03285   0.03574   0.03816   0.04805

 Mulliken charges:
               1
     1  O   -0.220452
     2  O   -0.253612
     3  O   -0.190156
     4  O   -0.151712
     5  O   -0.325658
     6  O   -0.235348
     7  N   -0.067611
     8  N   -0.296453
     9  N    0.025118
    10  N   -0.291150
    11  C    0.139742
    12  C    0.128998
    13  C   -0.047906
    14  C   -0.074815
    15  C   -0.092372
    16  C    0.027634
    17  C   -0.173606
    18  C    0.174607
    19  C   -0.076281
    20  C   -0.089255
    21  C    0.121717
    22  C    0.176904
    23  C    0.006825
    24  C   -0.014909
    25  C    0.089994
    26  C   -0.129363
    27  C   -0.105727
    28  C    0.010644
    29  C   -0.067155
    30  C   -0.005595
    31  C   -0.011846
    32  C    0.151474
    33  C   -0.156635
    34  C    0.133582
    35  C    0.057144
    36  C   -0.063046
    37  C    0.177060
    38  C    0.032350
    39  C   -0.137299
    40  C    0.153081
    41  C    0.103064
    42  C    0.119320
    43  C   -0.069142
    44  H    0.030225
    45  H    0.009313
    46  H   -0.032750
    47  H    0.121944
    48  H    0.152787
    49  H    0.010574
    50  H   -0.023751
    51  H    0.006728
    52  H    0.028192
    53  H    0.055623
    54  H    0.063723
    55  H   -0.008103
    56  H    0.028508
    57  H    0.034278
    58  H    0.070990
    59  H    0.039664
    60  H    0.135367
    61  H    0.029222
    62  H    0.038113
    63  H    0.056540
    64  H    0.050332
    65  H    0.049334
    66  H    0.053186
    67  H    0.014374
    68  H   -0.013878
    69  H    0.028875
    70  H    0.023919
    71  H    0.044171
    72  H    0.235893
    73  H   -0.091815
    74  H    0.024612
    75  H   -0.004808
    76  H   -0.013546
    77  H    0.205697
    78  H    0.041043
    79  H    0.023270
 Sum of Mulliken charges =  -0.00000

 Dipole moment (field-independent basis, Debye):
    X=              0.6797    Y=              0.5902    Z=              3.4339  Tot=              3.5499
 Quadrupole moment (field-independent basis, Debye-Ang):
   XX=           -217.8285   YY=           -247.1013   ZZ=           -259.3002
   XY=            -14.0096   XZ=             30.3241   YZ=             13.8257

 Normal termination of Gaussian 16 at Wed Sep 18 05:30:15 2019.
