 Gaussian 16, Revision A.03,
 Gaussian 16:  ES64L-G16RevA.03 25-Dec-2016

 --------------------------
 # td=(NStates=1) B3LYP/SVP
 --------------------------

 --
 TD
 --
 Symbolic Z-matrix:
 Charge =  0 Multiplicity = 1

                         Standard orientation:
 ---------------------------------------------------------------------
 Center     Atomic      Atomic             Coordinates (Angstroms)
 Number     Number       Type             X           Y           Z
 ---------------------------------------------------------------------
      1          8           0        5.316616   -0.120882   -3.370516
      2          8           0       -2.885295   -3.092544    3.413298
      3          8           0       -3.334475   -0.822796    3.160251
      4          8           0       -2.222759    7.399782    1.127445
      5          8           0       -0.801795    6.985186   -0.630587
      6          8           0       -1.591290   -4.030003    0.176217
      7          7           0        2.215775    1.027991    0.506000
      8          7           0        4.270208   -0.346880   -1.287311
      9          7           0       -1.760220    0.641240   -0.306074
     10          7           0       -2.448715   -1.969051   -0.476386
     11          6           0        4.733683   -0.884658    0.038077
     12          6           0        4.386468   -0.057792    1.295137
     13          6           0        2.923466    0.158404    1.506803
     14          6           0        1.914690   -0.483453    2.309034
     15          6           0        0.619054    0.073019    1.923156
     16          6           0        0.869641    1.022292    0.896421
     17          6           0        6.231019   -1.071249   -0.105239
     18          6           0       -0.559763   -0.128173    2.709805
     19          6           0        6.622797   -0.709171   -1.401932
     20          6           0        0.085213    2.052691    0.254990
     21          6           0       -1.178138    1.828835   -0.219077
     22          6           0        5.319949   -0.289116   -2.135072
     23          6           0       -2.144938    2.849456   -0.842706
     24          6           0        2.295982   -1.572657    3.333045
     25          6           0        7.132061   -1.647943    0.962020
     26          6           0       -3.134520    2.158460   -1.342854
     27          6           0       -1.092123   -1.560930    2.668623
     28          6           0       -2.976660    0.740893   -1.167300
     29          6           0       -1.842442    4.323162   -0.846447
     30          6           0        7.838326   -0.797424   -2.100169
     31          6           0       -2.082645    5.128237    0.412165
     32          6           0       -4.423864    2.751443   -2.030264
     33          6           0       -3.803961   -0.209555   -1.509630
     34          6           0       -2.548639   -1.742692    3.115431
     35          6           0       -3.517346   -1.655453   -1.127286
     36          6           0        9.152869   -0.670522   -1.586072
     37          6           0       -1.676627    6.614538    0.205195
     38          6           0       -4.230050   -2.913468   -1.608689
     39          6           0       -3.551790   -4.007894   -1.206198
     40          6           0       -2.351888   -3.389743   -0.455891
     41          6           0       -5.561215   -2.725263   -2.330336
     42          6           0       -3.870530   -5.402038   -1.063493
     43          6           0       -6.254820   -3.772221   -2.755401
     44          1           0        4.395249   -1.873180    0.150382
     45          1           0        4.917007    0.932737    1.280161
     46          1           0        4.917816   -0.590400    2.145571
     47          1           0        2.762250    1.525868   -0.050439
     48          1           0        3.390923   -0.344077   -1.795863
     49          1           0       -0.207483    0.260276    3.641402
     50          1           0       -1.372241    0.641591    2.507363
     51          1           0        0.457283    2.971509    0.174652
     52          1           0        3.512743   -1.410444    3.298292
     53          1           0        1.565388   -1.477361    4.269717
     54          1           0        1.912516   -2.504479    2.805480
     55          1           0        6.327663   -2.556801    1.238466
     56          1           0        7.300641   -1.021591    1.851509
     57          1           0        8.121019   -2.140628    0.691307
     58          1           0       -0.925542   -2.106586    1.622614
     59          1           0       -0.556886   -2.321783    3.278071
     60          1           0       -1.476346   -0.350400   -0.039184
     61          1           0       -2.331223    4.667558   -1.778363
     62          1           0       -0.843518    4.420044   -1.083453
     63          1           0        7.663150   -1.146598   -3.098404
     64          1           0       -1.435622    4.693127    1.150735
     65          1           0       -3.186766    5.036534    0.525587
     66          1           0       -4.369765    3.791720   -2.121872
     67          1           0       -5.338323    2.365680   -1.457568
     68          1           0       -4.525281    2.186582   -3.144720
     69          1           0       -4.775366   -0.151407   -1.938044
     70          1           0        9.218961   -0.506007   -0.426679
     71          1           0        9.930693   -0.498349   -2.401294
     72          1           0       -3.731252   -3.153120    3.860103
     73          1           0       -5.954599   -1.684782   -2.326319
     74          1           0       -5.032398   -5.578279   -0.790449
     75          1           0       -3.806665   -5.936924   -1.924871
     76          1           0       -3.370986   -6.124727   -0.390838
     77          1           0       -1.871222    8.411253    1.195145
     78          1           0       -7.446729   -3.587229   -2.880312
     79          1           0       -5.562000   -4.922459   -2.875426
 ---------------------------------------------------------------------

 SCF Done:  E(RB3LYP) =  -1947.80714573     A.U. after   16 cycles

 Excitation energies and oscillator strengths:

 Excited State   1:      Singlet-A      1.8514 eV  669.68 nm  f=0.2445  <S**2>=0.000
     155 ->156         0.70527
 This state for optimization and/or second-order correction.
 Total Energy, E(TD-HF/TD-DFT) =  -1947.73910779
 Copying the excited state density for this state as the 1-particle RhoCI density.

 The electronic state is 1-A.
 Alpha  occ. eigenvalues --  -19.20361 -19.16336 -19.12836 -19.12766 -19.12173
 Alpha  occ. eigenvalues --  -19.08911 -14.35998 -14.35840 -14.35543 -14.30741
 Alpha  occ. eigenvalues --  -10.33396 -10.31411 -10.28148 -10.27777 -10.25341
 Alpha  occ. eigenvalues --  -10.24882 -10.24303 -10.23141 -10.22918 -10.22668
 Alpha  occ. eigenvalues --  -10.22303 -10.22231 -10.22145 -10.21975 -10.21723
 Alpha  occ. eigenvalues --  -10.21705 -10.21684 -10.21569 -10.21311 -10.20825
 Alpha  occ. eigenvalues --  -10.20562 -10.20472 -10.20163 -10.20041 -10.19739
 Alpha  occ. eigenvalues --  -10.19718 -10.19638 -10.19592 -10.19574 -10.19183
 Alpha  occ. eigenvalues --  -10.18573 -10.18410 -10.18314  -1.08931  -1.06334
 Alpha  occ. eigenvalues --   -1.05506  -1.00619  -0.99166  -0.98681  -0.96478
 Alpha  occ. eigenvalues --   -0.94453  -0.93931  -0.92872  -0.82642  -0.82124
 Alpha  occ. eigenvalues --   -0.81732  -0.81278  -0.80902  -0.79275  -0.77637
 Alpha  occ. eigenvalues --   -0.76716  -0.76109  -0.75381  -0.73981  -0.71296
 Alpha  occ. eigenvalues --   -0.70522  -0.70231  -0.70062  -0.68185  -0.67406
 Alpha  occ. eigenvalues --   -0.67295  -0.66025  -0.63428  -0.61541  -0.60454
 Alpha  occ. eigenvalues --   -0.59612  -0.58656  -0.58379  -0.57105  -0.56424
 Alpha  occ. eigenvalues --   -0.55758  -0.54677  -0.54396  -0.53678  -0.52636
 Alpha  occ. eigenvalues --   -0.51779  -0.51240  -0.50619  -0.50225  -0.49810
 Alpha  occ. eigenvalues --   -0.49433  -0.48699  -0.47728  -0.47492  -0.47254
 Alpha  occ. eigenvalues --   -0.46988  -0.46560  -0.46171  -0.45484  -0.45299
 Alpha  occ. eigenvalues --   -0.45032  -0.44540  -0.43993  -0.43802  -0.43524
 Alpha  occ. eigenvalues --   -0.43268  -0.43251  -0.42959  -0.42464  -0.42152
 Alpha  occ. eigenvalues --   -0.41875  -0.41199  -0.40893  -0.40750  -0.40556
 Alpha  occ. eigenvalues --   -0.40253  -0.40116  -0.39947  -0.39540  -0.39224
 Alpha  occ. eigenvalues --   -0.39154  -0.39009  -0.38745  -0.38423  -0.38175
 Alpha  occ. eigenvalues --   -0.37871  -0.37490  -0.37429  -0.36956  -0.36522
 Alpha  occ. eigenvalues --   -0.36198  -0.35799  -0.35517  -0.35134  -0.34664
 Alpha  occ. eigenvalues --   -0.34158  -0.33799  -0.32172  -0.31764  -0.31329
 Alpha  occ. eigenvalues --   -0.31073  -0.29428  -0.29356  -0.28796  -0.28061
 Alpha  occ. eigenvalues --   -0.27140  -0.26387  -0.26060  -0.25336  -0.24168
 Alpha  occ. eigenvalues --   -0.23962  -0.23257  -0.23121  -0.22523  -0.18276
 Alpha virt. eigenvalues --   -0.10618  -0.05672  -0.05389  -0.01512  -0.01035
 Alpha virt. eigenvalues --    0.00401   0.00593   0.00815   0.01377   0.02428
 Alpha virt. eigenvalues --    0.02758   0.03646   0.04378   0.04949   0.05308

 Mulliken charges:
               1
     1  O   -0.265008
     2  O   -0.236761
     3  O   -0.213406
     4  O   -0.216661
     5  O   -0.275369
     6  O   -0.136682
     7  N   -0.121900
     8  N   -0.181872
     9  N   -0.139972
    10  N   -0.246271
    11  C    0.180251
    12  C    0.109153
    13  C   -0.054382
    14  C   -0.160108
    15  C   -0.110704
    16  C    0.127881
    17  C   -0.167807
    18  C    0.119299
    19  C   -0.028857
    20  C   -0.078305
    21  C    0.082225
    22  C    0.113904
    23  C   -0.091393
    24  C    0.034545
    25  C    0.008670
    26  C   -0.130954
    27  C   -0.057322
    28  C    0.263914
    29  C    0.097913
    30  C   -0.056329
    31  C    0.065464
    32  C    0.068523
    33  C   -0.130752
    34  C    0.158258
    35  C    0.000098
    36  C   -0.062511
    37  C    0.159432
    38  C    0.012201
    39  C   -0.152825
    40  C    0.138664
    41  C    0.005934
    42  C    0.063994
    43  C   -0.109556
    44  H    0.007470
    45  H    0.005100
    46  H    0.004415
    47  H    0.065488
    48  H    0.139357
    49  H    0.004773
    50  H    0.022052
    51  H   -0.073781
    52  H    0.047438
    53  H    0.043742
    54  H    0.051276
    55  H    0.034122
    56  H    0.051541
    57  H    0.055899
    58  H    0.095730
    59  H    0.015434
    60  H    0.175371
    61  H    0.006729
    62  H   -0.012574
    63  H    0.015402
    64  H    0.040494
    65  H    0.038329
    66  H    0.009203
    67  H    0.042542
    68  H    0.041933
    69  H   -0.038653
    70  H    0.042990
    71  H    0.055302
    72  H    0.174398
    73  H    0.011277
    74  H    0.036159
    75  H   -0.003079
    76  H    0.028437
    77  H    0.243210
    78  H    0.060127
    79  H    0.077728
 Sum of Mulliken charges =  -0.00000

 Dipole moment (field-independent basis, Debye):
    X=             -3.0634    Y=              0.9453    Z=              3.5653  Tot=              4.7948
 Quadrupole moment (field-independent basis, Debye-Ang):
   XX=           -226.4884   YY=           -229.0995   ZZ=           -265.1538
   XY=             -5.4932   XZ=             32.4453   YZ=             11.2100

 Normal termination of Gaussian 16 at Thu Sep 26 11:22:17 2019.
