 Gaussian 16, Revision A.03,
 Gaussian 16:  ES64L-G16RevA.03 25-Dec-2016

 --------------------------
 # td=(NStates=1) B3LYP/SVP
 --------------------------

 --
 TD
 --
 Symbolic Z-matrix:
 Charge =  0 Multiplicity = 1

                         Standard orientation:
 ---------------------------------------------------------------------
 Center     Atomic      Atomic             Coordinates (Angstroms)
 Number     Number       Type             X           Y           Z
 ---------------------------------------------------------------------
      1          8           0        5.153934   -0.073265   -3.239333
      2          8           0       -2.989140   -2.966125    3.456803
      3          8           0       -3.286628   -0.770337    3.102348
      4          8           0       -1.891055    7.206150    1.507184
      5          8           0       -0.872412    7.111345   -0.532307
      6          8           0       -1.643423   -3.956383    0.109424
      7          7           0        2.432558    1.060900    0.597369
      8          7           0        4.327239   -0.449599   -1.144707
      9          7           0       -1.803508    0.670323   -0.431114
     10          7           0       -2.613138   -1.925548   -0.500582
     11          6           0        4.735252   -1.125267    0.084166
     12          6           0        4.529197   -0.183382    1.324004
     13          6           0        3.009607    0.064601    1.392067
     14          6           0        2.022132   -0.470693    2.224666
     15          6           0        0.784296    0.082359    1.812935
     16          6           0        0.994006    1.045317    0.797462
     17          6           0        6.234338   -1.293126   -0.188786
     18          6           0       -0.588857   -0.211362    2.527010
     19          6           0        6.640263   -0.857276   -1.399715
     20          6           0        0.153038    1.995123   -0.033049
     21          6           0       -1.168922    1.835220   -0.324498
     22          6           0        5.271098   -0.333258   -2.040827
     23          6           0       -1.968837    2.900670   -0.940414
     24          6           0        2.305901   -1.531510    3.334491
     25          6           0        7.197960   -1.954464    0.818269
     26          6           0       -3.163138    2.258557   -1.318437
     27          6           0       -1.031495   -1.669637    2.649456
     28          6           0       -3.076670    0.895962   -1.008023
     29          6           0       -1.607441    4.305158   -0.975264
     30          6           0        7.827702   -0.756111   -2.182240
     31          6           0       -1.767798    5.068280    0.374857
     32          6           0       -4.340212    2.837702   -2.029612
     33          6           0       -3.963887   -0.238490   -1.357251
     34          6           0       -2.525715   -1.767716    3.031168
     35          6           0       -3.704086   -1.611439   -1.089123
     36          6           0        9.093204   -0.784094   -1.689898
     37          6           0       -1.467801    6.547387    0.326460
     38          6           0       -4.515026   -2.776327   -1.444003
     39          6           0       -3.847892   -3.799455   -0.955818
     40          6           0       -2.576197   -3.292511   -0.366084
     41          6           0       -5.826123   -2.597454   -2.075945
     42          6           0       -4.020190   -5.253508   -1.081304
     43          6           0       -6.529021   -3.613836   -2.843404
     44          1           0        4.269709   -2.115748    0.245205
     45          1           0        5.071083    0.724304    0.956743
     46          1           0        5.065060   -0.603502    2.111594
     47          1           0        2.868303    1.508013   -0.337872
     48          1           0        3.397906   -0.163774   -1.448926
     49          1           0       -0.583805    0.294243    3.505117
     50          1           0       -1.402470    0.285135    1.983618
     51          1           0        0.535595    2.764906   -0.322826
     52          1           0        3.251251   -1.707257    3.650343
     53          1           0        1.695271   -1.338159    4.152825
     54          1           0        1.908627   -2.459732    2.966458
     55          1           0        6.373601   -2.887986    1.140637
     56          1           0        7.553148   -1.385916    1.796211
     57          1           0        8.342120   -2.359627    0.292096
     58          1           0       -0.991983   -2.275977    1.770844
     59          1           0       -0.527224   -2.288187    3.266660
     60          1           0       -1.507733   -0.220569   -0.154249
     61          1           0       -2.174659    4.742537   -1.820486
     62          1           0       -0.496578    4.387105   -1.222277
     63          1           0        7.771631   -0.817058   -3.203131
     64          1           0       -1.099775    4.856015    1.274524
     65          1           0       -2.897463    4.846068    0.550799
     66          1           0       -4.322050    3.906687   -2.065037
     67          1           0       -5.276422    2.487679   -1.530558
     68          1           0       -4.362589    2.283747   -2.893592
     69          1           0       -4.804314    0.199532   -1.715477
     70          1           0        9.397915   -0.831444   -0.510077
     71          1           0        9.794540   -0.508977   -2.446262
     72          1           0       -3.949182   -3.009599    3.463441
     73          1           0       -6.301905   -1.599619   -1.961381
     74          1           0       -5.102412   -5.631660   -0.660461
     75          1           0       -3.916044   -5.699182   -2.072195
     76          1           0       -3.190022   -5.786005   -0.635224
     77          1           0       -1.628457    8.165339    1.429655
     78          1           0       -7.413904   -3.269866   -3.310812
     79          1           0       -6.171126   -4.687590   -3.245529
 ---------------------------------------------------------------------

 SCF Done:  E(RB3LYP) =  -1947.84423524     A.U. after   17 cycles

 Excitation energies and oscillator strengths:

 Excited State   1:      Singlet-A      2.0282 eV  611.29 nm  f=0.4880  <S**2>=0.000
     154 ->156         0.11058
     155 ->156         0.69802
     155 <-156        -0.13172
 This state for optimization and/or second-order correction.
 Total Energy, E(TD-HF/TD-DFT) =  -1947.76969901
 Copying the excited state density for this state as the 1-particle RhoCI density.

 The electronic state is 1-A.
 Alpha  occ. eigenvalues --  -19.18005 -19.16929 -19.14293 -19.10555 -19.10430
 Alpha  occ. eigenvalues --  -19.09420 -14.39439 -14.36659 -14.36520 -14.28038
 Alpha  occ. eigenvalues --  -10.33088 -10.31115 -10.28140 -10.26252 -10.26004
 Alpha  occ. eigenvalues --  -10.25101 -10.24821 -10.24371 -10.24196 -10.23907
 Alpha  occ. eigenvalues --  -10.23322 -10.22697 -10.22388 -10.22364 -10.22275
 Alpha  occ. eigenvalues --  -10.21976 -10.21665 -10.21302 -10.21257 -10.21087
 Alpha  occ. eigenvalues --  -10.20625 -10.20599 -10.20186 -10.20119 -10.20012
 Alpha  occ. eigenvalues --  -10.19798 -10.19659 -10.19260 -10.19201 -10.18803
 Alpha  occ. eigenvalues --  -10.18698 -10.18573 -10.18536  -1.09290  -1.07432
 Alpha  occ. eigenvalues --   -1.02455  -1.00964  -1.00765  -0.99106  -0.96846
 Alpha  occ. eigenvalues --   -0.96603  -0.94803  -0.93950  -0.83868  -0.82495
 Alpha  occ. eigenvalues --   -0.82199  -0.80566  -0.80192  -0.80068  -0.78436
 Alpha  occ. eigenvalues --   -0.77109  -0.76388  -0.75666  -0.74087  -0.73028
 Alpha  occ. eigenvalues --   -0.72366  -0.70155  -0.69768  -0.69264  -0.68863
 Alpha  occ. eigenvalues --   -0.66952  -0.66321  -0.64470  -0.61729  -0.61565
 Alpha  occ. eigenvalues --   -0.59907  -0.59774  -0.59045  -0.57784  -0.57722
 Alpha  occ. eigenvalues --   -0.56577  -0.56015  -0.55604  -0.54447  -0.53329
 Alpha  occ. eigenvalues --   -0.52525  -0.52031  -0.51561  -0.50938  -0.50559
 Alpha  occ. eigenvalues --   -0.49411  -0.48697  -0.48443  -0.48355  -0.47915
 Alpha  occ. eigenvalues --   -0.47552  -0.47017  -0.46588  -0.46093  -0.45875
 Alpha  occ. eigenvalues --   -0.45475  -0.45015  -0.44774  -0.43995  -0.43794
 Alpha  occ. eigenvalues --   -0.43438  -0.43158  -0.42941  -0.42495  -0.42039
 Alpha  occ. eigenvalues --   -0.41914  -0.41632  -0.41520  -0.41408  -0.41357
 Alpha  occ. eigenvalues --   -0.41072  -0.40856  -0.40400  -0.40136  -0.39702
 Alpha  occ. eigenvalues --   -0.39554  -0.39364  -0.39254  -0.39081  -0.38393
 Alpha  occ. eigenvalues --   -0.38371  -0.38050  -0.37694  -0.37599  -0.37014
 Alpha  occ. eigenvalues --   -0.36541  -0.36449  -0.35553  -0.35215  -0.35032
 Alpha  occ. eigenvalues --   -0.34598  -0.34017  -0.33880  -0.33210  -0.31559
 Alpha  occ. eigenvalues --   -0.30502  -0.30034  -0.29298  -0.28531  -0.27094
 Alpha  occ. eigenvalues --   -0.26997  -0.26095  -0.25914  -0.25586  -0.24508
 Alpha  occ. eigenvalues --   -0.24403  -0.24258  -0.23802  -0.22379  -0.19062
 Alpha virt. eigenvalues --   -0.11355  -0.06831  -0.05570  -0.01701  -0.00505
 Alpha virt. eigenvalues --    0.00059   0.00767   0.01145   0.01508   0.02427
 Alpha virt. eigenvalues --    0.03144   0.03983   0.04568   0.04981   0.05184

 Mulliken charges:
               1
     1  O   -0.250834
     2  O   -0.180497
     3  O   -0.282940
     4  O   -0.257123
     5  O   -0.187929
     6  O   -0.227780
     7  N   -0.196154
     8  N   -0.137005
     9  N   -0.022786
    10  N   -0.206278
    11  C    0.079813
    12  C    0.230193
    13  C   -0.056557
    14  C   -0.148816
    15  C   -0.118066
    16  C    0.061833
    17  C   -0.156708
    18  C    0.093039
    19  C    0.020857
    20  C    0.074859
    21  C    0.111516
    22  C    0.076644
    23  C   -0.106807
    24  C    0.208230
    25  C   -0.105930
    26  C   -0.155298
    27  C    0.095850
    28  C    0.043234
    29  C    0.081593
    30  C   -0.007992
    31  C   -0.030016
    32  C    0.179702
    33  C   -0.038885
    34  C    0.122973
    35  C    0.088530
    36  C   -0.049350
    37  C    0.141118
    38  C    0.094850
    39  C   -0.195078
    40  C    0.140328
    41  C   -0.066579
    42  C    0.057594
    43  C   -0.050402
    44  H    0.042242
    45  H    0.001767
    46  H   -0.012309
    47  H    0.164809
    48  H    0.127475
    49  H    0.020259
    50  H    0.012870
    51  H   -0.164230
    52  H   -0.023119
    53  H   -0.005433
    54  H    0.020246
    55  H    0.041598
    56  H    0.069933
    57  H    0.074760
    58  H    0.029109
    59  H   -0.028553
    60  H    0.113538
    61  H    0.027114
    62  H    0.026106
    63  H   -0.007166
    64  H    0.071391
    65  H    0.062097
    66  H    0.014113
    67  H    0.023252
    68  H    0.008411
    69  H   -0.098662
    70  H    0.050989
    71  H    0.022470
    72  H    0.183655
    73  H    0.022636
    74  H    0.035897
    75  H    0.018680
    76  H    0.011674
    77  H    0.194309
    78  H    0.016497
    79  H    0.064633
 Sum of Mulliken charges =  -0.00000

 Dipole moment (field-independent basis, Debye):
    X=              0.5036    Y=              2.5987    Z=              2.1795  Tot=              3.4289
 Quadrupole moment (field-independent basis, Debye-Ang):
   XX=           -222.3605   YY=           -247.8274   ZZ=           -263.8791
   XY=             -7.6850   XZ=             33.8650   YZ=              2.0234

 Normal termination of Gaussian 16 at Sun Sep 15 00:44:40 2019.
