 Gaussian 16, Revision A.03,
 Gaussian 16:  ES64L-G16RevA.03 25-Dec-2016

 --------------------------
 # td=(NStates=1) B3LYP/SVP
 --------------------------

 --
 TD
 --
 Symbolic Z-matrix:
 Charge =  0 Multiplicity = 1

                         Standard orientation:
 ---------------------------------------------------------------------
 Center     Atomic      Atomic             Coordinates (Angstroms)
 Number     Number       Type             X           Y           Z
 ---------------------------------------------------------------------
      1          8           0       -3.388557   -1.105959   -2.938228
      2          8           0        3.027379    2.973793    3.346251
      3          8           0        3.497137    1.083899    4.549349
      4          8           0        7.830981   -1.480645   -0.797779
      5          8           0        6.734497   -2.777994   -2.250650
      6          8           0       -2.701682    1.480491    1.565917
      7          7           0       -0.167295   -2.473806    0.681510
      8          7           0       -2.717781   -1.306705   -0.716506
      9          7           0        1.195193    0.205345   -0.791009
     10          7           0       -1.032146    1.459602   -0.121947
     11          6           0       -3.364129   -1.443193    0.574293
     12          6           0       -2.582717   -2.634334    1.407395
     13          6           0       -1.171412   -2.277952    1.557324
     14          6           0       -0.506644   -1.565460    2.701913
     15          6           0        0.899573   -1.406319    2.367210
     16          6           0        1.078200   -1.993649    1.100548
     17          6           0       -4.658720   -1.955188    0.144032
     18          6           0        1.867467   -0.605222    3.071209
     19          6           0       -4.879384   -1.938939   -1.205148
     20          6           0        2.185693   -1.807856    0.117619
     21          6           0        2.237811   -0.783766   -0.779445
     22          6           0       -3.597107   -1.445498   -1.759734
     23          6           0        2.950872   -0.529761   -1.904505
     24          6           0       -1.059579   -1.018934    3.884015
     25          6           0       -5.712180   -2.256951    1.145922
     26          6           0        2.585717    0.732242   -2.443038
     27          6           0        1.962102    0.932879    2.697543
     28          6           0        1.338215    1.153024   -1.756479
     29          6           0        4.373298   -1.206378   -2.232286
     30          6           0       -6.024953   -2.089815   -2.056187
     31          6           0        5.584212   -0.921060   -1.210974
     32          6           0        3.196691    1.424783   -3.638231
     33          6           0        0.454161    2.214565   -1.791169
     34          6           0        2.948467    1.581546    3.621099
     35          6           0       -0.680392    2.433301   -1.034770
     36          6           0       -7.165493   -2.929250   -1.965039
     37          6           0        6.705908   -1.803211   -1.457573
     38          6           0       -1.567599    3.563548   -0.997995
     39          6           0       -2.404600    3.371441    0.107396
     40          6           0       -2.042082    2.014991    0.610828
     41          6           0       -1.319148    4.706853   -1.772004
     42          6           0       -3.462152    4.192137    0.847599
     43          6           0       -2.078738    5.769495   -1.963493
     44          1           0       -3.384425   -0.621209    1.078377
     45          1           0       -2.611739   -3.485092    0.914302
     46          1           0       -3.066293   -2.693226    2.398992
     47          1           0       -0.313675   -2.792399   -0.358229
     48          1           0       -2.069794   -0.671885   -0.598612
     49          1           0        1.687351   -0.668843    4.319718
     50          1           0        2.805627   -1.177771    2.952422
     51          1           0        2.837514   -2.791084    0.092310
     52          1           0       -2.101341   -1.686125    4.087218
     53          1           0       -0.326966   -0.921208    4.762431
     54          1           0       -1.638233    0.145424    3.669247
     55          1           0       -5.475767   -1.713260    2.068855
     56          1           0       -5.755637   -3.284262    1.481088
     57          1           0       -6.632301   -2.180720    0.594915
     58          1           0        2.134036    1.056920    1.486968
     59          1           0        0.833611    1.357873    2.804807
     60          1           0        0.441475    0.488695   -0.171463
     61          1           0        4.641398   -0.947624   -3.275237
     62          1           0        4.280761   -2.275136   -2.057783
     63          1           0       -5.720220   -1.846647   -3.156149
     64          1           0        5.157467   -1.264937   -0.168380
     65          1           0        5.925276    0.167303   -1.298391
     66          1           0        4.085869    0.859574   -3.979784
     67          1           0        3.526979    2.368649   -3.291371
     68          1           0        2.394152    1.655351   -4.263528
     69          1           0        0.427207    2.982559   -2.659570
     70          1           0       -7.291467   -3.386878   -1.128902
     71          1           0       -7.934500   -2.940242   -2.666741
     72          1           0        3.702822    3.305294    3.692235
     73          1           0       -0.329479    4.557114   -2.344422
     74          1           0       -4.304350    4.198704    0.126975
     75          1           0       -3.819020    3.429358    1.547508
     76          1           0       -3.073363    5.118474    1.137208
     77          1           0        8.496035   -2.134726   -0.988147
     78          1           0       -1.929853    6.634798   -2.666783
     79          1           0       -3.091137    5.709058   -1.232538
 ---------------------------------------------------------------------

 SCF Done:  E(RB3LYP) =  -1947.77829865     A.U. after   21 cycles

 Excitation energies and oscillator strengths:

 Excited State   1:      Singlet-A      0.6958 eV 1781.78 nm  f=0.0003  <S**2>=0.000
     155 ->156         0.70396
 This state for optimization and/or second-order correction.
 Total Energy, E(TD-HF/TD-DFT) =  -1947.75272690
 Copying the excited state density for this state as the 1-particle RhoCI density.

 The electronic state is 1-A.
 Alpha  occ. eigenvalues --  -19.19531 -19.15514 -19.13958 -19.13328 -19.11885
 Alpha  occ. eigenvalues --  -19.08009 -14.38229 -14.37343 -14.32160 -14.30869
 Alpha  occ. eigenvalues --  -10.33597 -10.32636 -10.27838 -10.27498 -10.26709
 Alpha  occ. eigenvalues --  -10.26382 -10.25246 -10.24653 -10.24240 -10.24217
 Alpha  occ. eigenvalues --  -10.23179 -10.23176 -10.22607 -10.21696 -10.21685
 Alpha  occ. eigenvalues --  -10.21622 -10.21408 -10.21339 -10.21328 -10.21126
 Alpha  occ. eigenvalues --  -10.21113 -10.20920 -10.20184 -10.20085 -10.20066
 Alpha  occ. eigenvalues --  -10.19930 -10.19592 -10.19488 -10.18598 -10.18453
 Alpha  occ. eigenvalues --  -10.17817 -10.17402 -10.17154  -1.11019  -1.09772
 Alpha  occ. eigenvalues --   -1.02627  -1.00768  -1.00003  -0.99893  -0.99721
 Alpha  occ. eigenvalues --   -0.96406  -0.93659  -0.93185  -0.84467  -0.82521
 Alpha  occ. eigenvalues --   -0.82181  -0.81315  -0.80329  -0.80001  -0.78826
 Alpha  occ. eigenvalues --   -0.77631  -0.75992  -0.75541  -0.75124  -0.74117
 Alpha  occ. eigenvalues --   -0.71696  -0.71255  -0.70681  -0.70075  -0.68407
 Alpha  occ. eigenvalues --   -0.67352  -0.66018  -0.64445  -0.62454  -0.62010
 Alpha  occ. eigenvalues --   -0.61394  -0.60131  -0.59470  -0.57969  -0.57114
 Alpha  occ. eigenvalues --   -0.56513  -0.55367  -0.53799  -0.52527  -0.52410
 Alpha  occ. eigenvalues --   -0.52358  -0.51981  -0.51482  -0.50981  -0.50338
 Alpha  occ. eigenvalues --   -0.49727  -0.49621  -0.48998  -0.48696  -0.48042
 Alpha  occ. eigenvalues --   -0.47810  -0.47463  -0.47097  -0.46546  -0.46439
 Alpha  occ. eigenvalues --   -0.46023  -0.45522  -0.45206  -0.44389  -0.44229
 Alpha  occ. eigenvalues --   -0.43917  -0.43593  -0.42991  -0.42717  -0.42643
 Alpha  occ. eigenvalues --   -0.42241  -0.42016  -0.41433  -0.41046  -0.40806
 Alpha  occ. eigenvalues --   -0.40705  -0.40496  -0.40299  -0.40164  -0.39424
 Alpha  occ. eigenvalues --   -0.39250  -0.39170  -0.38668  -0.38579  -0.38409
 Alpha  occ. eigenvalues --   -0.38348  -0.38118  -0.37372  -0.36844  -0.36672
 Alpha  occ. eigenvalues --   -0.36406  -0.35982  -0.35179  -0.34949  -0.33906
 Alpha  occ. eigenvalues --   -0.33793  -0.33339  -0.33204  -0.32807  -0.32763
 Alpha  occ. eigenvalues --   -0.31028  -0.29859  -0.29754  -0.29561  -0.29187
 Alpha  occ. eigenvalues --   -0.28808  -0.27037  -0.25849  -0.25129  -0.23759
 Alpha  occ. eigenvalues --   -0.23395  -0.22998  -0.22707  -0.22069  -0.18677
 Alpha virt. eigenvalues --   -0.13634  -0.08640  -0.05161  -0.02325  -0.02005
 Alpha virt. eigenvalues --   -0.01345   0.00764   0.01753   0.02287   0.03073
 Alpha virt. eigenvalues --    0.03331   0.03716   0.04240   0.04802   0.05004

 Mulliken charges:
               1
     1  O   -0.261215
     2  O   -0.159370
     3  O   -0.175155
     4  O   -0.159119
     5  O   -0.272882
     6  O   -0.273337
     7  N   -0.089107
     8  N   -0.125787
     9  N   -0.118811
    10  N   -0.310609
    11  C    0.107613
    12  C    0.343613
    13  C   -0.134124
    14  C   -0.079289
    15  C   -0.055228
    16  C   -0.047861
    17  C   -0.202076
    18  C    0.017269
    19  C   -0.015628
    20  C   -0.145621
    21  C    0.209563
    22  C    0.141623
    23  C   -0.070635
    24  C   -0.074708
    25  C    0.141135
    26  C   -0.168971
    27  C   -0.106768
    28  C    0.132756
    29  C    0.068753
    30  C   -0.083602
    31  C   -0.026023
    32  C    0.194930
    33  C   -0.098343
    34  C    0.179731
    35  C    0.037275
    36  C    0.048622
    37  C    0.129651
    38  C    0.104143
    39  C   -0.247339
    40  C    0.192040
    41  C   -0.054451
    42  C    0.166477
    43  C   -0.073673
    44  H   -0.032748
    45  H   -0.079291
    46  H   -0.004254
    47  H    0.152999
    48  H    0.070679
    49  H    0.036129
    50  H    0.005842
    51  H    0.058728
    52  H    0.012736
    53  H    0.035842
    54  H    0.057437
    55  H    0.019068
    56  H    0.014130
    57  H    0.013210
    58  H    0.064013
    59  H    0.093903
    60  H    0.157672
    61  H    0.033961
    62  H    0.022466
    63  H    0.043129
    64  H    0.074466
    65  H    0.062356
    66  H    0.023870
    67  H    0.006192
    68  H    0.024625
    69  H    0.014736
    70  H   -0.041658
    71  H    0.017796
    72  H    0.092599
    73  H   -0.002598
    74  H    0.034278
    75  H    0.026207
    76  H    0.038615
    77  H    0.179119
    78  H    0.046517
    79  H    0.041765
 Sum of Mulliken charges =  -0.00000

 Dipole moment (field-independent basis, Debye):
    X=              4.1837    Y=              2.5779    Z=             -1.2465  Tot=              5.0698
 Quadrupole moment (field-independent basis, Debye-Ang):
   XX=           -233.0576   YY=           -236.5505   ZZ=           -276.2868
   XY=              8.5528   XZ=            -18.6780   YZ=            -15.3874

 Normal termination of Gaussian 16 at Sat Jul 27 02:21:15 2019.
