 Gaussian 16, Revision A.03,
 Gaussian 16:  ES64L-G16RevA.03 25-Dec-2016

 --------------------------
 # td=(NStates=1) B3LYP/SVP
 --------------------------

 --
 TD
 --
 Symbolic Z-matrix:
 Charge =  0 Multiplicity = 1

                         Standard orientation:
 ---------------------------------------------------------------------
 Center     Atomic      Atomic             Coordinates (Angstroms)
 Number     Number       Type             X           Y           Z
 ---------------------------------------------------------------------
      1          8           0       -3.269743   -1.308761   -2.761268
      2          8           0        3.112607    3.180628    3.029138
      3          8           0        3.620469    1.635992    4.570764
      4          8           0        7.765862   -1.686807   -0.602689
      5          8           0        6.683697   -3.131096   -2.024140
      6          8           0       -2.617144    1.631550    1.421291
      7          7           0       -0.280931   -2.409486    1.058117
      8          7           0       -2.644561   -1.184580   -0.527077
      9          7           0        1.032992   -0.066329   -0.901342
     10          7           0       -1.056308    1.332354   -0.388777
     11          6           0       -3.402976   -1.278388    0.747913
     12          6           0       -2.663503   -2.268640    1.825401
     13          6           0       -1.240715   -1.936578    1.943049
     14          6           0       -0.601923   -0.905752    2.886834
     15          6           0        0.780900   -0.892955    2.492501
     16          6           0        0.907920   -1.727027    1.386926
     17          6           0       -4.776230   -1.807904    0.241989
     18          6           0        1.882809   -0.202628    3.232952
     19          6           0       -4.704428   -2.027186   -1.024080
     20          6           0        2.027254   -1.875506    0.317350
     21          6           0        2.065118   -0.930224   -0.643483
     22          6           0       -3.411155   -1.524251   -1.584296
     23          6           0        2.953663   -0.764133   -1.924589
     24          6           0       -1.284311   -0.303419    4.062438
     25          6           0       -5.847786   -2.186707    1.425209
     26          6           0        2.518995    0.435574   -2.566958
     27          6           0        1.832166    1.277496    2.924228
     28          6           0        1.326121    0.867209   -1.965905
     29          6           0        4.191534   -1.555328   -1.968896
     30          6           0       -5.750188   -2.706263   -1.945732
     31          6           0        5.450376   -1.240443   -1.089806
     32          6           0        3.100637    1.035042   -3.818674
     33          6           0        0.552157    1.988443   -2.152386
     34          6           0        3.005181    2.042847    3.681249
     35          6           0       -0.639830    2.203589   -1.391139
     36          6           0       -6.845339   -3.328319   -1.580520
     37          6           0        6.669021   -2.166679   -1.328421
     38          6           0       -1.381555    3.427397   -1.410395
     39          6           0       -2.269651    3.325319   -0.371764
     40          6           0       -2.090098    2.006832    0.294421
     41          6           0       -1.167510    4.500603   -2.375113
     42          6           0       -3.311461    4.346760    0.092077
     43          6           0       -1.939106    5.556736   -2.519638
     44          1           0       -3.425252   -0.354921    1.237741
     45          1           0       -2.907869   -3.237576    1.317319
     46          1           0       -3.128190   -2.207007    2.706546
     47          1           0       -0.463095   -3.012320    0.311252
     48          1           0       -1.911824   -0.505414   -0.702679
     49          1           0        2.026371   -0.350128    4.259093
     50          1           0        2.855838   -0.508284    2.749158
     51          1           0        2.774895   -2.480343    0.541814
     52          1           0       -2.083754   -0.997530    4.391092
     53          1           0       -0.636732    0.129943    4.800107
     54          1           0       -1.727390    0.580863    3.544417
     55          1           0       -5.744338   -1.727960    2.361629
     56          1           0       -5.686753   -3.310896    1.450277
     57          1           0       -6.799511   -1.795879    0.834233
     58          1           0        2.204349    1.373841    1.881090
     59          1           0        0.807006    1.567304    3.102064
     60          1           0        0.330364    0.175250   -0.299909
     61          1           0        4.753066   -1.429490   -3.123010
     62          1           0        3.946664   -2.627683   -1.708144
     63          1           0       -5.480495   -2.472669   -3.063242
     64          1           0        5.230998   -1.304395   -0.022840
     65          1           0        5.782796   -0.245151   -1.151600
     66          1           0        3.944056    0.412565   -4.196637
     67          1           0        3.318077    2.052899   -3.944020
     68          1           0        2.448415    0.967793   -4.608862
     69          1           0        0.576954    2.671107   -2.991779
     70          1           0       -7.209299   -3.793906   -0.690107
     71          1           0       -7.596675   -3.745760   -2.405975
     72          1           0        3.661979    3.736335    3.354165
     73          1           0       -0.283448    4.432154   -3.067934
     74          1           0       -4.294249    4.329248   -0.871749
     75          1           0       -3.684301    3.923494    1.058276
     76          1           0       -2.870030    5.441302    0.114691
     77          1           0        8.509712   -2.389207   -0.993263
     78          1           0       -1.688204    6.434785   -3.325486
     79          1           0       -2.890990    5.678760   -1.955391
 ---------------------------------------------------------------------

 SCF Done:  E(RB3LYP) =  -1947.80698614     A.U. after   19 cycles

 Excitation energies and oscillator strengths:

 Excited State   1:      Singlet-A      0.4685 eV 2646.62 nm  f=0.0027  <S**2>=0.000
     155 ->156         0.70597
 This state for optimization and/or second-order correction.
 Total Energy, E(TD-HF/TD-DFT) =  -1947.78977045
 Copying the excited state density for this state as the 1-particle RhoCI density.

 The electronic state is 1-A.
 Alpha  occ. eigenvalues --  -19.19916 -19.17693 -19.15242 -19.13191 -19.12819
 Alpha  occ. eigenvalues --  -19.07595 -14.36655 -14.36222 -14.32016 -14.31093
 Alpha  occ. eigenvalues --  -10.33828 -10.31605 -10.28973 -10.26876 -10.25551
 Alpha  occ. eigenvalues --  -10.25488 -10.25399 -10.24480 -10.24038 -10.23642
 Alpha  occ. eigenvalues --  -10.23029 -10.22414 -10.21693 -10.21681 -10.21494
 Alpha  occ. eigenvalues --  -10.21450 -10.21317 -10.21295 -10.21150 -10.21059
 Alpha  occ. eigenvalues --  -10.20644 -10.20569 -10.20375 -10.19373 -10.19296
 Alpha  occ. eigenvalues --  -10.18532 -10.18531 -10.18114 -10.17736 -10.17713
 Alpha  occ. eigenvalues --  -10.17476 -10.17394 -10.17181  -1.12957  -1.10036
 Alpha  occ. eigenvalues --   -1.04709  -1.01557  -1.00792  -0.99823  -0.98289
 Alpha  occ. eigenvalues --   -0.95051  -0.92797  -0.91245  -0.83556  -0.82653
 Alpha  occ. eigenvalues --   -0.81782  -0.80488  -0.79241  -0.78858  -0.77749
 Alpha  occ. eigenvalues --   -0.76376  -0.75695  -0.75373  -0.73835  -0.73173
 Alpha  occ. eigenvalues --   -0.71505  -0.70776  -0.69683  -0.68919  -0.68657
 Alpha  occ. eigenvalues --   -0.66182  -0.65158  -0.62801  -0.61136  -0.60307
 Alpha  occ. eigenvalues --   -0.59488  -0.58855  -0.57790  -0.57663  -0.56343
 Alpha  occ. eigenvalues --   -0.56073  -0.55762  -0.55441  -0.53142  -0.52694
 Alpha  occ. eigenvalues --   -0.51654  -0.51022  -0.50398  -0.50072  -0.49678
 Alpha  occ. eigenvalues --   -0.49591  -0.49243  -0.48840  -0.48660  -0.48367
 Alpha  occ. eigenvalues --   -0.48105  -0.47658  -0.46396  -0.45913  -0.45434
 Alpha  occ. eigenvalues --   -0.44906  -0.44680  -0.44242  -0.43917  -0.43821
 Alpha  occ. eigenvalues --   -0.43504  -0.42906  -0.42552  -0.42262  -0.41986
 Alpha  occ. eigenvalues --   -0.41825  -0.41793  -0.41661  -0.41393  -0.41130
 Alpha  occ. eigenvalues --   -0.41091  -0.40862  -0.40401  -0.40043  -0.39720
 Alpha  occ. eigenvalues --   -0.39108  -0.38586  -0.38509  -0.38268  -0.38108
 Alpha  occ. eigenvalues --   -0.37680  -0.37250  -0.37070  -0.36282  -0.35689
 Alpha  occ. eigenvalues --   -0.35472  -0.35255  -0.34906  -0.34501  -0.34306
 Alpha  occ. eigenvalues --   -0.33890  -0.33724  -0.33438  -0.32351  -0.31560
 Alpha  occ. eigenvalues --   -0.30355  -0.30280  -0.29923  -0.29449  -0.29091
 Alpha  occ. eigenvalues --   -0.28252  -0.26539  -0.26081  -0.24316  -0.23860
 Alpha  occ. eigenvalues --   -0.23486  -0.22958  -0.22680  -0.22566  -0.17613
 Alpha virt. eigenvalues --   -0.13597  -0.08132  -0.02154  -0.01741  -0.01042
 Alpha virt. eigenvalues --    0.01034   0.01894   0.02227   0.02501   0.02779
 Alpha virt. eigenvalues --    0.03244   0.03562   0.03908   0.04290   0.04532

 Mulliken charges:
               1
     1  O   -0.235412
     2  O   -0.076123
     3  O   -0.153278
     4  O   -0.272373
     5  O   -0.188984
     6  O   -0.272875
     7  N   -0.050712
     8  N   -0.195476
     9  N   -0.073092
    10  N   -0.349303
    11  C    0.096934
    12  C    0.247574
    13  C   -0.114316
    14  C   -0.151131
    15  C   -0.070594
    16  C   -0.049670
    17  C   -0.200118
    18  C    0.123644
    19  C   -0.077951
    20  C   -0.044576
    21  C    0.132006
    22  C    0.116150
    23  C   -0.023167
    24  C    0.114336
    25  C    0.044317
    26  C   -0.122484
    27  C   -0.060078
    28  C    0.204232
    29  C   -0.008836
    30  C    0.040304
    31  C    0.035764
    32  C    0.156820
    33  C   -0.090479
    34  C    0.096657
    35  C    0.075724
    36  C   -0.087853
    37  C    0.145748
    38  C    0.088163
    39  C   -0.181993
    40  C    0.239289
    41  C   -0.006689
    42  C   -0.031295
    43  C   -0.080853
    44  H    0.017203
    45  H   -0.023722
    46  H   -0.059350
    47  H    0.101098
    48  H    0.131657
    49  H    0.004699
    50  H   -0.030228
    51  H   -0.040591
    52  H    0.020127
    53  H   -0.001583
    54  H    0.041770
    55  H    0.017601
    56  H    0.054433
    57  H    0.064214
    58  H    0.025616
    59  H    0.044071
    60  H    0.130993
    61  H    0.048616
    62  H    0.046754
    63  H    0.039542
    64  H    0.031338
    65  H    0.016752
    66  H    0.009816
    67  H    0.006014
    68  H   -0.002832
    69  H   -0.010100
    70  H    0.010779
    71  H    0.022381
    72  H    0.097307
    73  H    0.004643
    74  H    0.065823
    75  H    0.054253
    76  H    0.066448
    77  H    0.226806
    78  H    0.051027
    79  H    0.028668
 Sum of Mulliken charges =  -0.00000

 Dipole moment (field-independent basis, Debye):
    X=              4.7196    Y=              3.8051    Z=             -1.3520  Tot=              6.2114
 Quadrupole moment (field-independent basis, Debye-Ang):
   XX=           -238.3115   YY=           -231.8711   ZZ=           -264.7962
   XY=              3.8865   XZ=            -24.4086   YZ=            -14.9737

 Normal termination of Gaussian 16 at Mon Jul 29 01:52:46 2019.
