 Gaussian 16, Revision A.03,
 Gaussian 16:  ES64L-G16RevA.03 25-Dec-2016

 --------------------------
 # td=(NStates=1) B3LYP/SVP
 --------------------------

 --
 TD
 --
 Symbolic Z-matrix:
 Charge =  0 Multiplicity = 1

                         Standard orientation:
 ---------------------------------------------------------------------
 Center     Atomic      Atomic             Coordinates (Angstroms)
 Number     Number       Type             X           Y           Z
 ---------------------------------------------------------------------
      1          8           0        5.314470   -0.296953   -3.304258
      2          8           0       -3.226540   -2.677586    3.001931
      3          8           0       -3.327124   -0.435701    2.945743
      4          8           0       -1.550063    7.192025    1.446020
      5          8           0       -0.700155    6.997624   -0.622982
      6          8           0       -1.614908   -4.012328    0.261617
      7          7           0        2.308206    0.965324    0.588165
      8          7           0        4.325981   -0.598903   -1.210932
      9          7           0       -1.829423    0.702450   -0.397165
     10          7           0       -2.526961   -1.905577   -0.469940
     11          6           0        4.727952   -1.204166    0.102958
     12          6           0        4.372260   -0.312177    1.217588
     13          6           0        2.958463    0.095546    1.304291
     14          6           0        1.895161   -0.518489    2.156128
     15          6           0        0.606642    0.121653    1.884787
     16          6           0        0.932812    1.088611    0.798155
     17          6           0        6.241484   -1.376322   -0.081775
     18          6           0       -0.603035   -0.128792    2.665576
     19          6           0        6.596095   -0.927116   -1.343601
     20          6           0        0.162112    2.055643    0.179810
     21          6           0       -1.091589    1.860310   -0.297523
     22          6           0        5.321701   -0.656388   -2.156175
     23          6           0       -1.976213    2.903392   -1.034732
     24          6           0        2.114913   -1.476942    3.319206
     25          6           0        7.154163   -2.017216    0.892701
     26          6           0       -3.136492    2.329747   -1.478866
     27          6           0       -1.241905   -1.503350    2.492069
     28          6           0       -2.990337    0.870810   -1.231160
     29          6           0       -1.664751    4.343838   -1.019960
     30          6           0        7.831207   -0.840160   -2.079689
     31          6           0       -1.641207    5.052975    0.416338
     32          6           0       -4.278876    2.992670   -2.156107
     33          6           0       -3.817607   -0.263618   -1.401739
     34          6           0       -2.765991   -1.487125    2.802740
     35          6           0       -3.547607   -1.602142   -1.112358
     36          6           0        9.018657   -0.746325   -1.363122
     37          6           0       -1.261801    6.499122    0.339375
     38          6           0       -4.425567   -2.755304   -1.445746
     39          6           0       -3.834376   -3.848193   -0.845936
     40          6           0       -2.546456   -3.391107   -0.215101
     41          6           0       -5.677361   -2.686325   -2.178422
     42          6           0       -4.205795   -5.324932   -0.806704
     43          6           0       -6.531680   -3.692365   -2.436659
     44          1           0        4.204557   -2.201562    0.095437
     45          1           0        4.984880    0.645220    1.188993
     46          1           0        4.823891   -0.930114    2.223740
     47          1           0        2.682455    1.434733   -0.148723
     48          1           0        3.235854   -0.576626   -1.466018
     49          1           0       -0.306631    0.401473    3.530459
     50          1           0       -1.316985    0.604632    2.208133
     51          1           0        0.531437    3.012980    0.054564
     52          1           0        3.109854   -1.884127    3.659583
     53          1           0        1.658759   -1.162016    4.154828
     54          1           0        1.537070   -2.431314    3.190557
     55          1           0        6.624960   -2.866877    1.529203
     56          1           0        7.493992   -1.093055    1.513595
     57          1           0        8.001826   -2.534306    0.379001
     58          1           0       -1.001992   -2.007757    1.690921
     59          1           0       -0.574396   -2.087355    3.111766
     60          1           0       -1.562234   -0.344744   -0.284435
     61          1           0       -2.187212    4.954284   -1.818284
     62          1           0       -0.641595    4.582919   -1.436860
     63          1           0        7.748058   -0.788838   -3.083036
     64          1           0       -0.820332    4.667224    1.057819
     65          1           0       -2.757664    4.864390    1.108053
     66          1           0       -4.174729    4.117265   -2.319547
     67          1           0       -5.105976    2.839292   -1.684711
     68          1           0       -4.543752    2.646212   -3.169737
     69          1           0       -4.532611    0.056703   -2.150647
     70          1           0        9.370978   -0.615870   -0.293411
     71          1           0        9.850407   -0.908489   -2.126553
     72          1           0       -4.104991   -2.623781    3.298747
     73          1           0       -5.640277   -1.833011   -2.546847
     74          1           0       -5.242797   -5.252251   -0.261786
     75          1           0       -4.414880   -5.597239   -1.690719
     76          1           0       -3.459169   -5.957148   -0.263022
     77          1           0       -0.957853    8.073190    1.324242
     78          1           0       -7.457948   -3.550102   -3.175752
     79          1           0       -6.334882   -4.668207   -2.113095
 ---------------------------------------------------------------------

 SCF Done:  E(RB3LYP) =  -1947.79885819     A.U. after   16 cycles

 Excitation energies and oscillator strengths:

 Excited State   1:      Singlet-A      1.8938 eV  654.68 nm  f=0.3868  <S**2>=0.000
     155 ->156         0.70688
     155 <-156        -0.10863
 This state for optimization and/or second-order correction.
 Total Energy, E(TD-HF/TD-DFT) =  -1947.72926154
 Copying the excited state density for this state as the 1-particle RhoCI density.

 The electronic state is 1-A.
 Alpha  occ. eigenvalues --  -19.19636 -19.18550 -19.12981 -19.12387 -19.11209
 Alpha  occ. eigenvalues --  -19.09794 -14.38466 -14.35682 -14.35381 -14.28897
 Alpha  occ. eigenvalues --  -10.32534 -10.30990 -10.27946 -10.27853 -10.25032
 Alpha  occ. eigenvalues --  -10.24832 -10.23776 -10.23554 -10.23190 -10.23063
 Alpha  occ. eigenvalues --  -10.22461 -10.22327 -10.22057 -10.21879 -10.21427
 Alpha  occ. eigenvalues --  -10.21402 -10.21286 -10.20595 -10.20544 -10.20305
 Alpha  occ. eigenvalues --  -10.20170 -10.19864 -10.19763 -10.19399 -10.19351
 Alpha  occ. eigenvalues --  -10.19240 -10.19142 -10.19113 -10.19054 -10.18446
 Alpha  occ. eigenvalues --  -10.18345 -10.17602 -10.17119  -1.11708  -1.09957
 Alpha  occ. eigenvalues --   -1.02552  -1.02506  -1.00982  -1.00340  -0.99735
 Alpha  occ. eigenvalues --   -0.95535  -0.93386  -0.93070  -0.82051  -0.81872
 Alpha  occ. eigenvalues --   -0.81438  -0.81285  -0.80651  -0.79501  -0.77303
 Alpha  occ. eigenvalues --   -0.77183  -0.75958  -0.75426  -0.74647  -0.72324
 Alpha  occ. eigenvalues --   -0.71165  -0.70455  -0.69855  -0.69612  -0.68507
 Alpha  occ. eigenvalues --   -0.67880  -0.65921  -0.64083  -0.62696  -0.61278
 Alpha  occ. eigenvalues --   -0.60502  -0.59139  -0.58731  -0.57378  -0.56694
 Alpha  occ. eigenvalues --   -0.55855  -0.55340  -0.54765  -0.53551  -0.53267
 Alpha  occ. eigenvalues --   -0.52526  -0.51653  -0.50349  -0.50269  -0.49608
 Alpha  occ. eigenvalues --   -0.49010  -0.48528  -0.48087  -0.47815  -0.47668
 Alpha  occ. eigenvalues --   -0.47211  -0.47105  -0.47087  -0.45776  -0.45627
 Alpha  occ. eigenvalues --   -0.45088  -0.44865  -0.44462  -0.44411  -0.44299
 Alpha  occ. eigenvalues --   -0.44038  -0.43109  -0.42893  -0.42806  -0.42489
 Alpha  occ. eigenvalues --   -0.42200  -0.42072  -0.41669  -0.41062  -0.41040
 Alpha  occ. eigenvalues --   -0.40903  -0.40573  -0.40187  -0.40004  -0.39900
 Alpha  occ. eigenvalues --   -0.39552  -0.39313  -0.39009  -0.38817  -0.38443
 Alpha  occ. eigenvalues --   -0.37788  -0.37366  -0.37193  -0.36923  -0.36657
 Alpha  occ. eigenvalues --   -0.36479  -0.36377  -0.35809  -0.35396  -0.34729
 Alpha  occ. eigenvalues --   -0.33784  -0.33178  -0.32737  -0.32128  -0.31430
 Alpha  occ. eigenvalues --   -0.30731  -0.30111  -0.29189  -0.28645  -0.28604
 Alpha  occ. eigenvalues --   -0.27083  -0.26448  -0.25495  -0.25331  -0.24357
 Alpha  occ. eigenvalues --   -0.23947  -0.23095  -0.22759  -0.22246  -0.18082
 Alpha virt. eigenvalues --   -0.10579  -0.06257  -0.05665  -0.00650  -0.00350
 Alpha virt. eigenvalues --    0.00789   0.01232   0.02169   0.02403   0.03060
 Alpha virt. eigenvalues --    0.03858   0.04125   0.04507   0.05170   0.05669

 Mulliken charges:
               1
     1  O   -0.213802
     2  O   -0.093975
     3  O   -0.218648
     4  O   -0.212384
     5  O   -0.247730
     6  O   -0.185428
     7  N    0.049623
     8  N   -0.288597
     9  N   -0.161295
    10  N   -0.284448
    11  C    0.134666
    12  C    0.125195
    13  C   -0.094113
    14  C   -0.156921
    15  C   -0.152349
    16  C    0.054995
    17  C   -0.198852
    18  C    0.146528
    19  C   -0.069473
    20  C   -0.095365
    21  C    0.113242
    22  C    0.168800
    23  C   -0.066105
    24  C    0.114465
    25  C    0.022685
    26  C   -0.077630
    27  C    0.112289
    28  C    0.026137
    29  C    0.043978
    30  C    0.037208
    31  C   -0.057658
    32  C    0.164969
    33  C   -0.072956
    34  C    0.132015
    35  C    0.098663
    36  C   -0.060098
    37  C    0.136850
    38  C   -0.007820
    39  C   -0.265509
    40  C    0.188766
    41  C    0.151012
    42  C    0.171612
    43  C   -0.015405
    44  H    0.031292
    45  H    0.005642
    46  H    0.040799
    47  H    0.071065
    48  H    0.162712
    49  H    0.003656
    50  H    0.003229
    51  H   -0.046642
    52  H    0.004740
    53  H   -0.025816
    54  H    0.011499
    55  H    0.040510
    56  H    0.057672
    57  H    0.048590
    58  H   -0.029064
    59  H   -0.010501
    60  H    0.183143
    61  H    0.020871
    62  H    0.022242
    63  H   -0.020165
    64  H    0.052088
    65  H    0.077004
    66  H    0.016735
    67  H   -0.031061
    68  H    0.017813
    69  H   -0.022656
    70  H    0.051195
    71  H    0.026441
    72  H    0.152090
    73  H   -0.136378
    74  H    0.035730
    75  H   -0.021025
    76  H    0.043231
    77  H    0.223315
    78  H    0.049308
    79  H   -0.006445
 Sum of Mulliken charges =  -0.00000

 Dipole moment (field-independent basis, Debye):
    X=             -0.5322    Y=              0.5703    Z=              3.0600  Tot=              3.1579
 Quadrupole moment (field-independent basis, Debye-Ang):
   XX=           -223.8240   YY=           -240.8746   ZZ=           -260.1034
   XY=              1.0558   XZ=             32.3790   YZ=              3.5553

 Normal termination of Gaussian 16 at Mon Oct  7 13:20:16 2019.
