 Gaussian 16, Revision A.03,
 Gaussian 16:  ES64L-G16RevA.03 25-Dec-2016

 --------------------------
 # td=(NStates=1) B3LYP/SVP
 --------------------------

 --
 TD
 --
 Symbolic Z-matrix:
 Charge =  0 Multiplicity = 1

                         Standard orientation:
 ---------------------------------------------------------------------
 Center     Atomic      Atomic             Coordinates (Angstroms)
 Number     Number       Type             X           Y           Z
 ---------------------------------------------------------------------
      1          8           0       -3.294452   -1.583557   -2.835525
      2          8           0        3.072839    3.267162    3.378499
      3          8           0        3.825200    1.353937    4.330946
      4          8           0        7.569454   -2.006245   -0.704940
      5          8           0        6.354429   -3.201588   -2.100565
      6          8           0       -2.618091    1.679918    1.276582
      7          7           0       -0.230198   -2.346892    0.911786
      8          7           0       -2.673702   -1.135155   -0.637409
      9          7           0        1.212884    0.139450   -0.855745
     10          7           0       -0.985925    1.492093   -0.325840
     11          6           0       -3.387701   -1.261282    0.673069
     12          6           0       -2.576684   -2.188959    1.628053
     13          6           0       -1.280287   -1.928682    1.823365
     14          6           0       -0.586154   -1.209228    2.841627
     15          6           0        0.721486   -1.096003    2.521103
     16          6           0        1.003315   -1.831608    1.284956
     17          6           0       -4.717616   -1.825965    0.315478
     18          6           0        1.776187   -0.334389    3.264185
     19          6           0       -4.797512   -2.080917   -1.071610
     20          6           0        2.015989   -1.861903    0.271344
     21          6           0        2.079990   -0.867113   -0.669027
     22          6           0       -3.522635   -1.615316   -1.641688
     23          6           0        2.983448   -0.618850   -1.754825
     24          6           0       -1.270411   -0.515601    3.971260
     25          6           0       -5.768316   -1.966047    1.293557
     26          6           0        2.645810    0.470050   -2.459748
     27          6           0        1.885706    1.170296    2.888941
     28          6           0        1.403191    1.031625   -1.847287
     29          6           0        4.117626   -1.464534   -2.115975
     30          6           0       -5.954074   -2.616851   -1.907588
     31          6           0        5.308558   -1.264871   -1.216637
     32          6           0        3.295221    1.152391   -3.595607
     33          6           0        0.708967    2.083672   -2.088362
     34          6           0        2.981286    1.880694    3.603911
     35          6           0       -0.586455    2.299741   -1.386273
     36          6           0       -6.967454   -3.461153   -1.479307
     37          6           0        6.465881   -2.334609   -1.287009
     38          6           0       -1.362116    3.578839   -1.298492
     39          6           0       -2.315484    3.355633   -0.296543
     40          6           0       -2.036439    2.167102    0.232430
     41          6           0       -1.085742    4.626087   -2.200266
     42          6           0       -3.369912    4.399814    0.063234
     43          6           0       -1.671412    5.838436   -2.390893
     44          1           0       -3.421323   -0.240118    1.004634
     45          1           0       -2.741229   -3.220706    1.435464
     46          1           0       -3.232052   -1.984780    2.615959
     47          1           0       -0.556326   -2.682229   -0.044324
     48          1           0       -2.054483   -0.373956   -0.901167
     49          1           0        1.565655   -0.421221    4.283951
     50          1           0        2.694705   -0.798157    3.306716
     51          1           0        2.857482   -2.549812    0.356730
     52          1           0       -2.080330   -1.105392    4.675180
     53          1           0       -0.505909   -0.303082    4.720575
     54          1           0       -1.851365    0.257001    3.678982
     55          1           0       -5.601209   -1.413554    2.171758
     56          1           0       -5.916741   -3.096989    1.615317
     57          1           0       -6.884083   -1.641492    1.005071
     58          1           0        2.009653    1.294604    1.716450
     59          1           0        0.796830    1.620820    3.099993
     60          1           0        0.451019    0.124153   -0.130538
     61          1           0        4.527715   -1.506320   -3.147264
     62          1           0        3.804051   -2.575946   -1.855489
     63          1           0       -5.653730   -2.121934   -2.996743
     64          1           0        5.167917   -1.244770   -0.225851
     65          1           0        5.560766   -0.350611   -1.470919
     66          1           0        3.970578    0.734367   -4.205054
     67          1           0        3.756508    2.096179   -3.272497
     68          1           0        2.486076    1.458094   -4.329627
     69          1           0        1.169196    2.642057   -2.830091
     70          1           0       -7.259509   -3.889537   -0.530799
     71          1           0       -7.796136   -3.739029   -2.118783
     72          1           0        3.789448    3.329329    3.986572
     73          1           0       -0.460506    4.401224   -2.881638
     74          1           0       -3.839618    4.847495   -0.933555
     75          1           0       -4.040878    3.949076    0.726159
     76          1           0       -2.795785    5.228759    0.793002
     77          1           0        8.338448   -2.716741   -0.912674
     78          1           0       -1.218918    6.501035   -3.028761
     79          1           0       -2.389899    6.105691   -1.602498
 ---------------------------------------------------------------------

 SCF Done:  E(RB3LYP) =  -1947.78431469     A.U. after   21 cycles

 Excitation energies and oscillator strengths:

 Excited State   1:      Singlet-A      0.6397 eV 1938.28 nm  f=0.0005  <S**2>=0.000
     155 ->156         0.70451
 This state for optimization and/or second-order correction.
 Total Energy, E(TD-HF/TD-DFT) =  -1947.76080757
 Copying the excited state density for this state as the 1-particle RhoCI density.

 The electronic state is 1-A.
 Alpha  occ. eigenvalues --  -19.20584 -19.17397 -19.13420 -19.12475 -19.12060
 Alpha  occ. eigenvalues --  -19.07729 -14.36940 -14.36763 -14.32126 -14.31558
 Alpha  occ. eigenvalues --  -10.32496 -10.32344 -10.27310 -10.26837 -10.25923
 Alpha  occ. eigenvalues --  -10.25494 -10.24628 -10.22297 -10.21990 -10.21968
 Alpha  occ. eigenvalues --  -10.21817 -10.21754 -10.21730 -10.21362 -10.21255
 Alpha  occ. eigenvalues --  -10.21073 -10.20973 -10.20826 -10.20788 -10.20782
 Alpha  occ. eigenvalues --  -10.20661 -10.20544 -10.20281 -10.20053 -10.19475
 Alpha  occ. eigenvalues --  -10.19141 -10.19092 -10.18988 -10.18831 -10.17693
 Alpha  occ. eigenvalues --  -10.17621 -10.17575 -10.16795  -1.11879  -1.09223
 Alpha  occ. eigenvalues --   -1.01774  -1.01455  -1.00945  -1.00289  -0.99650
 Alpha  occ. eigenvalues --   -0.94683  -0.93342  -0.90761  -0.84468  -0.83969
 Alpha  occ. eigenvalues --   -0.82705  -0.80560  -0.80198  -0.79629  -0.79255
 Alpha  occ. eigenvalues --   -0.77867  -0.76539  -0.76063  -0.74163  -0.73607
 Alpha  occ. eigenvalues --   -0.71475  -0.70220  -0.69701  -0.69082  -0.67620
 Alpha  occ. eigenvalues --   -0.67182  -0.66730  -0.65229  -0.62517  -0.61638
 Alpha  occ. eigenvalues --   -0.60944  -0.59443  -0.58699  -0.58045  -0.56787
 Alpha  occ. eigenvalues --   -0.56154  -0.55449  -0.55028  -0.53310  -0.52943
 Alpha  occ. eigenvalues --   -0.52260  -0.51821  -0.51545  -0.50548  -0.49937
 Alpha  occ. eigenvalues --   -0.49278  -0.48891  -0.48834  -0.48634  -0.48401
 Alpha  occ. eigenvalues --   -0.47860  -0.47431  -0.47190  -0.46716  -0.46076
 Alpha  occ. eigenvalues --   -0.45752  -0.45296  -0.45222  -0.45165  -0.44436
 Alpha  occ. eigenvalues --   -0.43631  -0.43229  -0.42964  -0.42697  -0.42579
 Alpha  occ. eigenvalues --   -0.42291  -0.42175  -0.41569  -0.41443  -0.41124
 Alpha  occ. eigenvalues --   -0.40802  -0.40461  -0.40299  -0.39767  -0.39675
 Alpha  occ. eigenvalues --   -0.39507  -0.39069  -0.38873  -0.38360  -0.38155
 Alpha  occ. eigenvalues --   -0.38065  -0.37814  -0.37241  -0.37048  -0.36498
 Alpha  occ. eigenvalues --   -0.36408  -0.35965  -0.35537  -0.34784  -0.34169
 Alpha  occ. eigenvalues --   -0.33420  -0.33291  -0.32856  -0.32499  -0.32009
 Alpha  occ. eigenvalues --   -0.31499  -0.29200  -0.28980  -0.28752  -0.28660
 Alpha  occ. eigenvalues --   -0.28111  -0.26558  -0.26345  -0.24538  -0.24232
 Alpha  occ. eigenvalues --   -0.23653  -0.23216  -0.22629  -0.22348  -0.18668
 Alpha virt. eigenvalues --   -0.14044  -0.07925  -0.04710  -0.02934  -0.01512
 Alpha virt. eigenvalues --   -0.00280   0.00481   0.01394   0.01593   0.03694
 Alpha virt. eigenvalues --    0.04324   0.04501   0.04849   0.05389   0.05915

 Mulliken charges:
               1
     1  O   -0.243697
     2  O   -0.192591
     3  O   -0.255400
     4  O   -0.178265
     5  O   -0.220186
     6  O   -0.268228
     7  N   -0.148707
     8  N   -0.253904
     9  N   -0.060043
    10  N   -0.277801
    11  C    0.120897
    12  C    0.131071
    13  C   -0.002427
    14  C   -0.058161
    15  C   -0.133459
    16  C    0.009484
    17  C   -0.154788
    18  C    0.190173
    19  C   -0.081569
    20  C   -0.094833
    21  C    0.078152
    22  C    0.119285
    23  C   -0.050771
    24  C    0.091662
    25  C    0.033414
    26  C   -0.094324
    27  C   -0.074185
    28  C    0.123072
    29  C    0.050963
    30  C    0.008467
    31  C    0.076206
    32  C    0.140215
    33  C   -0.069843
    34  C    0.185284
    35  C    0.129130
    36  C   -0.052155
    37  C    0.110714
    38  C    0.039767
    39  C   -0.117971
    40  C    0.122934
    41  C    0.007227
    42  C    0.063508
    43  C    0.051530
    44  H    0.029880
    45  H   -0.023541
    46  H    0.003537
    47  H    0.141753
    48  H    0.136345
    49  H   -0.031623
    50  H   -0.031232
    51  H    0.005228
    52  H    0.005154
    53  H   -0.002980
    54  H    0.009688
    55  H    0.004796
    56  H    0.046549
    57  H    0.047023
    58  H    0.060981
    59  H    0.074908
    60  H    0.187820
    61  H    0.023510
    62  H    0.022961
    63  H    0.064950
    64  H   -0.013407
    65  H   -0.024814
    66  H   -0.022262
    67  H    0.027286
    68  H    0.024898
    69  H   -0.060565
    70  H    0.017550
    71  H    0.017999
    72  H    0.145520
    73  H   -0.091717
    74  H    0.066912
    75  H    0.008823
    76  H    0.058829
    77  H    0.232487
    78  H    0.011553
    79  H    0.025360
 Sum of Mulliken charges =  -0.00000

 Dipole moment (field-independent basis, Debye):
    X=              3.2461    Y=              3.9731    Z=             -0.7380  Tot=              5.1834
 Quadrupole moment (field-independent basis, Debye-Ang):
   XX=           -224.0827   YY=           -238.7297   ZZ=           -265.0544
   XY=             -2.5121   XZ=            -24.1624   YZ=            -21.8803

 Normal termination of Gaussian 16 at Wed Jul 24 17:52:35 2019.
