 Gaussian 16, Revision A.03,
 Gaussian 16:  ES64L-G16RevA.03 25-Dec-2016

 --------------------------
 # td=(NStates=1) B3LYP/SVP
 --------------------------

 --
 TD
 --
 Symbolic Z-matrix:
 Charge =  0 Multiplicity = 1

                         Standard orientation:
 ---------------------------------------------------------------------
 Center     Atomic      Atomic             Coordinates (Angstroms)
 Number     Number       Type             X           Y           Z
 ---------------------------------------------------------------------
      1          8           0        5.496211   -0.102206   -3.227916
      2          8           0       -3.034425   -2.893790    3.221845
      3          8           0       -3.205342   -0.620648    2.973304
      4          8           0       -1.137760    7.249721    1.553789
      5          8           0       -0.337941    6.968431   -0.642816
      6          8           0       -2.083693   -4.084440   -0.072168
      7          7           0        2.325459    0.830900    0.601023
      8          7           0        4.353160   -0.677652   -1.322635
      9          7           0       -1.856329    0.726459   -0.354299
     10          7           0       -2.683744   -1.816559   -0.555227
     11          6           0        4.782829   -1.399538   -0.130260
     12          6           0        4.388441   -0.553041    1.196768
     13          6           0        2.895383   -0.167429    1.307013
     14          6           0        1.980058   -0.753113    2.166650
     15          6           0        0.707779   -0.024786    1.841419
     16          6           0        1.049056    0.928505    0.874974
     17          6           0        6.231331   -1.461478   -0.206075
     18          6           0       -0.628025   -0.243553    2.490659
     19          6           0        6.702952   -1.033373   -1.386603
     20          6           0        0.220579    1.897759    0.184093
     21          6           0       -1.077829    1.865287   -0.177478
     22          6           0        5.438915   -0.502396   -2.164721
     23          6           0       -1.803811    2.955324   -0.834638
     24          6           0        2.050725   -1.835390    3.224469
     25          6           0        6.961164   -2.203645    0.893923
     26          6           0       -3.013287    2.440630   -1.346510
     27          6           0       -1.168435   -1.677154    2.552580
     28          6           0       -3.068742    0.930157   -1.065715
     29          6           0       -1.362855    4.414199   -0.856600
     30          6           0        8.006814   -0.907824   -2.043523
     31          6           0       -1.403789    5.187971    0.475295
     32          6           0       -4.146390    3.180883   -1.794825
     33          6           0       -4.030893    0.061786   -1.246598
     34          6           0       -2.604817   -1.617842    2.946158
     35          6           0       -3.832826   -1.327321   -1.084717
     36          6           0        9.264037   -1.019458   -1.356607
     37          6           0       -0.911219    6.536454    0.388177
     38          6           0       -4.830970   -2.497939   -1.400754
     39          6           0       -4.110518   -3.629332   -1.138746
     40          6           0       -2.850088   -3.197148   -0.523324
     41          6           0       -6.077926   -2.230173   -2.076126
     42          6           0       -4.629942   -4.896283   -1.248624
     43          6           0       -7.050643   -3.165859   -2.386183
     44          1           0        4.074274   -2.470972   -0.136961
     45          1           0        5.123206    0.243885    1.008603
     46          1           0        4.588602   -1.211508    2.038408
     47          1           0        2.762567    1.318942   -0.170874
     48          1           0        3.477619   -0.744012   -1.783681
     49          1           0       -0.429435    0.141506    3.456955
     50          1           0       -1.363516    0.148209    1.972825
     51          1           0        0.740338    2.858806   -0.253605
     52          1           0        3.187462   -2.031382    3.372397
     53          1           0        1.673174   -1.137057    4.184515
     54          1           0        1.509654   -2.697973    2.772035
     55          1           0        6.377894   -2.721026    1.792606
     56          1           0        7.595594   -1.579008    1.713809
     57          1           0        7.728162   -2.907570    0.389396
     58          1           0       -1.059484   -2.301721    1.746600
     59          1           0       -0.789990   -2.236985    3.159209
     60          1           0       -1.565157   -0.237124   -0.197360
     61          1           0       -1.972705    4.919344   -1.688014
     62          1           0       -0.441320    4.369128   -1.280340
     63          1           0        7.983639   -0.814818   -3.034569
     64          1           0       -0.888724    4.484858    1.160851
     65          1           0       -2.489879    5.169922    0.873780
     66          1           0       -3.789369    4.128368   -2.002708
     67          1           0       -4.881334    3.404731   -0.730208
     68          1           0       -4.715701    2.646653   -2.630670
     69          1           0       -4.919681    0.225650   -1.588276
     70          1           0        9.263528   -1.238190   -0.252191
     71          1           0       10.215182   -0.879156   -2.033216
     72          1           0       -4.046376   -2.627745    3.239564
     73          1           0       -6.345965   -1.314894   -2.357248
     74          1           0       -5.664330   -5.064684   -0.933929
     75          1           0       -4.604990   -5.119450   -2.445297
     76          1           0       -3.983146   -5.683430   -0.830997
     77          1           0       -0.490246    7.979296    1.240085
     78          1           0       -7.903610   -2.863521   -3.093988
     79          1           0       -6.964498   -4.064912   -2.149140
 ---------------------------------------------------------------------

 SCF Done:  E(RB3LYP) =  -1947.76039195     A.U. after   16 cycles

 Excitation energies and oscillator strengths:

 Excited State   1:      Singlet-A      2.0873 eV  594.00 nm  f=0.4255  <S**2>=0.000
     155 ->156         0.69783
     155 <-156        -0.10148
 This state for optimization and/or second-order correction.
 Total Energy, E(TD-HF/TD-DFT) =  -1947.68368658
 Copying the excited state density for this state as the 1-particle RhoCI density.

 The electronic state is 1-A.
 Alpha  occ. eigenvalues --  -19.20311 -19.17443 -19.14533 -19.12338 -19.11176
 Alpha  occ. eigenvalues --  -19.10221 -14.37856 -14.36080 -14.35266 -14.29732
 Alpha  occ. eigenvalues --  -10.33686 -10.30037 -10.28418 -10.26502 -10.25941
 Alpha  occ. eigenvalues --  -10.24897 -10.23982 -10.23953 -10.22882 -10.22600
 Alpha  occ. eigenvalues --  -10.22130 -10.22103 -10.22090 -10.21963 -10.21869
 Alpha  occ. eigenvalues --  -10.21849 -10.21618 -10.21242 -10.21214 -10.21027
 Alpha  occ. eigenvalues --  -10.20779 -10.20674 -10.20291 -10.20178 -10.19982
 Alpha  occ. eigenvalues --  -10.19042 -10.18991 -10.18953 -10.18924 -10.18596
 Alpha  occ. eigenvalues --  -10.17775 -10.16968 -10.15328  -1.09656  -1.09187
 Alpha  occ. eigenvalues --   -1.07410  -1.01004  -1.00566  -1.00363  -0.99731
 Alpha  occ. eigenvalues --   -0.96446  -0.95085  -0.91550  -0.82948  -0.82436
 Alpha  occ. eigenvalues --   -0.82124  -0.81509  -0.81137  -0.79501  -0.78750
 Alpha  occ. eigenvalues --   -0.77372  -0.77129  -0.76354  -0.74708  -0.72675
 Alpha  occ. eigenvalues --   -0.71120  -0.70219  -0.69787  -0.68984  -0.68296
 Alpha  occ. eigenvalues --   -0.67699  -0.65643  -0.63870  -0.61464  -0.60815
 Alpha  occ. eigenvalues --   -0.59394  -0.58357  -0.58182  -0.57058  -0.56459
 Alpha  occ. eigenvalues --   -0.56028  -0.55826  -0.55434  -0.55028  -0.54214
 Alpha  occ. eigenvalues --   -0.52559  -0.51980  -0.50904  -0.50812  -0.50326
 Alpha  occ. eigenvalues --   -0.50183  -0.49616  -0.48938  -0.48448  -0.48027
 Alpha  occ. eigenvalues --   -0.48001  -0.47809  -0.47389  -0.46614  -0.46182
 Alpha  occ. eigenvalues --   -0.45504  -0.44844  -0.44631  -0.44342  -0.44000
 Alpha  occ. eigenvalues --   -0.43879  -0.43390  -0.43352  -0.43006  -0.42666
 Alpha  occ. eigenvalues --   -0.42524  -0.42161  -0.41625  -0.41293  -0.41204
 Alpha  occ. eigenvalues --   -0.40933  -0.40572  -0.40422  -0.40325  -0.40010
 Alpha  occ. eigenvalues --   -0.39538  -0.39499  -0.38999  -0.38778  -0.38520
 Alpha  occ. eigenvalues --   -0.38030  -0.37854  -0.37758  -0.37405  -0.37310
 Alpha  occ. eigenvalues --   -0.36449  -0.35782  -0.35705  -0.35357  -0.35142
 Alpha  occ. eigenvalues --   -0.34882  -0.33956  -0.33411  -0.32533  -0.32127
 Alpha  occ. eigenvalues --   -0.31389  -0.31287  -0.29799  -0.28406  -0.27805
 Alpha  occ. eigenvalues --   -0.27642  -0.27144  -0.26059  -0.25026  -0.24451
 Alpha  occ. eigenvalues --   -0.24054  -0.23660  -0.23531  -0.22228  -0.19021
 Alpha virt. eigenvalues --   -0.10795  -0.06665  -0.06481  -0.02976  -0.01635
 Alpha virt. eigenvalues --    0.00771   0.01794   0.02489   0.02985   0.03158
 Alpha virt. eigenvalues --    0.04000   0.04134   0.04314   0.04567   0.04868

 Mulliken charges:
               1
     1  O   -0.121836
     2  O   -0.228287
     3  O   -0.184692
     4  O   -0.209929
     5  O   -0.266353
     6  O   -0.246126
     7  N    0.039182
     8  N   -0.192153
     9  N   -0.127887
    10  N   -0.271585
    11  C   -0.010574
    12  C    0.213616
    13  C   -0.116173
    14  C   -0.162364
    15  C   -0.183600
    16  C    0.041964
    17  C   -0.098099
    18  C    0.231612
    19  C   -0.046584
    20  C   -0.113874
    21  C    0.103033
    22  C    0.085731
    23  C   -0.123340
    24  C    0.049807
    25  C   -0.043115
    26  C   -0.140134
    27  C    0.157686
    28  C    0.231805
    29  C    0.125475
    30  C    0.026014
    31  C    0.004144
    32  C    0.077774
    33  C   -0.016827
    34  C    0.106140
    35  C    0.002965
    36  C   -0.056070
    37  C    0.195166
    38  C    0.087687
    39  C   -0.130419
    40  C    0.164909
    41  C   -0.014026
    42  C    0.036049
    43  C    0.051131
    44  H    0.049035
    45  H   -0.010884
    46  H   -0.013105
    47  H    0.108228
    48  H    0.117902
    49  H   -0.005318
    50  H   -0.045230
    51  H    0.012792
    52  H    0.013824
    53  H    0.064486
    54  H    0.077193
    55  H    0.039443
    56  H    0.042218
    57  H    0.059806
    58  H    0.007119
    59  H   -0.100460
    60  H    0.140703
    61  H    0.015847
    62  H   -0.013939
    63  H   -0.037203
    64  H    0.054228
    65  H    0.054782
    66  H   -0.015387
    67  H    0.050365
    68  H    0.047785
    69  H   -0.126869
    70  H    0.039675
    71  H    0.057934
    72  H    0.189775
    73  H   -0.060640
    74  H    0.043646
    75  H    0.038571
    76  H    0.023134
    77  H    0.195309
    78  H    0.036394
    79  H   -0.079001
 Sum of Mulliken charges =  -0.00000

 Dipole moment (field-independent basis, Debye):
    X=              0.3282    Y=              1.7281    Z=              1.6603  Tot=              2.4188
 Quadrupole moment (field-independent basis, Debye-Ang):
   XX=           -221.5015   YY=           -255.8436   ZZ=           -260.6437
   XY=             -7.3689   XZ=             27.4072   YZ=              5.8448

 Normal termination of Gaussian 16 at Tue Sep 17 06:09:46 2019.
