 Gaussian 16, Revision A.03,
 Gaussian 16:  ES64L-G16RevA.03 25-Dec-2016

 --------------------------
 # td=(NStates=1) B3LYP/SVP
 --------------------------

 --
 TD
 --
 Symbolic Z-matrix:
 Charge =  0 Multiplicity = 1

                         Standard orientation:
 ---------------------------------------------------------------------
 Center     Atomic      Atomic             Coordinates (Angstroms)
 Number     Number       Type             X           Y           Z
 ---------------------------------------------------------------------
      1          8           0       -3.398834   -1.518941   -2.780879
      2          8           0        2.929638    3.516304    3.013687
      3          8           0        3.804441    1.846791    4.216364
      4          8           0        7.641710   -1.790970   -0.409141
      5          8           0        6.785695   -3.068163   -2.239351
      6          8           0       -2.647665    1.754510    1.246138
      7          7           0       -0.248941   -2.334844    1.166603
      8          7           0       -2.731310   -1.307285   -0.544185
      9          7           0        1.168154    0.057862   -0.698481
     10          7           0       -0.982073    1.452661   -0.294366
     11          6           0       -3.338190   -1.224782    0.748604
     12          6           0       -2.638983   -2.121922    1.771902
     13          6           0       -1.179127   -1.816847    1.938006
     14          6           0       -0.605718   -0.907853    2.923087
     15          6           0        0.856220   -0.896420    2.580852
     16          6           0        0.972807   -1.754739    1.436035
     17          6           0       -4.694502   -1.805230    0.471315
     18          6           0        1.861257   -0.150305    3.357361
     19          6           0       -4.813173   -2.084439   -0.825344
     20          6           0        2.028416   -1.778848    0.455197
     21          6           0        2.039269   -0.832039   -0.584499
     22          6           0       -3.577838   -1.675669   -1.536437
     23          6           0        3.044904   -0.861291   -1.751547
     24          6           0       -1.246790   -0.174226    4.005866
     25          6           0       -5.765879   -2.160145    1.520835
     26          6           0        2.503158    0.203682   -2.499094
     27          6           0        2.043543    1.351633    2.760617
     28          6           0        1.429930    0.800951   -1.869513
     29          6           0        4.156261   -1.731008   -1.866132
     30          6           0       -5.846047   -2.759365   -1.722377
     31          6           0        5.408947   -1.305909   -0.966495
     32          6           0        2.991617    0.674204   -3.995981
     33          6           0        0.586390    1.930036   -2.189462
     34          6           0        2.969289    2.170844    3.418314
     35          6           0       -0.569564    2.243089   -1.384583
     36          6           0       -6.872570   -3.462674   -1.405578
     37          6           0        6.618612   -2.189480   -1.331756
     38          6           0       -1.399628    3.370933   -1.575796
     39          6           0       -2.259676    3.329533   -0.483799
     40          6           0       -2.032130    2.102576    0.236774
     41          6           0       -1.224831    4.415747   -2.591209
     42          6           0       -3.371991    4.365217   -0.058701
     43          6           0       -1.990257    5.523769   -2.822733
     44          1           0       -3.399351   -0.114819    1.117243
     45          1           0       -2.899456   -3.256807    1.471107
     46          1           0       -3.175962   -2.000610    2.712156
     47          1           0       -0.658416   -2.554831    0.319548
     48          1           0       -2.050018   -0.361375   -0.730233
     49          1           0        1.613056   -0.191055    4.366583
     50          1           0        2.897585   -0.575466    3.180132
     51          1           0        2.922713   -2.567524    0.592748
     52          1           0       -1.944241   -0.849008    4.636800
     53          1           0       -0.451913    0.355568    4.532844
     54          1           0       -1.763326    0.784089    3.584914
     55          1           0       -5.725665   -1.467648    2.420269
     56          1           0       -5.514497   -3.093385    1.763930
     57          1           0       -6.738768   -2.130912    1.082591
     58          1           0        2.238846    1.197545    1.629981
     59          1           0        0.983288    1.753167    2.811851
     60          1           0        0.300799    0.349037   -0.320830
     61          1           0        4.625535   -1.830790   -2.939886
     62          1           0        3.833212   -2.772071   -1.780811
     63          1           0       -5.763157   -2.466540   -2.778605
     64          1           0        5.252664   -1.321845    0.187080
     65          1           0        5.492434   -0.299023   -1.135475
     66          1           0        3.812209   -0.166584   -4.271898
     67          1           0        3.529469    1.670116   -3.973885
     68          1           0        2.019900    0.655518   -4.723137
     69          1           0        0.929794    2.440090   -3.137727
     70          1           0       -7.135921   -3.780594   -0.409944
     71          1           0       -7.472250   -4.020620   -2.279084
     72          1           0        3.826807    3.703281    3.530624
     73          1           0       -0.358529    4.404812   -3.316037
     74          1           0       -4.188417    4.266134   -0.841529
     75          1           0       -3.671295    3.959549    0.945717
     76          1           0       -2.874028    5.466607   -0.046143
     77          1           0        8.309951   -2.491126   -0.815829
     78          1           0       -1.737692    5.864147   -3.844054
     79          1           0       -2.928399    5.713831   -2.304916
 ---------------------------------------------------------------------

 SCF Done:  E(RB3LYP) =  -1947.83834401     A.U. after   22 cycles

 Excitation energies and oscillator strengths:

 Excited State   1:      Singlet-A      0.7585 eV 1634.64 nm  f=0.0001  <S**2>=0.000
     155 ->156         0.70391
 This state for optimization and/or second-order correction.
 Total Energy, E(TD-HF/TD-DFT) =  -1947.81047038
 Copying the excited state density for this state as the 1-particle RhoCI density.

 The electronic state is 1-A.
 Alpha  occ. eigenvalues --  -19.20754 -19.17153 -19.17044 -19.13283 -19.11871
 Alpha  occ. eigenvalues --  -19.07916 -14.37785 -14.36735 -14.33693 -14.31187
 Alpha  occ. eigenvalues --  -10.36039 -10.31581 -10.27596 -10.27026 -10.26311
 Alpha  occ. eigenvalues --  -10.26225 -10.26202 -10.24769 -10.24591 -10.24421
 Alpha  occ. eigenvalues --  -10.23771 -10.23730 -10.23577 -10.23050 -10.22046
 Alpha  occ. eigenvalues --  -10.22002 -10.21640 -10.21558 -10.21499 -10.21364
 Alpha  occ. eigenvalues --  -10.21141 -10.20580 -10.20537 -10.20347 -10.20105
 Alpha  occ. eigenvalues --  -10.19816 -10.18774 -10.18758 -10.18667 -10.18242
 Alpha  occ. eigenvalues --  -10.18216 -10.18027 -10.17720  -1.09073  -1.08526
 Alpha  occ. eigenvalues --   -1.03441  -1.02993  -1.00700  -0.99123  -0.98934
 Alpha  occ. eigenvalues --   -0.98516  -0.94269  -0.92070  -0.85027  -0.83178
 Alpha  occ. eigenvalues --   -0.81417  -0.80937  -0.80024  -0.79401  -0.78504
 Alpha  occ. eigenvalues --   -0.77029  -0.76424  -0.75742  -0.74766  -0.73175
 Alpha  occ. eigenvalues --   -0.71572  -0.70763  -0.70105  -0.69771  -0.68302
 Alpha  occ. eigenvalues --   -0.67416  -0.65979  -0.63910  -0.61570  -0.61087
 Alpha  occ. eigenvalues --   -0.59392  -0.58804  -0.58231  -0.57006  -0.56428
 Alpha  occ. eigenvalues --   -0.55761  -0.54740  -0.54569  -0.53594  -0.53351
 Alpha  occ. eigenvalues --   -0.52503  -0.51869  -0.51520  -0.51127  -0.50001
 Alpha  occ. eigenvalues --   -0.49762  -0.49333  -0.48877  -0.48796  -0.48066
 Alpha  occ. eigenvalues --   -0.47751  -0.47412  -0.46805  -0.46349  -0.46081
 Alpha  occ. eigenvalues --   -0.45481  -0.45207  -0.44741  -0.44393  -0.43553
 Alpha  occ. eigenvalues --   -0.43452  -0.43128  -0.42859  -0.42540  -0.42400
 Alpha  occ. eigenvalues --   -0.42316  -0.42218  -0.41845  -0.41358  -0.41168
 Alpha  occ. eigenvalues --   -0.40983  -0.40699  -0.40669  -0.40308  -0.40220
 Alpha  occ. eigenvalues --   -0.39660  -0.39128  -0.38830  -0.38419  -0.38113
 Alpha  occ. eigenvalues --   -0.37825  -0.37404  -0.37330  -0.36940  -0.36469
 Alpha  occ. eigenvalues --   -0.36200  -0.36017  -0.35764  -0.35355  -0.35279
 Alpha  occ. eigenvalues --   -0.34464  -0.34131  -0.32972  -0.32215  -0.31866
 Alpha  occ. eigenvalues --   -0.31709  -0.31467  -0.30174  -0.29870  -0.29699
 Alpha  occ. eigenvalues --   -0.28811  -0.27510  -0.26427  -0.25002  -0.23873
 Alpha  occ. eigenvalues --   -0.23601  -0.23195  -0.23032  -0.22549  -0.19363
 Alpha virt. eigenvalues --   -0.13924  -0.08551  -0.05053  -0.03142  -0.02526
 Alpha virt. eigenvalues --   -0.01052   0.00851   0.01741   0.02382   0.02736
 Alpha virt. eigenvalues --    0.03567   0.03899   0.04222   0.04400   0.04909

 Mulliken charges:
               1
     1  O   -0.292679
     2  O   -0.262443
     3  O   -0.225968
     4  O   -0.251749
     5  O   -0.263637
     6  O   -0.232938
     7  N    0.056622
     8  N   -0.248532
     9  N    0.068537
    10  N   -0.330091
    11  C    0.043406
    12  C    0.130147
    13  C   -0.138320
    14  C   -0.129380
    15  C   -0.100421
    16  C   -0.019202
    17  C   -0.236321
    18  C    0.116519
    19  C   -0.048185
    20  C   -0.149324
    21  C    0.029483
    22  C    0.146011
    23  C   -0.019147
    24  C    0.075036
    25  C    0.149946
    26  C   -0.134596
    27  C   -0.062315
    28  C    0.047525
    29  C    0.016253
    30  C    0.040627
    31  C    0.011457
    32  C   -0.012655
    33  C   -0.081345
    34  C    0.180554
    35  C    0.129625
    36  C   -0.074065
    37  C    0.225379
    38  C    0.096527
    39  C   -0.210654
    40  C    0.161812
    41  C   -0.078772
    42  C    0.026552
    43  C   -0.017495
    44  H    0.090766
    45  H    0.007557
    46  H   -0.015374
    47  H    0.095130
    48  H    0.196066
    49  H    0.008859
    50  H    0.002501
    51  H    0.046450
    52  H    0.040615
    53  H   -0.020105
    54  H    0.043112
    55  H    0.027359
    56  H   -0.002051
    57  H    0.026491
    58  H    0.067134
    59  H    0.059612
    60  H    0.130163
    61  H    0.044553
    62  H    0.037434
    63  H    0.017526
    64  H    0.071660
    65  H    0.027764
    66  H    0.045890
    67  H    0.055112
    68  H    0.077675
    69  H    0.008109
    70  H    0.000098
    71  H    0.035302
    72  H    0.194843
    73  H    0.009103
    74  H    0.061267
    75  H    0.050095
    76  H    0.063352
    77  H    0.206824
    78  H    0.036080
    79  H    0.021244
 Sum of Mulliken charges =  -0.00000

 Dipole moment (field-independent basis, Debye):
    X=              3.7166    Y=              1.7242    Z=             -1.2278  Tot=              4.2771
 Quadrupole moment (field-independent basis, Debye-Ang):
   XX=           -241.9184   YY=           -248.0014   ZZ=           -266.6205
   XY=             -1.7481   XZ=            -23.7097   YZ=            -19.5634

 Normal termination of Gaussian 16 at Thu Jul 25 09:09:20 2019.
