 Gaussian 16, Revision A.03,
 Gaussian 16:  ES64L-G16RevA.03 25-Dec-2016

 --------------------------
 # td=(NStates=1) B3LYP/SVP
 --------------------------

 --
 TD
 --
 Symbolic Z-matrix:
 Charge =  0 Multiplicity = 1

                         Standard orientation:
 ---------------------------------------------------------------------
 Center     Atomic      Atomic             Coordinates (Angstroms)
 Number     Number       Type             X           Y           Z
 ---------------------------------------------------------------------
      1          8           0        5.455007    0.028942   -3.240563
      2          8           0       -3.067557   -2.920286    3.016800
      3          8           0       -3.466747   -0.769128    2.673679
      4          8           0       -1.613158    7.375520    1.373945
      5          8           0       -0.771998    7.008788   -0.585454
      6          8           0       -1.648689   -4.060790   -0.055717
      7          7           0        2.350186    0.864413    0.508686
      8          7           0        4.330879   -0.428876   -1.199384
      9          7           0       -1.843833    0.698650   -0.317496
     10          7           0       -2.455870   -1.944957   -0.548313
     11          6           0        4.794421   -1.195745    0.066798
     12          6           0        4.416886   -0.329369    1.246812
     13          6           0        2.954023   -0.038870    1.391277
     14          6           0        1.942352   -0.696418    2.135669
     15          6           0        0.684664   -0.034811    1.842232
     16          6           0        1.034371    0.915800    0.767433
     17          6           0        6.398014   -1.333506   -0.119826
     18          6           0       -0.648353   -0.199369    2.539833
     19          6           0        6.747657   -0.782788   -1.273108
     20          6           0        0.193708    1.959624    0.127057
     21          6           0       -1.084076    1.798060   -0.277088
     22          6           0        5.529751   -0.304390   -2.039720
     23          6           0       -2.102631    2.899353   -0.705808
     24          6           0        2.088344   -1.759314    3.224388
     25          6           0        7.195560   -2.067197    0.941279
     26          6           0       -3.227622    2.369493   -1.187075
     27          6           0       -1.255512   -1.668727    2.525846
     28          6           0       -3.126578    0.857512   -0.917750
     29          6           0       -1.581490    4.357732   -0.841479
     30          6           0        8.006123   -0.643291   -2.034015
     31          6           0       -1.905159    5.115576    0.426987
     32          6           0       -4.425903    3.054348   -1.848684
     33          6           0       -3.951510   -0.118356   -1.291799
     34          6           0       -2.580891   -1.718475    2.755906
     35          6           0       -3.632359   -1.509341   -1.064662
     36          6           0        9.161116   -0.616374   -1.330860
     37          6           0       -1.386443    6.581302    0.324885
     38          6           0       -4.436456   -2.712270   -1.522487
     39          6           0       -3.818285   -3.837640   -1.049721
     40          6           0       -2.538855   -3.349054   -0.477400
     41          6           0       -5.819375   -2.566357   -2.014511
     42          6           0       -4.230695   -5.266721   -1.268373
     43          6           0       -6.744862   -3.468862   -2.240485
     44          1           0        4.257375   -2.314071    0.075744
     45          1           0        4.920047    0.535875    1.167990
     46          1           0        4.830589   -0.902987    2.125490
     47          1           0        2.800370    1.166055   -0.356510
     48          1           0        3.443831   -0.533144   -1.713094
     49          1           0       -0.578618    0.177818    3.572218
     50          1           0       -1.179340    0.445103    2.012036
     51          1           0        0.698122    2.932585    0.135593
     52          1           0        3.173299   -1.942722    2.925559
     53          1           0        1.725123   -1.496710    4.176440
     54          1           0        1.536601   -2.818923    2.921698
     55          1           0        6.560514   -2.862765    1.426917
     56          1           0        7.504710   -1.430789    1.531538
     57          1           0        8.002031   -2.521117    0.385014
     58          1           0       -0.896430   -2.103100    1.487454
     59          1           0       -0.676653   -2.361912    3.248644
     60          1           0       -1.503359   -0.263508   -0.232186
     61          1           0       -2.122579    5.076426   -1.624154
     62          1           0       -0.515079    4.302845   -1.141555
     63          1           0        7.891418   -0.586577   -3.082445
     64          1           0       -1.546685    4.689651    1.539345
     65          1           0       -2.907256    5.208263    0.817713
     66          1           0       -4.228153    4.113398   -1.881652
     67          1           0       -4.929705    2.827575   -0.994677
     68          1           0       -4.510449    2.682099   -2.871723
     69          1           0       -4.884297    0.223187   -1.678513
     70          1           0        9.644597   -0.697381   -0.283308
     71          1           0       10.019894   -0.477097   -1.986968
     72          1           0       -4.086213   -2.777000    3.155311
     73          1           0       -5.901801   -1.369392   -2.414483
     74          1           0       -5.103007   -5.584849   -0.573962
     75          1           0       -4.664968   -5.559466   -2.315445
     76          1           0       -3.135234   -5.774908   -1.121289
     77          1           0       -1.182389    8.065920    1.150883
     78          1           0       -7.557514   -3.389212   -3.083896
     79          1           0       -6.562805   -4.457476   -1.935026
 ---------------------------------------------------------------------

 SCF Done:  E(RB3LYP) =  -1947.78164845     A.U. after   16 cycles

 Excitation energies and oscillator strengths:

 Excited State   1:      Singlet-A      1.8824 eV  658.64 nm  f=0.2697  <S**2>=0.000
     155 ->156         0.70358
 This state for optimization and/or second-order correction.
 Total Energy, E(TD-HF/TD-DFT) =  -1947.71247021
 Copying the excited state density for this state as the 1-particle RhoCI density.

 The electronic state is 1-A.
 Alpha  occ. eigenvalues --  -19.17497 -19.17019 -19.12985 -19.11438 -19.11251
 Alpha  occ. eigenvalues --  -19.09396 -14.37543 -14.36306 -14.35371 -14.30136
 Alpha  occ. eigenvalues --  -10.32109 -10.29776 -10.29461 -10.27258 -10.26578
 Alpha  occ. eigenvalues --  -10.25412 -10.24854 -10.24148 -10.22960 -10.22501
 Alpha  occ. eigenvalues --  -10.22405 -10.22131 -10.22074 -10.21594 -10.21405
 Alpha  occ. eigenvalues --  -10.21400 -10.21180 -10.21144 -10.20877 -10.20856
 Alpha  occ. eigenvalues --  -10.20682 -10.20553 -10.20485 -10.20228 -10.20209
 Alpha  occ. eigenvalues --  -10.20061 -10.20010 -10.19841 -10.19629 -10.19536
 Alpha  occ. eigenvalues --  -10.18710 -10.18587 -10.18128  -1.13804  -1.07612
 Alpha  occ. eigenvalues --   -1.02959  -1.02537  -1.01127  -0.97768  -0.97326
 Alpha  occ. eigenvalues --   -0.93860  -0.92088  -0.90768  -0.82718  -0.82523
 Alpha  occ. eigenvalues --   -0.81593  -0.80555  -0.80415  -0.79656  -0.78053
 Alpha  occ. eigenvalues --   -0.77495  -0.76858  -0.75877  -0.75017  -0.72775
 Alpha  occ. eigenvalues --   -0.72702  -0.71281  -0.69679  -0.68477  -0.67937
 Alpha  occ. eigenvalues --   -0.67481  -0.65438  -0.63515  -0.60960  -0.60894
 Alpha  occ. eigenvalues --   -0.59916  -0.58820  -0.58422  -0.57601  -0.56695
 Alpha  occ. eigenvalues --   -0.55788  -0.54768  -0.54532  -0.53602  -0.52635
 Alpha  occ. eigenvalues --   -0.52049  -0.51052  -0.50575  -0.50348  -0.49706
 Alpha  occ. eigenvalues --   -0.49323  -0.48910  -0.48622  -0.48471  -0.47915
 Alpha  occ. eigenvalues --   -0.47547  -0.47214  -0.46937  -0.46301  -0.45962
 Alpha  occ. eigenvalues --   -0.45391  -0.45283  -0.44704  -0.44539  -0.44216
 Alpha  occ. eigenvalues --   -0.43843  -0.43691  -0.43315  -0.43187  -0.42934
 Alpha  occ. eigenvalues --   -0.42310  -0.42130  -0.41464  -0.41366  -0.41178
 Alpha  occ. eigenvalues --   -0.41016  -0.40613  -0.40365  -0.40242  -0.39896
 Alpha  occ. eigenvalues --   -0.39214  -0.39014  -0.38744  -0.38381  -0.37765
 Alpha  occ. eigenvalues --   -0.37398  -0.37350  -0.36590  -0.36441  -0.35986
 Alpha  occ. eigenvalues --   -0.35874  -0.34937  -0.34761  -0.34113  -0.33563
 Alpha  occ. eigenvalues --   -0.33533  -0.33207  -0.33099  -0.32281  -0.31475
 Alpha  occ. eigenvalues --   -0.31146  -0.29079  -0.28852  -0.28258  -0.27582
 Alpha  occ. eigenvalues --   -0.26900  -0.26189  -0.25813  -0.25386  -0.25128
 Alpha  occ. eigenvalues --   -0.24885  -0.23961  -0.23804  -0.22811  -0.18854
 Alpha virt. eigenvalues --   -0.11143  -0.05859  -0.05702  -0.01081  -0.00500
 Alpha virt. eigenvalues --   -0.00423   0.00420   0.01558   0.03165   0.03703
 Alpha virt. eigenvalues --    0.03793   0.04993   0.05077   0.05325   0.05507

 Mulliken charges:
               1
     1  O   -0.246614
     2  O   -0.189331
     3  O   -0.340403
     4  O   -0.077577
     5  O   -0.206140
     6  O   -0.189743
     7  N   -0.060425
     8  N   -0.295939
     9  N   -0.085506
    10  N   -0.290559
    11  C   -0.005653
    12  C    0.272898
    13  C   -0.097964
    14  C   -0.131351
    15  C   -0.167028
    16  C   -0.006205
    17  C   -0.207111
    18  C    0.250669
    19  C   -0.036148
    20  C   -0.132083
    21  C    0.130293
    22  C    0.178439
    23  C   -0.071217
    24  C    0.051507
    25  C    0.223100
    26  C   -0.179837
    27  C   -0.051890
    28  C    0.122411
    29  C    0.073059
    30  C    0.036662
    31  C   -0.064733
    32  C    0.176496
    33  C   -0.080529
    34  C    0.158606
    35  C    0.110583
    36  C   -0.054335
    37  C    0.093354
    38  C    0.012382
    39  C   -0.163676
    40  C    0.153596
    41  C   -0.023556
    42  C   -0.026372
    43  C   -0.044424
    44  H    0.056396
    45  H   -0.052777
    46  H    0.000067
    47  H    0.121599
    48  H    0.147086
    49  H    0.006908
    50  H   -0.056189
    51  H    0.006803
    52  H    0.008930
    53  H    0.029447
    54  H    0.045992
    55  H    0.031897
    56  H   -0.034417
    57  H    0.028912
    58  H    0.118354
    59  H    0.039248
    60  H    0.144457
    61  H    0.043298
    62  H    0.041485
    63  H    0.019672
    64  H    0.054117
    65  H    0.022943
    66  H   -0.002830
    67  H    0.031740
    68  H    0.048853
    69  H   -0.031483
    70  H    0.051343
    71  H    0.013517
    72  H    0.210562
    73  H    0.024962
    74  H    0.055775
    75  H    0.050114
    76  H    0.065480
    77  H    0.093430
    78  H    0.053932
    79  H   -0.007326
 Sum of Mulliken charges =  -0.00000

 Dipole moment (field-independent basis, Debye):
    X=              0.8577    Y=              0.5727    Z=              1.7042  Tot=              1.9920
 Quadrupole moment (field-independent basis, Debye-Ang):
   XX=           -211.7460   YY=           -250.2334   ZZ=           -260.9460
   XY=             -9.4435   XZ=             31.4302   YZ=              4.3158

 Normal termination of Gaussian 16 at Wed Oct  2 07:54:55 2019.
