 Gaussian 16, Revision A.03,
 Gaussian 16:  ES64L-G16RevA.03 25-Dec-2016

 --------------------------
 # td=(NStates=1) B3LYP/SVP
 --------------------------

 --
 TD
 --
 Symbolic Z-matrix:
 Charge =  0 Multiplicity = 1

                         Standard orientation:
 ---------------------------------------------------------------------
 Center     Atomic      Atomic             Coordinates (Angstroms)
 Number     Number       Type             X           Y           Z
 ---------------------------------------------------------------------
      1          8           0       -3.203821   -0.855429   -2.935038
      2          8           0        2.742612    2.753032    3.615925
      3          8           0        3.741684    0.951717    4.393014
      4          8           0        7.839044   -1.285491   -0.972022
      5          8           0        6.845059   -2.416555   -2.556459
      6          8           0       -2.721033    1.478632    1.562088
      7          7           0       -0.290191   -2.668278    0.735400
      8          7           0       -2.518447   -1.218335   -0.763537
      9          7           0        1.168382    0.115591   -0.735486
     10          7           0       -1.068646    1.517980    0.043391
     11          6           0       -3.273188   -1.462944    0.522305
     12          6           0       -2.635260   -2.664333    1.273689
     13          6           0       -1.168320   -2.422782    1.589202
     14          6           0       -0.580460   -1.583411    2.689316
     15          6           0        0.763804   -1.525198    2.405805
     16          6           0        0.969101   -2.076980    1.074117
     17          6           0       -4.687726   -1.869755   -0.026455
     18          6           0        1.787102   -0.747608    3.253358
     19          6           0       -4.700698   -1.826393   -1.342320
     20          6           0        2.083831   -1.930754    0.081596
     21          6           0        2.068323   -0.853481   -0.712450
     22          6           0       -3.392092   -1.208914   -1.881939
     23          6           0        3.049224   -0.450029   -1.745850
     24          6           0       -1.380234   -1.014299    3.752962
     25          6           0       -5.723049   -2.475960    0.847925
     26          6           0        2.566757    0.737149   -2.376651
     27          6           0        1.785835    0.713976    2.994860
     28          6           0        1.292046    1.074190   -1.600908
     29          6           0        4.276779   -1.251870   -1.981900
     30          6           0       -5.714292   -2.135255   -2.355713
     31          6           0        5.557028   -0.874660   -1.234530
     32          6           0        3.113721    1.523064   -3.418078
     33          6           0        0.438766    2.147256   -1.706454
     34          6           0        2.841203    1.439028    3.753030
     35          6           0       -0.622935    2.376972   -0.920160
     36          6           0       -6.696150   -3.038167   -2.156419
     37          6           0        6.791870   -1.622710   -1.629017
     38          6           0       -1.582125    3.683851   -0.930043
     39          6           0       -2.420260    3.444576    0.129179
     40          6           0       -2.111374    2.063400    0.746231
     41          6           0       -1.324445    4.736254   -1.818509
     42          6           0       -3.472966    4.175413    0.778981
     43          6           0       -2.046878    5.871080   -1.905624
     44          1           0       -3.288822   -0.595006    1.207487
     45          1           0       -2.866155   -3.590276    0.718063
     46          1           0       -3.029232   -2.633038    2.380380
     47          1           0       -0.517922   -2.848736   -0.190432
     48          1           0       -2.008653   -0.288706   -0.786832
     49          1           0        1.547370   -1.160720    4.343735
     50          1           0        2.980625   -1.022895    3.038292
     51          1           0        2.858190   -2.672010    0.176915
     52          1           0       -2.186966   -1.658053    4.146099
     53          1           0       -0.725382   -0.873007    4.695625
     54          1           0       -2.046230   -0.019634    3.691250
     55          1           0       -5.582440   -2.087305    1.851902
     56          1           0       -5.718003   -3.470468    0.728804
     57          1           0       -6.764329   -2.290660    0.513691
     58          1           0        1.883338    0.924727    1.986018
     59          1           0        0.841315    1.103448    3.416290
     60          1           0        0.374067    0.269565   -0.054508
     61          1           0        4.473366   -1.068475   -3.133683
     62          1           0        4.243397   -2.244774   -1.824447
     63          1           0       -5.485323   -1.682333   -3.367399
     64          1           0        5.452443   -1.039675   -0.208279
     65          1           0        5.859326    0.146588   -1.518249
     66          1           0        3.827348    1.022066   -3.801465
     67          1           0        3.276666    2.572960   -2.996734
     68          1           0        2.599753    1.877180   -4.331443
     69          1           0        0.551056    2.752446   -2.499009
     70          1           0       -7.089308   -3.711193   -1.143488
     71          1           0       -7.286580   -3.135981   -3.109466
     72          1           0        3.591968    3.161635    4.212126
     73          1           0       -0.324001    4.662756   -2.339779
     74          1           0       -4.122459    4.943031   -0.095969
     75          1           0       -4.090971    3.721627    1.393323
     76          1           0       -3.219546    5.018448    1.552209
     77          1           0        8.610968   -1.752845   -1.493052
     78          1           0       -1.712073    6.767974   -2.572411
     79          1           0       -3.010485    5.961156   -1.301214
 ---------------------------------------------------------------------

 SCF Done:  E(RB3LYP) =  -1947.80661148     A.U. after   16 cycles

 Excitation energies and oscillator strengths:

 Excited State   1:      Singlet-A      0.9266 eV 1338.02 nm  f=0.0012  <S**2>=0.000
     155 ->156         0.70348
 This state for optimization and/or second-order correction.
 Total Energy, E(TD-HF/TD-DFT) =  -1947.77255877
 Copying the excited state density for this state as the 1-particle RhoCI density.

 The electronic state is 1-A.
 Alpha  occ. eigenvalues --  -19.20547 -19.18421 -19.12467 -19.11674 -19.11601
 Alpha  occ. eigenvalues --  -19.10374 -14.37902 -14.36605 -14.32140 -14.30054
 Alpha  occ. eigenvalues --  -10.32421 -10.30764 -10.27397 -10.26588 -10.26440
 Alpha  occ. eigenvalues --  -10.25024 -10.24843 -10.23293 -10.23042 -10.22243
 Alpha  occ. eigenvalues --  -10.22108 -10.21550 -10.21468 -10.21330 -10.21300
 Alpha  occ. eigenvalues --  -10.21058 -10.20729 -10.20572 -10.20411 -10.20391
 Alpha  occ. eigenvalues --  -10.20333 -10.20053 -10.20025 -10.19906 -10.19342
 Alpha  occ. eigenvalues --  -10.19242 -10.19173 -10.19059 -10.18309 -10.18018
 Alpha  occ. eigenvalues --  -10.17863 -10.16941 -10.16656  -1.12975  -1.09127
 Alpha  occ. eigenvalues --   -1.06725  -1.05220  -1.02525  -1.00635  -0.99070
 Alpha  occ. eigenvalues --   -0.98645  -0.92267  -0.90436  -0.84348  -0.83536
 Alpha  occ. eigenvalues --   -0.81545  -0.80893  -0.80326  -0.80268  -0.78587
 Alpha  occ. eigenvalues --   -0.77048  -0.76586  -0.75969  -0.74847  -0.73804
 Alpha  occ. eigenvalues --   -0.70514  -0.69965  -0.69606  -0.69504  -0.68080
 Alpha  occ. eigenvalues --   -0.66146  -0.65451  -0.62847  -0.61567  -0.61046
 Alpha  occ. eigenvalues --   -0.60037  -0.58496  -0.57875  -0.57659  -0.56756
 Alpha  occ. eigenvalues --   -0.55937  -0.55340  -0.54760  -0.53311  -0.52545
 Alpha  occ. eigenvalues --   -0.52155  -0.51529  -0.51148  -0.50544  -0.50125
 Alpha  occ. eigenvalues --   -0.49636  -0.49354  -0.49108  -0.48909  -0.48447
 Alpha  occ. eigenvalues --   -0.47934  -0.47323  -0.47125  -0.47110  -0.46338
 Alpha  occ. eigenvalues --   -0.46144  -0.45525  -0.45124  -0.44735  -0.44360
 Alpha  occ. eigenvalues --   -0.44128  -0.43821  -0.43502  -0.42868  -0.42677
 Alpha  occ. eigenvalues --   -0.42425  -0.42120  -0.41743  -0.41538  -0.41092
 Alpha  occ. eigenvalues --   -0.40885  -0.40302  -0.40021  -0.39920  -0.39510
 Alpha  occ. eigenvalues --   -0.38987  -0.38818  -0.38524  -0.38384  -0.38027
 Alpha  occ. eigenvalues --   -0.37661  -0.37157  -0.36956  -0.36641  -0.36620
 Alpha  occ. eigenvalues --   -0.36387  -0.35754  -0.35435  -0.35094  -0.34763
 Alpha  occ. eigenvalues --   -0.32952  -0.32791  -0.32564  -0.32028  -0.31561
 Alpha  occ. eigenvalues --   -0.31050  -0.30533  -0.29286  -0.28388  -0.28305
 Alpha  occ. eigenvalues --   -0.27471  -0.26357  -0.26252  -0.25414  -0.24286
 Alpha  occ. eigenvalues --   -0.23735  -0.23447  -0.22839  -0.22209  -0.17719
 Alpha virt. eigenvalues --   -0.11706  -0.07216  -0.02953  -0.01822   0.00270
 Alpha virt. eigenvalues --    0.01481   0.01676   0.02222   0.02514   0.03062
 Alpha virt. eigenvalues --    0.03350   0.03386   0.04219   0.04561   0.05059

 Mulliken charges:
               1
     1  O   -0.115667
     2  O   -0.234571
     3  O   -0.235676
     4  O   -0.151822
     5  O   -0.257501
     6  O   -0.155211
     7  N    0.083906
     8  N   -0.280972
     9  N    0.022383
    10  N   -0.322224
    11  C    0.074920
    12  C    0.144196
    13  C   -0.147316
    14  C   -0.083656
    15  C   -0.047653
    16  C   -0.105794
    17  C   -0.197655
    18  C   -0.033653
    19  C   -0.088217
    20  C   -0.140099
    21  C    0.173239
    22  C    0.109487
    23  C   -0.075589
    24  C    0.000237
    25  C    0.157828
    26  C   -0.097220
    27  C    0.097281
    28  C    0.069753
    29  C    0.100275
    30  C   -0.011335
    31  C    0.058673
    32  C    0.152039
    33  C   -0.052164
    34  C    0.105046
    35  C    0.084210
    36  C   -0.089720
    37  C    0.074397
    38  C    0.113535
    39  C   -0.169930
    40  C    0.148768
    41  C   -0.047587
    42  C    0.041206
    43  C   -0.056569
    44  H    0.050974
    45  H   -0.010059
    46  H    0.011750
    47  H    0.091326
    48  H    0.152637
    49  H    0.044268
    50  H    0.019429
    51  H    0.012067
    52  H   -0.004205
    53  H   -0.003498
    54  H    0.052016
    55  H    0.014481
    56  H   -0.005411
    57  H    0.016146
    58  H    0.009599
    59  H    0.041199
    60  H    0.186056
    61  H    0.032811
    62  H   -0.018717
    63  H    0.031303
    64  H    0.020988
    65  H    0.035053
    66  H   -0.048853
    67  H    0.035319
    68  H    0.024386
    69  H   -0.079942
    70  H    0.062323
    71  H    0.023733
    72  H    0.234395
    73  H    0.005742
    74  H    0.035214
    75  H   -0.021893
    76  H    0.038675
    77  H    0.217333
    78  H    0.046953
    79  H    0.032824
 Sum of Mulliken charges =  -0.00000

 Dipole moment (field-independent basis, Debye):
    X=              3.2954    Y=              3.3084    Z=             -1.2200  Tot=              4.8263
 Quadrupole moment (field-independent basis, Debye-Ang):
   XX=           -232.1881   YY=           -235.6733   ZZ=           -265.8224
   XY=             11.3805   XZ=            -19.3736   YZ=             -7.4262

 Normal termination of Gaussian 16 at Wed Jul 24 01:40:55 2019.
