 Gaussian 16, Revision A.03,
 Gaussian 16:  ES64L-G16RevA.03 25-Dec-2016

 --------------------------
 # td=(NStates=1) B3LYP/SVP
 --------------------------

 --
 TD
 --
 Symbolic Z-matrix:
 Charge =  0 Multiplicity = 1

                         Standard orientation:
 ---------------------------------------------------------------------
 Center     Atomic      Atomic             Coordinates (Angstroms)
 Number     Number       Type             X           Y           Z
 ---------------------------------------------------------------------
      1          8           0        5.179850    0.049115   -3.227361
      2          8           0       -2.796736   -3.192612    3.140865
      3          8           0       -3.467500   -0.928570    3.077442
      4          8           0       -1.668800    7.096210    1.519078
      5          8           0       -0.808065    6.983650   -0.611529
      6          8           0       -1.522878   -3.983993   -0.063906
      7          7           0        2.259682    1.092164    0.652466
      8          7           0        4.328222   -0.537397   -1.194739
      9          7           0       -1.804037    0.739661   -0.520621
     10          7           0       -2.350402   -1.893074   -0.598607
     11          6           0        4.652567   -1.133134    0.087471
     12          6           0        4.363705   -0.254762    1.290096
     13          6           0        2.950275    0.099920    1.321024
     14          6           0        2.003839   -0.516976    2.172898
     15          6           0        0.654406    0.028645    1.746170
     16          6           0        0.821595    1.047033    0.833213
     17          6           0        6.163853   -1.273168   -0.147300
     18          6           0       -0.543411   -0.194553    2.543804
     19          6           0        6.546848   -0.724524   -1.394168
     20          6           0        0.103918    2.066568    0.134901
     21          6           0       -1.113016    1.894395   -0.481043
     22          6           0        5.318233   -0.414887   -2.070171
     23          6           0       -2.048030    2.872728   -0.964649
     24          6           0        2.245125   -1.502836    3.250982
     25          6           0        7.111704   -1.856916    0.773813
     26          6           0       -3.202308    2.295306   -1.225590
     27          6           0       -1.140331   -1.603824    2.603904
     28          6           0       -3.028626    0.894076   -1.090512
     29          6           0       -1.743476    4.375997   -0.978687
     30          6           0        7.834027   -0.620665   -1.995673
     31          6           0       -1.863118    5.032567    0.342277
     32          6           0       -4.518972    2.870560   -1.770843
     33          6           0       -3.890892   -0.185045   -1.298523
     34          6           0       -2.559181   -1.830434    2.888003
     35          6           0       -3.506845   -1.507652   -1.133797
     36          6           0        9.162750   -0.895075   -1.487203
     37          6           0       -1.350041    6.510418    0.410277
     38          6           0       -4.347548   -2.691945   -1.433685
     39          6           0       -3.638956   -3.769211   -1.102365
     40          6           0       -2.385218   -3.299769   -0.563590
     41          6           0       -5.760784   -2.629435   -1.937260
     42          6           0       -3.946523   -5.266219   -1.213860
     43          6           0       -6.561882   -3.670245   -2.317595
     44          1           0        4.191819   -2.031776    0.284596
     45          1           0        5.019891    0.636760    1.250887
     46          1           0        4.712317   -0.686921    2.298020
     47          1           0        2.657554    1.416145   -0.138357
     48          1           0        3.368469   -0.309272   -1.712035
     49          1           0       -0.530218    0.352878    3.637153
     50          1           0       -1.370477    0.403620    2.024058
     51          1           0        0.353058    3.170030   -0.140068
     52          1           0        3.250883   -1.360707    3.660560
     53          1           0        1.721853   -1.262841    4.173442
     54          1           0        1.942021   -2.479382    2.948509
     55          1           0        6.394243   -2.339217    1.754961
     56          1           0        7.843680   -1.166961    1.429581
     57          1           0        7.842548   -2.768396    0.524349
     58          1           0       -1.169224   -1.923774    1.597121
     59          1           0       -0.742201   -2.496168    3.329818
     60          1           0       -1.541251   -0.154205   -0.458493
     61          1           0       -2.290783    4.988805   -1.714808
     62          1           0       -0.805888    4.525851   -1.294754
     63          1           0        7.812116   -0.143251   -2.995480
     64          1           0       -1.319349    4.475427    1.202907
     65          1           0       -2.906367    4.908133    0.808047
     66          1           0       -4.549414    3.933246   -2.139116
     67          1           0       -5.168638    2.863339   -0.927820
     68          1           0       -4.772997    2.384140   -2.734154
     69          1           0       -4.848639    0.062924   -1.611775
     70          1           0        9.357667   -1.079778   -0.463212
     71          1           0        9.995638   -0.715435   -2.099326
     72          1           0       -3.849863   -3.328215    3.326827
     73          1           0       -6.163193   -1.560800   -2.193357
     74          1           0       -4.739427   -5.396766   -0.686685
     75          1           0       -4.248951   -5.447771   -2.373177
     76          1           0       -3.007774   -6.037674   -0.801055
     77          1           0       -1.518089    7.910577    1.507186
     78          1           0       -7.794227   -3.494335   -2.783869
     79          1           0       -6.190128   -4.729718   -2.290598
 ---------------------------------------------------------------------

 SCF Done:  E(RB3LYP) =  -1947.78958675     A.U. after   18 cycles

 Excitation energies and oscillator strengths:

 Excited State   1:      Singlet-A      2.1788 eV  569.05 nm  f=0.4471  <S**2>=0.000
     155 ->156         0.69361
     155 <-156        -0.10746
 This state for optimization and/or second-order correction.
 Total Energy, E(TD-HF/TD-DFT) =  -1947.70951786
 Copying the excited state density for this state as the 1-particle RhoCI density.

 The electronic state is 1-A.
 Alpha  occ. eigenvalues --  -19.20651 -19.17354 -19.13486 -19.10820 -19.10275
 Alpha  occ. eigenvalues --  -19.08889 -14.37192 -14.36459 -14.35689 -14.28717
 Alpha  occ. eigenvalues --  -10.33964 -10.31074 -10.27534 -10.25765 -10.25637
 Alpha  occ. eigenvalues --  -10.24399 -10.24043 -10.23998 -10.23964 -10.23243
 Alpha  occ. eigenvalues --  -10.23104 -10.23027 -10.22883 -10.22375 -10.22033
 Alpha  occ. eigenvalues --  -10.21954 -10.21691 -10.21223 -10.21011 -10.20682
 Alpha  occ. eigenvalues --  -10.20570 -10.20491 -10.20475 -10.20267 -10.20249
 Alpha  occ. eigenvalues --  -10.20170 -10.20071 -10.19869 -10.19434 -10.19415
 Alpha  occ. eigenvalues --  -10.19072 -10.19002 -10.18665  -1.15507  -1.03976
 Alpha  occ. eigenvalues --   -1.02004  -1.01637  -1.01430  -1.00939  -0.97461
 Alpha  occ. eigenvalues --   -0.94929  -0.94018  -0.92701  -0.83962  -0.82923
 Alpha  occ. eigenvalues --   -0.82061  -0.81341  -0.81004  -0.80154  -0.78855
 Alpha  occ. eigenvalues --   -0.77527  -0.76897  -0.75277  -0.74331  -0.73411
 Alpha  occ. eigenvalues --   -0.72743  -0.71673  -0.71031  -0.69908  -0.69363
 Alpha  occ. eigenvalues --   -0.67821  -0.67176  -0.65044  -0.63872  -0.62130
 Alpha  occ. eigenvalues --   -0.61077  -0.59113  -0.57846  -0.57501  -0.57061
 Alpha  occ. eigenvalues --   -0.56666  -0.55876  -0.55052  -0.54235  -0.53649
 Alpha  occ. eigenvalues --   -0.52706  -0.51916  -0.51800  -0.51130  -0.50228
 Alpha  occ. eigenvalues --   -0.50028  -0.48969  -0.47992  -0.47907  -0.47536
 Alpha  occ. eigenvalues --   -0.47235  -0.46993  -0.46836  -0.46320  -0.45943
 Alpha  occ. eigenvalues --   -0.45523  -0.44589  -0.44460  -0.44279  -0.44136
 Alpha  occ. eigenvalues --   -0.43813  -0.43427  -0.42932  -0.42519  -0.42316
 Alpha  occ. eigenvalues --   -0.41715  -0.41497  -0.41285  -0.41109  -0.40869
 Alpha  occ. eigenvalues --   -0.40779  -0.40488  -0.40157  -0.40056  -0.39953
 Alpha  occ. eigenvalues --   -0.39649  -0.39555  -0.39355  -0.38468  -0.38214
 Alpha  occ. eigenvalues --   -0.37873  -0.37428  -0.37347  -0.37160  -0.36868
 Alpha  occ. eigenvalues --   -0.36172  -0.36079  -0.34993  -0.34563  -0.34223
 Alpha  occ. eigenvalues --   -0.33638  -0.33548  -0.33458  -0.31735  -0.31455
 Alpha  occ. eigenvalues --   -0.30982  -0.29418  -0.29085  -0.28885  -0.27558
 Alpha  occ. eigenvalues --   -0.27315  -0.26273  -0.25439  -0.25102  -0.24879
 Alpha  occ. eigenvalues --   -0.24276  -0.23710  -0.23126  -0.22820  -0.19679
 Alpha virt. eigenvalues --   -0.11095  -0.07914  -0.06303  -0.01299  -0.00780
 Alpha virt. eigenvalues --   -0.00123   0.00220   0.00705   0.02059   0.02801
 Alpha virt. eigenvalues --    0.03458   0.03669   0.03765   0.03964   0.05350

 Mulliken charges:
               1
     1  O   -0.277889
     2  O   -0.279749
     3  O   -0.307585
     4  O   -0.012885
     5  O   -0.263733
     6  O   -0.183159
     7  N   -0.067016
     8  N   -0.205990
     9  N    0.044423
    10  N   -0.289498
    11  C    0.201524
    12  C    0.175333
    13  C   -0.086315
    14  C   -0.175794
    15  C   -0.068048
    16  C    0.153180
    17  C   -0.130102
    18  C    0.013168
    19  C    0.036675
    20  C   -0.085304
    21  C    0.002225
    22  C    0.107660
    23  C   -0.077221
    24  C    0.154408
    25  C   -0.103913
    26  C   -0.125612
    27  C    0.031606
    28  C    0.036712
    29  C    0.223264
    30  C   -0.068436
    31  C   -0.101998
    32  C    0.103193
    33  C   -0.070909
    34  C    0.162326
    35  C    0.120834
    36  C    0.002865
    37  C    0.142173
    38  C    0.042758
    39  C   -0.204164
    40  C    0.123128
    41  C   -0.016258
    42  C    0.077900
    43  C   -0.114702
    44  H   -0.004265
    45  H   -0.012251
    46  H    0.023096
    47  H    0.071073
    48  H    0.166797
    49  H    0.040908
    50  H    0.016507
    51  H    0.023821
    52  H   -0.009469
    53  H    0.001766
    54  H    0.039461
    55  H    0.018487
    56  H    0.066665
    57  H    0.077458
    58  H    0.043129
    59  H    0.062911
    60  H    0.071280
    61  H    0.006947
    62  H   -0.037165
    63  H    0.023048
    64  H    0.041266
    65  H    0.033532
    66  H    0.009704
    67  H    0.029324
    68  H    0.041981
    69  H   -0.067467
    70  H    0.006224
    71  H    0.021162
    72  H    0.230197
    73  H    0.022448
    74  H   -0.012819
    75  H    0.053220
    76  H    0.072014
    77  H    0.099540
    78  H    0.061814
    79  H    0.028582
 Sum of Mulliken charges =  -0.00000

 Dipole moment (field-independent basis, Debye):
    X=             -0.3972    Y=              2.8364    Z=              3.6599  Tot=              4.6473
 Quadrupole moment (field-independent basis, Debye-Ang):
   XX=           -220.6546   YY=           -238.8553   ZZ=           -264.6178
   XY=            -12.3788   XZ=             35.7010   YZ=              7.4800

 Normal termination of Gaussian 16 at Sat Sep 21 18:41:06 2019.
