 Gaussian 16, Revision A.03,
 Gaussian 16:  ES64L-G16RevA.03 25-Dec-2016

 --------------------------
 # td=(NStates=1) B3LYP/SVP
 --------------------------

 --
 TD
 --
 Symbolic Z-matrix:
 Charge =  0 Multiplicity = 1

                         Standard orientation:
 ---------------------------------------------------------------------
 Center     Atomic      Atomic             Coordinates (Angstroms)
 Number     Number       Type             X           Y           Z
 ---------------------------------------------------------------------
      1          8           0       -3.026357   -1.644477   -2.740339
      2          8           0        2.957647    3.343636    3.077810
      3          8           0        3.576182    1.624879    4.314096
      4          8           0        7.791514   -1.333521   -0.834840
      5          8           0        6.721252   -3.188781   -1.717194
      6          8           0       -2.728943    1.618349    1.321511
      7          7           0       -0.220737   -2.396179    1.055906
      8          7           0       -2.641920   -1.204635   -0.477242
      9          7           0        1.138205   -0.020077   -0.772519
     10          7           0       -1.088643    1.441244   -0.262215
     11          6           0       -3.417387   -1.314796    0.669045
     12          6           0       -2.623003   -2.280318    1.811586
     13          6           0       -1.193133   -1.931470    1.909362
     14          6           0       -0.478368   -1.162086    2.911550
     15          6           0        0.810064   -1.049358    2.562880
     16          6           0        1.047471   -1.800356    1.370887
     17          6           0       -4.695810   -1.913178    0.301847
     18          6           0        1.864574   -0.165192    3.175838
     19          6           0       -4.791808   -2.127155   -1.084177
     20          6           0        2.089746   -1.917179    0.374026
     21          6           0        2.057091   -0.963164   -0.694671
     22          6           0       -3.372686   -1.696553   -1.616306
     23          6           0        3.042620   -0.709771   -1.748421
     24          6           0       -1.288210   -0.394516    3.954511
     25          6           0       -5.763841   -1.950460    1.433619
     26          6           0        2.548164    0.326230   -2.526811
     27          6           0        1.942714    1.255878    2.566322
     28          6           0        1.301907    0.773267   -1.898205
     29          6           0        4.199537   -1.509472   -2.030633
     30          6           0       -5.727228   -2.689178   -1.945846
     31          6           0        5.318614   -1.194250   -0.996128
     32          6           0        3.081555    0.938710   -3.775979
     33          6           0        0.451161    1.932578   -2.056773
     34          6           0        2.933526    2.026058    3.425677
     35          6           0       -0.665091    2.296176   -1.294809
     36          6           0       -6.826774   -3.387348   -1.696831
     37          6           0        6.572383   -2.042866   -1.223830
     38          6           0       -1.453498    3.347745   -1.369692
     39          6           0       -2.327132    3.457414   -0.355165
     40          6           0       -2.083746    2.115257    0.350082
     41          6           0       -1.348599    4.420620   -2.464158
     42          6           0       -3.355100    4.458933    0.130772
     43          6           0       -1.959480    5.619277   -2.501371
     44          1           0       -3.304030   -0.352528    1.220922
     45          1           0       -2.753548   -3.096605    1.429732
     46          1           0       -2.878356   -2.430774    2.976567
     47          1           0       -0.321811   -2.977997    0.277774
     48          1           0       -1.948352   -0.380549   -0.556950
     49          1           0        1.836379   -0.176948    4.297833
     50          1           0        2.640564   -0.732525    3.028480
     51          1           0        2.847208   -2.696227    0.431680
     52          1           0       -2.004954   -1.324656    4.305822
     53          1           0       -0.747292    0.037894    4.600819
     54          1           0       -1.903341    0.314112    3.503453
     55          1           0       -5.859809   -1.094650    2.120567
     56          1           0       -5.798784   -2.952101    1.734281
     57          1           0       -6.698049   -1.839657    0.901426
     58          1           0        2.246785    1.266631    1.610047
     59          1           0        1.121240    1.940059    2.729995
     60          1           0        0.312822    0.366886   -0.394685
     61          1           0        4.699157   -1.333372   -3.111612
     62          1           0        3.845087   -2.560198   -1.977901
     63          1           0       -5.517532   -2.481098   -2.968051
     64          1           0        4.866533   -1.273615    0.049905
     65          1           0        5.814411   -0.104978   -1.092901
     66          1           0        3.906133    0.458902   -4.168026
     67          1           0        3.301652    1.948033   -3.796196
     68          1           0        2.267434    0.876416   -4.631993
     69          1           0        0.535746    2.562028   -2.932764
     70          1           0       -7.212020   -3.614044   -0.611026
     71          1           0       -7.500743   -3.609005   -2.324748
     72          1           0        3.639508    3.687833    3.681974
     73          1           0       -0.805911    4.269470   -3.291317
     74          1           0       -4.087418    4.960460   -0.655085
     75          1           0       -3.948819    3.864324    0.907479
     76          1           0       -2.835339    5.362753    0.555946
     77          1           0        8.536410   -1.952481   -0.989397
     78          1           0       -1.583726    6.213928   -3.321886
     79          1           0       -2.687313    6.134263   -1.725206
 ---------------------------------------------------------------------

 SCF Done:  E(RB3LYP) =  -1947.77256170     A.U. after   23 cycles

 Excitation energies and oscillator strengths:

 Excited State   1:      Singlet-A      0.3104 eV 3994.05 nm  f=0.0001  <S**2>=0.000
     155 ->156         0.70371
 This state for optimization and/or second-order correction.
 Total Energy, E(TD-HF/TD-DFT) =  -1947.76115389
 Copying the excited state density for this state as the 1-particle RhoCI density.

 The electronic state is 1-A.
 Alpha  occ. eigenvalues --  -19.18068 -19.17274 -19.15077 -19.12639 -19.11654
 Alpha  occ. eigenvalues --  -19.09004 -14.38137 -14.36152 -14.31656 -14.30575
 Alpha  occ. eigenvalues --  -10.34668 -10.30943 -10.27920 -10.27905 -10.27017
 Alpha  occ. eigenvalues --  -10.26700 -10.25112 -10.24678 -10.23989 -10.23889
 Alpha  occ. eigenvalues --  -10.23696 -10.23588 -10.22259 -10.22198 -10.22008
 Alpha  occ. eigenvalues --  -10.21378 -10.20964 -10.20877 -10.20797 -10.20709
 Alpha  occ. eigenvalues --  -10.20388 -10.20218 -10.19856 -10.19283 -10.18546
 Alpha  occ. eigenvalues --  -10.18247 -10.17811 -10.17777 -10.17634 -10.17068
 Alpha  occ. eigenvalues --  -10.16736 -10.16020 -10.15682  -1.10604  -1.06885
 Alpha  occ. eigenvalues --   -1.02537  -1.02222  -1.01354  -1.01080  -0.99071
 Alpha  occ. eigenvalues --   -0.95122  -0.94372  -0.91401  -0.85751  -0.82829
 Alpha  occ. eigenvalues --   -0.81682  -0.80814  -0.79809  -0.79786  -0.78378
 Alpha  occ. eigenvalues --   -0.76933  -0.76248  -0.75890  -0.75035  -0.73777
 Alpha  occ. eigenvalues --   -0.72406  -0.70755  -0.70498  -0.69325  -0.68548
 Alpha  occ. eigenvalues --   -0.67467  -0.65439  -0.63826  -0.61416  -0.60521
 Alpha  occ. eigenvalues --   -0.60421  -0.59335  -0.58741  -0.57786  -0.57559
 Alpha  occ. eigenvalues --   -0.56389  -0.55673  -0.54229  -0.53997  -0.53517
 Alpha  occ. eigenvalues --   -0.52383  -0.51943  -0.51199  -0.50671  -0.50074
 Alpha  occ. eigenvalues --   -0.49005  -0.48610  -0.48396  -0.48171  -0.48117
 Alpha  occ. eigenvalues --   -0.47852  -0.47559  -0.46560  -0.46422  -0.45915
 Alpha  occ. eigenvalues --   -0.45643  -0.45059  -0.44828  -0.44315  -0.43957
 Alpha  occ. eigenvalues --   -0.43688  -0.43494  -0.43156  -0.42579  -0.42428
 Alpha  occ. eigenvalues --   -0.42198  -0.41942  -0.41795  -0.41633  -0.41429
 Alpha  occ. eigenvalues --   -0.41206  -0.41067  -0.40792  -0.40391  -0.40314
 Alpha  occ. eigenvalues --   -0.39845  -0.39775  -0.39280  -0.39223  -0.38931
 Alpha  occ. eigenvalues --   -0.37997  -0.37895  -0.37444  -0.36561  -0.36329
 Alpha  occ. eigenvalues --   -0.36169  -0.35868  -0.35783  -0.35485  -0.34341
 Alpha  occ. eigenvalues --   -0.33529  -0.32901  -0.32724  -0.32608  -0.32436
 Alpha  occ. eigenvalues --   -0.31590  -0.30809  -0.29719  -0.29551  -0.28842
 Alpha  occ. eigenvalues --   -0.28207  -0.27890  -0.25861  -0.24435  -0.24051
 Alpha  occ. eigenvalues --   -0.23552  -0.23044  -0.22359  -0.21739  -0.17856
 Alpha virt. eigenvalues --   -0.14046  -0.08298  -0.04492  -0.03876  -0.01835
 Alpha virt. eigenvalues --    0.01447   0.01843   0.02303   0.02678   0.03354
 Alpha virt. eigenvalues --    0.03498   0.04986   0.05070   0.05254   0.05723

 Mulliken charges:
               1
     1  O   -0.183444
     2  O   -0.201004
     3  O   -0.186839
     4  O   -0.265881
     5  O   -0.243675
     6  O   -0.253267
     7  N   -0.060749
     8  N   -0.254209
     9  N    0.022134
    10  N   -0.329128
    11  C   -0.012546
    12  C    0.348261
    13  C   -0.142872
    14  C   -0.158826
    15  C   -0.105206
    16  C   -0.013656
    17  C   -0.153733
    18  C    0.183124
    19  C   -0.040203
    20  C   -0.104128
    21  C    0.106912
    22  C    0.136635
    23  C   -0.065921
    24  C    0.198426
    25  C    0.156043
    26  C   -0.097601
    27  C    0.110658
    28  C    0.055615
    29  C    0.037358
    30  C   -0.008506
    31  C   -0.075221
    32  C    0.145218
    33  C   -0.046217
    34  C    0.075211
    35  C    0.083349
    36  C    0.021540
    37  C    0.200853
    38  C    0.081392
    39  C   -0.165463
    40  C    0.156378
    41  C    0.023283
    42  C    0.017687
    43  C   -0.050123
    44  H    0.065053
    45  H   -0.158258
    46  H    0.020280
    47  H    0.087933
    48  H    0.174968
    49  H    0.008991
    50  H   -0.064377
    51  H    0.017983
    52  H    0.011634
    53  H   -0.066318
    54  H    0.018769
    55  H    0.039352
    56  H    0.010375
    57  H   -0.003961
    58  H   -0.008722
    59  H    0.035110
    60  H    0.129008
    61  H    0.051457
    62  H    0.050834
    63  H   -0.016818
    64  H    0.078055
    65  H    0.074340
    66  H   -0.016936
    67  H    0.009980
    68  H    0.039317
    69  H   -0.025036
    70  H    0.010893
    71  H   -0.045822
    72  H    0.166914
    73  H   -0.054186
    74  H    0.056882
    75  H    0.058680
    76  H    0.050438
    77  H    0.191231
    78  H    0.020010
    79  H    0.040293
 Sum of Mulliken charges =  -0.00000

 Dipole moment (field-independent basis, Debye):
    X=              3.3708    Y=              4.0844    Z=             -2.4059  Tot=              5.8166
 Quadrupole moment (field-independent basis, Debye-Ang):
   XX=           -242.0600   YY=           -238.8151   ZZ=           -261.7330
   XY=              1.3529   XZ=            -18.7836   YZ=            -13.4648

 Normal termination of Gaussian 16 at Mon Jul 29 15:48:35 2019.
