 Gaussian 16, Revision A.03,
 Gaussian 16:  ES64L-G16RevA.03 25-Dec-2016

 --------------------------
 # td=(NStates=1) B3LYP/SVP
 --------------------------

 --
 TD
 --
 Symbolic Z-matrix:
 Charge =  0 Multiplicity = 1

                         Standard orientation:
 ---------------------------------------------------------------------
 Center     Atomic      Atomic             Coordinates (Angstroms)
 Number     Number       Type             X           Y           Z
 ---------------------------------------------------------------------
      1          8           0       -3.175420   -1.063594   -2.841781
      2          8           0        3.267776    2.807298    3.318182
      3          8           0        4.059129    0.930171    4.320428
      4          8           0        7.654361   -1.328587   -1.087674
      5          8           0        6.477059   -3.015074   -2.031845
      6          8           0       -2.768715    1.644408    1.619298
      7          7           0       -0.186958   -2.522534    0.747072
      8          7           0       -2.635053   -1.210398   -0.639645
      9          7           0        1.184840    0.154337   -0.665115
     10          7           0       -0.953310    1.589142    0.091813
     11          6           0       -3.379337   -1.490056    0.675937
     12          6           0       -2.628989   -2.521054    1.406667
     13          6           0       -1.130929   -2.167178    1.583756
     14          6           0       -0.516396   -1.396952    2.667549
     15          6           0        0.867416   -1.368187    2.377818
     16          6           0        0.947347   -1.834763    1.018542
     17          6           0       -4.752545   -1.999123    0.212571
     18          6           0        1.938234   -0.609005    3.182038
     19          6           0       -4.860599   -1.925163   -1.130377
     20          6           0        2.123029   -1.818571    0.047795
     21          6           0        2.092844   -0.888444   -0.837721
     22          6           0       -3.449057   -1.348276   -1.680692
     23          6           0        2.943999   -0.473080   -1.939768
     24          6           0       -1.139031   -0.943849    3.877800
     25          6           0       -5.757952   -2.390553    1.174209
     26          6           0        2.436949    0.717514   -2.477103
     27          6           0        2.026000    0.860395    2.891141
     28          6           0        1.176582    1.043517   -1.775678
     29          6           0        4.123860   -1.262525   -2.240975
     30          6           0       -5.900916   -2.268726   -2.081987
     31          6           0        5.356177   -1.033880   -1.327105
     32          6           0        3.002965    1.429109   -3.697273
     33          6           0        0.474471    2.154925   -1.795732
     34          6           0        3.312782    1.499466    3.525210
     35          6           0       -0.650649    2.483424   -0.986743
     36          6           0       -6.892931   -3.101509   -1.986325
     37          6           0        6.543862   -1.958267   -1.571033
     38          6           0       -1.515047    3.595929   -0.947915
     39          6           0       -2.439886    3.427127    0.115414
     40          6           0       -2.096935    2.154699    0.702551
     41          6           0       -1.200149    4.739101   -1.771074
     42          6           0       -3.724473    4.208241    0.600413
     43          6           0       -1.965398    5.931983   -1.898326
     44          1           0       -3.533580   -0.579632    1.387514
     45          1           0       -2.475694   -3.618758    0.788134
     46          1           0       -3.064705   -2.972691    2.184707
     47          1           0       -0.470681   -2.590828   -0.268935
     48          1           0       -1.968295   -0.341470   -0.639438
     49          1           0        1.746139   -0.829730    4.184299
     50          1           0        2.869461   -1.176223    2.811923
     51          1           0        2.910584   -2.601287   -0.132347
     52          1           0       -1.791740   -1.583931    4.678049
     53          1           0       -0.318094   -0.268202    4.612126
     54          1           0       -1.757845   -0.255944    3.353105
     55          1           0       -5.625875   -1.692720    1.992171
     56          1           0       -5.675194   -3.423813    1.573771
     57          1           0       -6.715366   -2.333032    0.619055
     58          1           0        2.269707    0.925367    1.731892
     59          1           0        1.218743    1.402159    3.244745
     60          1           0        0.375067    0.446165   -0.058306
     61          1           0        4.452161   -0.982153   -3.045087
     62          1           0        4.028479   -2.305737   -2.360719
     63          1           0       -6.014414   -1.911895   -3.148931
     64          1           0        5.045617   -1.240230   -0.431193
     65          1           0        5.626373    0.082805   -1.570236
     66          1           0        3.889554    0.864288   -4.120111
     67          1           0        3.295009    2.403110   -3.361487
     68          1           0        2.361058    1.672891   -4.402659
     69          1           0        0.535234    2.858722   -2.732672
     70          1           0       -7.196150   -3.804052   -1.094297
     71          1           0       -7.754712   -2.964258   -2.801830
     72          1           0        4.193146    3.374266    3.650570
     73          1           0       -0.256029    4.736442   -2.498676
     74          1           0       -4.624428    4.324928   -0.045277
     75          1           0       -4.233878    3.647105    1.414331
     76          1           0       -3.410018    5.191834    1.087362
     77          1           0        8.437641   -1.866823   -1.394277
     78          1           0       -1.713740    6.648957   -2.644596
     79          1           0       -2.825472    6.215949   -1.155921
 ---------------------------------------------------------------------

 SCF Done:  E(RB3LYP) =  -1947.75093693     A.U. after   20 cycles

 Excitation energies and oscillator strengths:

 Excited State   1:      Singlet-A      0.5808 eV 2134.71 nm  f=0.0001  <S**2>=0.000
     155 ->156         0.70484
 This state for optimization and/or second-order correction.
 Total Energy, E(TD-HF/TD-DFT) =  -1947.72959291
 Copying the excited state density for this state as the 1-particle RhoCI density.

 The electronic state is 1-A.
 Alpha  occ. eigenvalues --  -19.19218 -19.18859 -19.14819 -19.12369 -19.11443
 Alpha  occ. eigenvalues --  -19.08099 -14.36793 -14.36108 -14.33882 -14.31368
 Alpha  occ. eigenvalues --  -10.33025 -10.31116 -10.28025 -10.26720 -10.26053
 Alpha  occ. eigenvalues --  -10.25806 -10.23861 -10.23308 -10.23213 -10.23210
 Alpha  occ. eigenvalues --  -10.22668 -10.22536 -10.22436 -10.22230 -10.21604
 Alpha  occ. eigenvalues --  -10.21513 -10.21053 -10.20925 -10.20653 -10.20516
 Alpha  occ. eigenvalues --  -10.20159 -10.19778 -10.19766 -10.19685 -10.19228
 Alpha  occ. eigenvalues --  -10.19120 -10.19092 -10.18932 -10.18777 -10.18768
 Alpha  occ. eigenvalues --  -10.18082 -10.17027 -10.16521  -1.11861  -1.07597
 Alpha  occ. eigenvalues --   -1.03733  -1.02007  -1.00178  -0.98604  -0.98364
 Alpha  occ. eigenvalues --   -0.97670  -0.92617  -0.91061  -0.84721  -0.83302
 Alpha  occ. eigenvalues --   -0.81315  -0.80570  -0.79834  -0.79265  -0.78392
 Alpha  occ. eigenvalues --   -0.77378  -0.76023  -0.75201  -0.74698  -0.73761
 Alpha  occ. eigenvalues --   -0.71219  -0.70204  -0.70121  -0.69606  -0.67532
 Alpha  occ. eigenvalues --   -0.66382  -0.65477  -0.62885  -0.61611  -0.60787
 Alpha  occ. eigenvalues --   -0.59166  -0.58645  -0.58192  -0.57944  -0.57002
 Alpha  occ. eigenvalues --   -0.55022  -0.54653  -0.53819  -0.53077  -0.52289
 Alpha  occ. eigenvalues --   -0.51576  -0.51298  -0.51193  -0.50511  -0.49864
 Alpha  occ. eigenvalues --   -0.49747  -0.48865  -0.48537  -0.48227  -0.47273
 Alpha  occ. eigenvalues --   -0.47046  -0.46706  -0.46308  -0.46016  -0.45529
 Alpha  occ. eigenvalues --   -0.45160  -0.44711  -0.44530  -0.44202  -0.43955
 Alpha  occ. eigenvalues --   -0.43748  -0.43419  -0.43147  -0.42713  -0.42319
 Alpha  occ. eigenvalues --   -0.41800  -0.41717  -0.41292  -0.41157  -0.40960
 Alpha  occ. eigenvalues --   -0.40712  -0.40523  -0.40261  -0.39907  -0.39308
 Alpha  occ. eigenvalues --   -0.39167  -0.39004  -0.38646  -0.38397  -0.38041
 Alpha  occ. eigenvalues --   -0.37433  -0.37195  -0.37056  -0.36714  -0.36369
 Alpha  occ. eigenvalues --   -0.36015  -0.35565  -0.35382  -0.34586  -0.34391
 Alpha  occ. eigenvalues --   -0.33863  -0.33292  -0.32508  -0.32273  -0.31152
 Alpha  occ. eigenvalues --   -0.30423  -0.30072  -0.29649  -0.29450  -0.28787
 Alpha  occ. eigenvalues --   -0.26725  -0.26391  -0.25954  -0.25474  -0.23597
 Alpha  occ. eigenvalues --   -0.23557  -0.22869  -0.22813  -0.22559  -0.18203
 Alpha virt. eigenvalues --   -0.13728  -0.07908  -0.03423  -0.03016  -0.00100
 Alpha virt. eigenvalues --    0.00312   0.00857   0.01663   0.02455   0.02881
 Alpha virt. eigenvalues --    0.03213   0.03508   0.04545   0.04967   0.05423

 Mulliken charges:
               1
     1  O   -0.243412
     2  O   -0.246886
     3  O   -0.243739
     4  O   -0.210558
     5  O   -0.150906
     6  O   -0.223998
     7  N    0.035443
     8  N   -0.224646
     9  N   -0.169805
    10  N   -0.383934
    11  C    0.074924
    12  C    0.148970
    13  C   -0.157095
    14  C   -0.060391
    15  C   -0.112607
    16  C   -0.076889
    17  C   -0.174755
    18  C    0.129309
    19  C   -0.008353
    20  C   -0.148095
    21  C    0.188794
    22  C    0.123933
    23  C   -0.062818
    24  C   -0.039177
    25  C    0.110260
    26  C   -0.150344
    27  C    0.018130
    28  C    0.155458
    29  C    0.252507
    30  C   -0.006921
    31  C    0.031076
    32  C    0.180778
    33  C   -0.098015
    34  C    0.138621
    35  C    0.070448
    36  C   -0.141577
    37  C    0.110302
    38  C    0.103018
    39  C   -0.136403
    40  C    0.186001
    41  C   -0.114648
    42  C    0.047133
    43  C   -0.035466
    44  H    0.086022
    45  H   -0.005025
    46  H   -0.040983
    47  H    0.140857
    48  H    0.179258
    49  H   -0.005447
    50  H    0.008873
    51  H    0.007248
    52  H    0.040820
    53  H    0.015265
    54  H    0.033236
    55  H    0.014362
    56  H    0.037535
    57  H    0.027780
    58  H    0.048524
    59  H    0.024499
    60  H    0.199462
    61  H   -0.128306
    62  H    0.008424
    63  H    0.025807
    64  H   -0.013504
    65  H    0.045968
    66  H    0.031966
    67  H    0.005921
    68  H   -0.014238
    69  H    0.015685
    70  H    0.024207
    71  H    0.033669
    72  H    0.246096
    73  H    0.036521
    74  H    0.046933
    75  H    0.025019
    76  H    0.042362
    77  H    0.189528
    78  H    0.027291
    79  H    0.054697
 Sum of Mulliken charges =  -0.00000

 Dipole moment (field-independent basis, Debye):
    X=              3.1804    Y=              4.6723    Z=             -2.4491  Tot=              6.1598
 Quadrupole moment (field-independent basis, Debye-Ang):
   XX=           -224.6315   YY=           -232.9226   ZZ=           -266.8447
   XY=              6.9871   XZ=            -28.9059   YZ=            -10.4048

 Normal termination of Gaussian 16 at Wed Jul 24 12:39:52 2019.
