 Gaussian 16, Revision A.03,
 Gaussian 16:  ES64L-G16RevA.03 25-Dec-2016

 --------------------------
 # td=(NStates=1) B3LYP/SVP
 --------------------------

 --
 TD
 --
 Symbolic Z-matrix:
 Charge =  0 Multiplicity = 1

                         Standard orientation:
 ---------------------------------------------------------------------
 Center     Atomic      Atomic             Coordinates (Angstroms)
 Number     Number       Type             X           Y           Z
 ---------------------------------------------------------------------
      1          8           0        5.500715    0.040609   -3.263758
      2          8           0       -3.054090   -2.917535    3.407451
      3          8           0       -3.509442   -0.665523    3.163528
      4          8           0       -1.732725    7.227712    1.521846
      5          8           0       -0.715045    7.118237   -0.446458
      6          8           0       -1.757066   -4.061098   -0.021349
      7          7           0        2.353253    1.015856    0.678816
      8          7           0        4.372654   -0.508014   -1.263641
      9          7           0       -1.720190    0.812645   -0.469820
     10          7           0       -2.506162   -1.895314   -0.546171
     11          6           0        4.726561   -1.227482   -0.088791
     12          6           0        4.370137   -0.447037    1.274766
     13          6           0        2.881692   -0.103939    1.404485
     14          6           0        1.940308   -0.747750    2.066373
     15          6           0        0.735213    0.055882    1.814919
     16          6           0        0.979137    1.054050    0.975338
     17          6           0        6.206933   -1.401305   -0.175854
     18          6           0       -0.642596   -0.163108    2.531203
     19          6           0        6.703747   -0.934949   -1.310122
     20          6           0        0.242196    2.001623    0.244482
     21          6           0       -1.050472    1.938641   -0.323471
     22          6           0        5.517372   -0.412527   -2.080614
     23          6           0       -1.923665    2.908436   -0.955555
     24          6           0        2.029635   -1.922084    3.111653
     25          6           0        7.058764   -2.144511    0.829461
     26          6           0       -2.968878    2.310234   -1.488346
     27          6           0       -1.340374   -1.515764    2.569734
     28          6           0       -2.926624    0.918284   -1.146591
     29          6           0       -1.491303    4.403982   -0.929292
     30          6           0        8.070355   -0.766775   -1.893795
     31          6           0       -1.744296    5.039090    0.420654
     32          6           0       -4.307772    2.894788   -2.088825
     33          6           0       -3.782383   -0.151971   -1.451989
     34          6           0       -2.784192   -1.628172    2.970455
     35          6           0       -3.616123   -1.493474   -1.198582
     36          6           0        9.212511   -0.652762   -1.246640
     37          6           0       -1.304546    6.521147    0.458967
     38          6           0       -4.452533   -2.648961   -1.550192
     39          6           0       -3.848513   -3.781251   -1.108510
     40          6           0       -2.615144   -3.376870   -0.465956
     41          6           0       -5.821321   -2.419706   -2.123874
     42          6           0       -4.294785   -5.272211   -1.175441
     43          6           0       -6.640397   -3.405809   -2.601013
     44          1           0        4.030414   -2.075825   -0.090333
     45          1           0        4.970345    0.554555    1.169755
     46          1           0        4.931227   -1.160406    2.133495
     47          1           0        2.891389    1.377937   -0.209688
     48          1           0        3.361475   -0.794703   -1.698773
     49          1           0       -0.321773    0.240962    3.588041
     50          1           0       -1.305687    0.444392    2.086650
     51          1           0        0.616217    3.025368    0.160682
     52          1           0        3.037139   -2.120457    3.283829
     53          1           0        1.288595   -1.705879    3.963102
     54          1           0        1.617343   -2.778523    2.724931
     55          1           0        6.452847   -2.686459    1.269958
     56          1           0        7.442026   -1.421198    1.446405
     57          1           0        7.809665   -2.643612    0.477421
     58          1           0       -1.161307   -1.950992    1.675899
     59          1           0       -0.920934   -2.228095    3.355351
     60          1           0       -1.670082   -0.148445   -0.163271
     61          1           0       -1.955928    4.881293   -1.892521
     62          1           0       -0.378470    4.232985   -1.016265
     63          1           0        8.127255   -0.303433   -2.923068
     64          1           0       -1.351995    4.533837    1.222879
     65          1           0       -2.783787    4.752518    0.662446
     66          1           0       -4.330327    4.024660   -2.403317
     67          1           0       -5.146543    2.753513   -1.427829
     68          1           0       -4.562859    2.389597   -2.923236
     69          1           0       -4.764844    0.179407   -1.966630
     70          1           0        9.110873   -0.699200   -0.210278
     71          1           0       10.025524   -0.417729   -1.675683
     72          1           0       -3.937522   -3.022337    3.736130
     73          1           0       -6.079928   -1.533831   -2.591013
     74          1           0       -5.204750   -5.394065   -0.304015
     75          1           0       -4.662387   -5.554874   -2.179335
     76          1           0       -3.579510   -6.037497   -0.842253
     77          1           0       -1.452111    8.246263    1.537966
     78          1           0       -7.714060   -3.054331   -2.875847
     79          1           0       -6.495054   -4.387260   -2.400169
 ---------------------------------------------------------------------

 SCF Done:  E(RB3LYP) =  -1947.79884655     A.U. after   17 cycles

 Excitation energies and oscillator strengths:

 Excited State   1:      Singlet-A      2.0013 eV  619.51 nm  f=0.3717  <S**2>=0.000
     155 ->156         0.69322
     155 <-156        -0.12023
 This state for optimization and/or second-order correction.
 Total Energy, E(TD-HF/TD-DFT) =  -1947.72529876
 Copying the excited state density for this state as the 1-particle RhoCI density.

 The electronic state is 1-A.
 Alpha  occ. eigenvalues --  -19.18630 -19.16962 -19.12428 -19.11916 -19.11362
 Alpha  occ. eigenvalues --  -19.09831 -14.36980 -14.36277 -14.36077 -14.28955
 Alpha  occ. eigenvalues --  -10.32925 -10.31455 -10.28800 -10.26690 -10.24703
 Alpha  occ. eigenvalues --  -10.24678 -10.24348 -10.23477 -10.22842 -10.22529
 Alpha  occ. eigenvalues --  -10.22073 -10.21897 -10.21799 -10.21763 -10.21428
 Alpha  occ. eigenvalues --  -10.21418 -10.21198 -10.20902 -10.20810 -10.20638
 Alpha  occ. eigenvalues --  -10.20525 -10.20399 -10.20373 -10.20258 -10.20033
 Alpha  occ. eigenvalues --  -10.20006 -10.19339 -10.19212 -10.18991 -10.18876
 Alpha  occ. eigenvalues --  -10.18389 -10.17899 -10.17487  -1.08467  -1.07335
 Alpha  occ. eigenvalues --   -1.03724  -1.00188  -1.00159  -0.99402  -0.98722
 Alpha  occ. eigenvalues --   -0.96328  -0.93781  -0.91581  -0.83116  -0.82819
 Alpha  occ. eigenvalues --   -0.81788  -0.80270  -0.80098  -0.79155  -0.78311
 Alpha  occ. eigenvalues --   -0.78043  -0.76515  -0.75847  -0.74543  -0.73661
 Alpha  occ. eigenvalues --   -0.72436  -0.71555  -0.69899  -0.69206  -0.68049
 Alpha  occ. eigenvalues --   -0.67342  -0.66495  -0.63919  -0.61898  -0.61427
 Alpha  occ. eigenvalues --   -0.61090  -0.59326  -0.58722  -0.57502  -0.57050
 Alpha  occ. eigenvalues --   -0.56324  -0.55816  -0.54769  -0.54128  -0.53706
 Alpha  occ. eigenvalues --   -0.52174  -0.51550  -0.51241  -0.51213  -0.49644
 Alpha  occ. eigenvalues --   -0.49460  -0.48780  -0.48409  -0.47936  -0.47479
 Alpha  occ. eigenvalues --   -0.47119  -0.47079  -0.46458  -0.46408  -0.45958
 Alpha  occ. eigenvalues --   -0.45429  -0.45026  -0.44873  -0.43904  -0.43765
 Alpha  occ. eigenvalues --   -0.43467  -0.43236  -0.42724  -0.42374  -0.42176
 Alpha  occ. eigenvalues --   -0.42112  -0.41833  -0.41587  -0.41335  -0.41225
 Alpha  occ. eigenvalues --   -0.40938  -0.40814  -0.40406  -0.40074  -0.39397
 Alpha  occ. eigenvalues --   -0.39151  -0.39045  -0.38790  -0.38505  -0.38297
 Alpha  occ. eigenvalues --   -0.38073  -0.38044  -0.37852  -0.37299  -0.37029
 Alpha  occ. eigenvalues --   -0.36439  -0.36338  -0.35713  -0.35367  -0.35312
 Alpha  occ. eigenvalues --   -0.34582  -0.34101  -0.33202  -0.32009  -0.31775
 Alpha  occ. eigenvalues --   -0.31518  -0.31058  -0.28803  -0.28139  -0.28036
 Alpha  occ. eigenvalues --   -0.26859  -0.26698  -0.26385  -0.25374  -0.24985
 Alpha  occ. eigenvalues --   -0.24413  -0.24323  -0.24086  -0.22820  -0.19278
 Alpha virt. eigenvalues --   -0.11409  -0.06942  -0.05501  -0.01136  -0.00784
 Alpha virt. eigenvalues --   -0.00379   0.00459   0.01745   0.02331   0.02417
 Alpha virt. eigenvalues --    0.03812   0.04099   0.04781   0.05143   0.05348

 Mulliken charges:
               1
     1  O   -0.264655
     2  O   -0.208393
     3  O   -0.229693
     4  O   -0.233532
     5  O   -0.246155
     6  O   -0.152283
     7  N   -0.193630
     8  N   -0.240455
     9  N   -0.023503
    10  N   -0.355088
    11  C    0.065806
    12  C    0.051410
    13  C   -0.041633
    14  C   -0.130993
    15  C   -0.187872
    16  C    0.196360
    17  C   -0.253904
    18  C    0.135415
    19  C    0.003516
    20  C   -0.085813
    21  C    0.016155
    22  C    0.152229
    23  C   -0.114200
    24  C    0.197050
    25  C    0.353082
    26  C   -0.107856
    27  C    0.026948
    28  C    0.023190
    29  C    0.089906
    30  C   -0.037856
    31  C    0.041145
    32  C    0.112571
    33  C   -0.083221
    34  C    0.160780
    35  C    0.089468
    36  C    0.092637
    37  C    0.177393
    38  C    0.059946
    39  C   -0.175643
    40  C    0.142887
    41  C    0.003092
    42  C    0.032014
    43  C   -0.017520
    44  H    0.013688
    45  H    0.010591
    46  H    0.040633
    47  H    0.162522
    48  H    0.183096
    49  H    0.028744
    50  H   -0.040081
    51  H   -0.007485
    52  H   -0.017407
    53  H    0.028409
    54  H   -0.001412
    55  H   -0.065213
    56  H    0.006416
    57  H   -0.030011
    58  H    0.027049
    59  H    0.028086
    60  H    0.121330
    61  H    0.048974
    62  H    0.024334
    63  H    0.029788
    64  H    0.003214
    65  H    0.033994
    66  H    0.027619
    67  H    0.026970
    68  H   -0.009589
    69  H   -0.009007
    70  H   -0.013147
    71  H   -0.035584
    72  H    0.169688
    73  H   -0.011620
    74  H    0.046267
    75  H    0.046694
    76  H    0.032119
    77  H    0.233035
    78  H    0.041253
    79  H   -0.013057
 Sum of Mulliken charges =  -0.00000

 Dipole moment (field-independent basis, Debye):
    X=             -1.0272    Y=             -0.0774    Z=              3.1429  Tot=              3.3074
 Quadrupole moment (field-independent basis, Debye-Ang):
   XX=           -215.9578   YY=           -241.6007   ZZ=           -263.2893
   XY=             -7.7583   XZ=             32.0316   YZ=              5.6021

 Normal termination of Gaussian 16 at Tue Oct  8 17:22:41 2019.
