 Gaussian 16, Revision A.03,
 Gaussian 16:  ES64L-G16RevA.03 25-Dec-2016

 --------------------------
 # td=(NStates=1) B3LYP/SVP
 --------------------------

 --
 TD
 --
 Symbolic Z-matrix:
 Charge =  0 Multiplicity = 1

                         Standard orientation:
 ---------------------------------------------------------------------
 Center     Atomic      Atomic             Coordinates (Angstroms)
 Number     Number       Type             X           Y           Z
 ---------------------------------------------------------------------
      1          8           0        5.361785   -0.088423   -3.284442
      2          8           0       -2.913814   -3.008412    3.207611
      3          8           0       -3.267637   -0.797358    3.191222
      4          8           0       -2.003433    7.188115    1.400261
      5          8           0       -0.915365    7.007043   -0.577520
      6          8           0       -1.658621   -4.074064    0.126697
      7          7           0        2.370251    1.055876    0.596992
      8          7           0        4.442441   -0.489006   -1.217172
      9          7           0       -1.831466    0.626237   -0.515430
     10          7           0       -2.544574   -1.993524   -0.517942
     11          6           0        4.873934   -1.093077    0.040615
     12          6           0        4.432890   -0.087679    1.197369
     13          6           0        2.997906    0.146589    1.394297
     14          6           0        2.018317   -0.604298    2.044524
     15          6           0        0.722077    0.069792    1.715855
     16          6           0        0.960513    0.976668    0.756249
     17          6           0        6.384452   -1.197617   -0.114543
     18          6           0       -0.554525   -0.119321    2.452494
     19          6           0        6.724617   -0.860987   -1.355756
     20          6           0        0.145971    1.985164    0.079924
     21          6           0       -1.132331    1.915673   -0.360484
     22          6           0        5.472510   -0.469056   -2.114776
     23          6           0       -2.009802    2.923191   -0.968055
     24          6           0        2.242474   -1.585968    3.135953
     25          6           0        7.218144   -1.698326    1.080471
     26          6           0       -3.187217    2.236654   -1.352620
     27          6           0       -1.162904   -1.665838    2.461684
     28          6           0       -3.042759    0.905679   -0.997403
     29          6           0       -1.651937    4.437577   -0.966529
     30          6           0        8.068996   -0.880625   -1.984211
     31          6           0       -1.869569    5.045673    0.400359
     32          6           0       -4.423052    2.998188   -2.002380
     33          6           0       -3.940443   -0.166432   -1.362122
     34          6           0       -2.539519   -1.756521    3.053814
     35          6           0       -3.644818   -1.631373   -1.151806
     36          6           0        9.249300   -0.833220   -1.545546
     37          6           0       -1.498447    6.546766    0.430529
     38          6           0       -4.555080   -2.798752   -1.494883
     39          6           0       -3.828727   -3.902420   -1.046869
     40          6           0       -2.604381   -3.414848   -0.455958
     41          6           0       -5.933184   -2.635835   -1.998403
     42          6           0       -4.258592   -5.267478   -1.083250
     43          6           0       -6.707248   -3.670138   -2.469764
     44          1           0        4.424649   -2.171088    0.201035
     45          1           0        4.888940    0.907419    0.962104
     46          1           0        5.028224   -0.540448    2.016636
     47          1           0        2.882107    1.650272   -0.152110
     48          1           0        3.316274   -0.424045   -1.321303
     49          1           0       -0.338824    0.091524    3.515152
     50          1           0       -1.290976    0.502957    2.190902
     51          1           0        0.620746    2.889338   -0.102909
     52          1           0        3.384482   -1.631304    3.370816
     53          1           0        1.960517   -1.477775    4.121198
     54          1           0        1.773687   -2.499084    2.738991
     55          1           0        6.628788   -2.231574    1.773425
     56          1           0        7.996534   -0.918993    1.575941
     57          1           0        8.107987   -2.326079    0.696193
     58          1           0       -1.070898   -1.946273    1.334735
     59          1           0       -0.353286   -2.245827    3.028013
     60          1           0       -1.614873   -0.264233   -0.287524
     61          1           0       -2.121450    4.993884   -1.580784
     62          1           0       -0.663012    4.677195   -1.165376
     63          1           0        7.879067   -0.782706   -3.029595
     64          1           0       -1.455378    4.514002    1.213008
     65          1           0       -2.916927    5.116930    0.744768
     66          1           0       -4.273803    4.062184   -1.693285
     67          1           0       -5.445263    2.322524   -1.490845
     68          1           0       -4.539901    2.686706   -2.993391
     69          1           0       -4.982515    0.184769   -1.604202
     70          1           0        9.501745   -0.755978   -0.447992
     71          1           0       10.183915   -0.732695   -2.160620
     72          1           0       -3.912582   -2.777672    3.677093
     73          1           0       -6.659804   -1.623360   -1.624185
     74          1           0       -5.239038   -5.377053   -0.651962
     75          1           0       -4.351156   -5.564785   -2.154183
     76          1           0       -3.426844   -5.924806   -0.635579
     77          1           0       -1.782537    8.073941    1.543217
     78          1           0       -7.714123   -3.038873   -2.321661
     79          1           0       -6.109760   -4.718111   -2.734141
 ---------------------------------------------------------------------

 SCF Done:  E(RB3LYP) =  -1947.78870771     A.U. after   18 cycles

 Excitation energies and oscillator strengths:

 Excited State   1:      Singlet-A      1.9674 eV  630.20 nm  f=0.3772  <S**2>=0.000
     155 ->156         0.69128
     155 <-156        -0.11416
 This state for optimization and/or second-order correction.
 Total Energy, E(TD-HF/TD-DFT) =  -1947.71640844
 Copying the excited state density for this state as the 1-particle RhoCI density.

 The electronic state is 1-A.
 Alpha  occ. eigenvalues --  -19.21316 -19.18343 -19.12511 -19.11250 -19.10375
 Alpha  occ. eigenvalues --  -19.09219 -14.38358 -14.35882 -14.35731 -14.29186
 Alpha  occ. eigenvalues --  -10.33383 -10.30439 -10.28583 -10.26627 -10.25280
 Alpha  occ. eigenvalues --  -10.24751 -10.24194 -10.23745 -10.22927 -10.22786
 Alpha  occ. eigenvalues --  -10.22716 -10.22527 -10.22413 -10.22261 -10.22084
 Alpha  occ. eigenvalues --  -10.21989 -10.21801 -10.21572 -10.21505 -10.20912
 Alpha  occ. eigenvalues --  -10.20815 -10.20450 -10.19952 -10.19823 -10.19535
 Alpha  occ. eigenvalues --  -10.19323 -10.19159 -10.19105 -10.19086 -10.19057
 Alpha  occ. eigenvalues --  -10.18984 -10.18959 -10.17969  -1.14253  -1.08772
 Alpha  occ. eigenvalues --   -1.01169  -1.00451  -0.98922  -0.98368  -0.97963
 Alpha  occ. eigenvalues --   -0.97653  -0.93338  -0.91178  -0.83177  -0.82085
 Alpha  occ. eigenvalues --   -0.81712  -0.80790  -0.80032  -0.79262  -0.78548
 Alpha  occ. eigenvalues --   -0.77018  -0.76345  -0.74848  -0.73988  -0.72455
 Alpha  occ. eigenvalues --   -0.71911  -0.71146  -0.70372  -0.69378  -0.68648
 Alpha  occ. eigenvalues --   -0.66494  -0.66258  -0.64549  -0.63690  -0.61027
 Alpha  occ. eigenvalues --   -0.60345  -0.58668  -0.57811  -0.56886  -0.56401
 Alpha  occ. eigenvalues --   -0.55834  -0.55441  -0.54582  -0.53634  -0.52978
 Alpha  occ. eigenvalues --   -0.52065  -0.51247  -0.50783  -0.50409  -0.49903
 Alpha  occ. eigenvalues --   -0.49350  -0.48789  -0.48511  -0.47980  -0.47725
 Alpha  occ. eigenvalues --   -0.47501  -0.46872  -0.46642  -0.46283  -0.45379
 Alpha  occ. eigenvalues --   -0.45206  -0.45117  -0.44652  -0.44344  -0.44108
 Alpha  occ. eigenvalues --   -0.44058  -0.43735  -0.43019  -0.42940  -0.42251
 Alpha  occ. eigenvalues --   -0.41677  -0.41359  -0.41069  -0.40883  -0.40587
 Alpha  occ. eigenvalues --   -0.40521  -0.39866  -0.39651  -0.39418  -0.39302
 Alpha  occ. eigenvalues --   -0.39047  -0.38812  -0.38586  -0.38570  -0.37950
 Alpha  occ. eigenvalues --   -0.37574  -0.37485  -0.37297  -0.36470  -0.36364
 Alpha  occ. eigenvalues --   -0.36228  -0.35329  -0.34917  -0.33954  -0.33632
 Alpha  occ. eigenvalues --   -0.33266  -0.33066  -0.32671  -0.32368  -0.32286
 Alpha  occ. eigenvalues --   -0.31036  -0.30956  -0.28896  -0.28104  -0.27186
 Alpha  occ. eigenvalues --   -0.26978  -0.26036  -0.25887  -0.25385  -0.24876
 Alpha  occ. eigenvalues --   -0.24281  -0.23954  -0.23217  -0.22532  -0.18971
 Alpha virt. eigenvalues --   -0.11129  -0.07242  -0.05101  -0.01174  -0.00555
 Alpha virt. eigenvalues --    0.00826   0.01385   0.01575   0.01937   0.02154
 Alpha virt. eigenvalues --    0.02642   0.02868   0.03089   0.03641   0.03969

 Mulliken charges:
               1
     1  O   -0.239074
     2  O   -0.204286
     3  O   -0.251917
     4  O   -0.071533
     5  O   -0.279360
     6  O   -0.261835
     7  N   -0.151886
     8  N   -0.245077
     9  N   -0.032251
    10  N   -0.266099
    11  C    0.029727
    12  C    0.140928
    13  C   -0.024071
    14  C   -0.124826
    15  C   -0.097900
    16  C    0.087043
    17  C   -0.155921
    18  C    0.147641
    19  C   -0.068701
    20  C   -0.065956
    21  C    0.119655
    22  C    0.177574
    23  C   -0.075151
    24  C    0.071695
    25  C    0.042960
    26  C   -0.150934
    27  C   -0.097834
    28  C    0.085357
    29  C    0.284529
    30  C    0.073133
    31  C   -0.049871
    32  C    0.071190
    33  C   -0.101391
    34  C    0.164759
    35  C    0.046418
    36  C   -0.064744
    37  C    0.125593
    38  C    0.032830
    39  C   -0.169645
    40  C    0.181911
    41  C   -0.116311
    42  C    0.073345
    43  C   -0.091843
    44  H    0.051999
    45  H   -0.001754
    46  H   -0.001149
    47  H    0.149237
    48  H    0.180860
    49  H   -0.001047
    50  H   -0.038364
    51  H   -0.041579
    52  H   -0.002319
    53  H    0.001155
    54  H    0.052352
    55  H    0.025865
    56  H    0.055063
    57  H    0.036686
    58  H    0.121341
    59  H    0.026513
    60  H    0.083655
    61  H   -0.072902
    62  H   -0.008651
    63  H   -0.006765
    64  H    0.019145
    65  H    0.019489
    66  H    0.056106
    67  H    0.039518
    68  H    0.030661
    69  H   -0.016711
    70  H    0.005549
    71  H    0.036085
    72  H    0.221554
    73  H    0.050691
    74  H    0.030618
    75  H    0.031722
    76  H    0.042954
    77  H    0.171936
    78  H    0.070878
    79  H    0.081741
 Sum of Mulliken charges =  -0.00000

 Dipole moment (field-independent basis, Debye):
    X=             -0.7219    Y=              3.8907    Z=              4.8543  Tot=              6.2629
 Quadrupole moment (field-independent basis, Debye-Ang):
   XX=           -218.0206   YY=           -235.2443   ZZ=           -264.4715
   XY=            -10.7542   XZ=             28.7291   YZ=             12.3269

 Normal termination of Gaussian 16 at Sun Sep 22 12:05:47 2019.
