 Gaussian 16, Revision A.03,
 Gaussian 16:  ES64L-G16RevA.03 25-Dec-2016

 --------------------------
 # td=(NStates=1) B3LYP/SVP
 --------------------------

 --
 TD
 --
 Symbolic Z-matrix:
 Charge =  0 Multiplicity = 1

                         Standard orientation:
 ---------------------------------------------------------------------
 Center     Atomic      Atomic             Coordinates (Angstroms)
 Number     Number       Type             X           Y           Z
 ---------------------------------------------------------------------
      1          8           0       -3.351435   -1.015807   -3.002813
      2          8           0        3.076316    2.650504    3.379890
      3          8           0        3.663867    0.695071    4.617866
      4          8           0        7.749493   -1.356594   -0.790120
      5          8           0        6.793912   -2.526101   -2.560067
      6          8           0       -2.563847    1.560503    1.572911
      7          7           0       -0.282697   -2.447352    0.615797
      8          7           0       -2.702478   -1.180748   -0.791112
      9          7           0        1.119770    0.134232   -0.723691
     10          7           0       -1.078341    1.407185   -0.165602
     11          6           0       -3.468874   -1.446269    0.529618
     12          6           0       -2.651633   -2.496014    1.330385
     13          6           0       -1.303091   -2.159583    1.563472
     14          6           0       -0.651901   -1.545704    2.675721
     15          6           0        0.760783   -1.523829    2.391174
     16          6           0        0.902135   -1.884602    1.053308
     17          6           0       -4.784898   -1.869863   -0.016086
     18          6           0        1.799545   -0.809367    3.259597
     19          6           0       -4.796898   -1.864839   -1.294128
     20          6           0        1.997025   -1.915016    0.122693
     21          6           0        2.007115   -0.886315   -0.761185
     22          6           0       -3.537998   -1.354892   -1.902399
     23          6           0        2.973448   -0.463514   -1.803936
     24          6           0       -1.426380   -0.964171    3.803367
     25          6           0       -5.873098   -2.152051    1.184059
     26          6           0        2.605497    0.615522   -2.397454
     27          6           0        1.972957    0.680402    2.909907
     28          6           0        1.324795    1.032270   -1.726049
     29          6           0        4.196730   -1.353070   -2.094187
     30          6           0       -5.928555   -2.061103   -2.225117
     31          6           0        5.496219   -0.936765   -1.259447
     32          6           0        3.097482    1.321880   -3.523452
     33          6           0        0.648047    2.247349   -1.776070
     34          6           0        3.091915    1.280375    3.806186
     35          6           0       -0.485493    2.410167   -1.015478
     36          6           0       -7.020315   -2.802623   -2.005149
     37          6           0        6.773509   -1.670931   -1.690308
     38          6           0       -1.329838    3.572213   -0.862392
     39          6           0       -2.126504    3.428917    0.134108
     40          6           0       -1.950029    2.034052    0.591135
     41          6           0       -1.249405    4.831976   -1.671439
     42          6           0       -3.319208    4.226546    0.641059
     43          6           0       -1.861124    5.979418   -1.570798
     44          1           0       -3.566121   -0.565299    1.243281
     45          1           0       -2.539370   -3.439745    0.731308
     46          1           0       -3.206833   -2.664363    2.348576
     47          1           0       -0.379185   -2.714742   -0.328772
     48          1           0       -1.929796   -0.488286   -0.891137
     49          1           0        1.553453   -0.891486    4.098072
     50          1           0        2.974597   -1.273791    3.209310
     51          1           0        2.689927   -2.840224   -0.106739
     52          1           0       -2.023447   -1.851427    4.099527
     53          1           0       -0.773245   -0.841802    4.612198
     54          1           0       -2.050046   -0.030503    3.647267
     55          1           0       -5.552745   -1.399435    2.034447
     56          1           0       -5.901562   -3.229689    1.409739
     57          1           0       -6.855500   -1.916212    0.812558
     58          1           0        2.464552    0.692342    1.832552
     59          1           0        1.019848    1.187978    3.093082
     60          1           0        0.282316    0.496576   -0.197339
     61          1           0        4.392893   -1.268220   -3.217466
     62          1           0        3.931271   -2.463920   -1.987051
     63          1           0       -5.566009   -1.647949   -3.142115
     64          1           0        5.351808   -1.143652   -0.268831
     65          1           0        5.732064    0.055660   -1.501813
     66          1           0        3.976891    0.926241   -4.066432
     67          1           0        3.329717    2.602032   -3.344153
     68          1           0        2.277649    1.256275   -4.230301
     69          1           0        0.850661    3.092135   -2.402359
     70          1           0       -7.161066   -3.499158   -1.228138
     71          1           0       -7.821803   -2.846425   -2.983918
     72          1           0        3.792200    2.983017    4.028620
     73          1           0       -0.423485    4.811618   -2.405369
     74          1           0       -3.877133    4.592968   -0.136396
     75          1           0       -3.812555    3.681714    1.500097
     76          1           0       -2.906489    5.174032    1.221665
     77          1           0        8.422042   -2.032979   -0.998566
     78          1           0       -1.623152    6.823742   -2.411945
     79          1           0       -2.704354    6.215747   -0.766830
 ---------------------------------------------------------------------

 SCF Done:  E(RB3LYP) =  -1947.80400607     A.U. after   19 cycles

 Excitation energies and oscillator strengths:

 Excited State   1:      Singlet-A      1.0268 eV 1207.51 nm  f=0.0002  <S**2>=0.000
     155 ->156         0.70464
 This state for optimization and/or second-order correction.
 Total Energy, E(TD-HF/TD-DFT) =  -1947.76627269
 Copying the excited state density for this state as the 1-particle RhoCI density.

 The electronic state is 1-A.
 Alpha  occ. eigenvalues --  -19.20553 -19.18138 -19.15197 -19.14840 -19.10252
 Alpha  occ. eigenvalues --  -19.09216 -14.37510 -14.35815 -14.31735 -14.30385
 Alpha  occ. eigenvalues --  -10.33841 -10.32042 -10.27407 -10.26349 -10.26104
 Alpha  occ. eigenvalues --  -10.25557 -10.25533 -10.23047 -10.22921 -10.22913
 Alpha  occ. eigenvalues --  -10.22204 -10.22143 -10.22008 -10.21563 -10.21371
 Alpha  occ. eigenvalues --  -10.21246 -10.20578 -10.20484 -10.20361 -10.20049
 Alpha  occ. eigenvalues --  -10.19807 -10.19672 -10.19664 -10.19450 -10.19410
 Alpha  occ. eigenvalues --  -10.19205 -10.18883 -10.17927 -10.17670 -10.17321
 Alpha  occ. eigenvalues --  -10.17012 -10.16847 -10.16762  -1.11051  -1.10198
 Alpha  occ. eigenvalues --   -1.03667  -1.02554  -1.01971  -1.01506  -1.00749
 Alpha  occ. eigenvalues --   -0.95564  -0.93396  -0.90248  -0.85014  -0.83732
 Alpha  occ. eigenvalues --   -0.81717  -0.79932  -0.79678  -0.79448  -0.79281
 Alpha  occ. eigenvalues --   -0.77100  -0.75736  -0.75463  -0.74320  -0.73371
 Alpha  occ. eigenvalues --   -0.71227  -0.70224  -0.69426  -0.69008  -0.67600
 Alpha  occ. eigenvalues --   -0.66434  -0.65665  -0.63484  -0.61267  -0.60478
 Alpha  occ. eigenvalues --   -0.59429  -0.58484  -0.57769  -0.56660  -0.56078
 Alpha  occ. eigenvalues --   -0.55770  -0.55325  -0.54237  -0.53521  -0.52855
 Alpha  occ. eigenvalues --   -0.51764  -0.51040  -0.50758  -0.50296  -0.50166
 Alpha  occ. eigenvalues --   -0.49627  -0.49341  -0.48897  -0.48715  -0.48130
 Alpha  occ. eigenvalues --   -0.47701  -0.47226  -0.47040  -0.45662  -0.45538
 Alpha  occ. eigenvalues --   -0.45054  -0.44803  -0.44541  -0.44258  -0.43666
 Alpha  occ. eigenvalues --   -0.43548  -0.43529  -0.42819  -0.42430  -0.42296
 Alpha  occ. eigenvalues --   -0.42002  -0.41771  -0.41614  -0.41359  -0.41023
 Alpha  occ. eigenvalues --   -0.40668  -0.40415  -0.40178  -0.40036  -0.39813
 Alpha  occ. eigenvalues --   -0.39145  -0.39014  -0.38472  -0.38091  -0.37987
 Alpha  occ. eigenvalues --   -0.37525  -0.37365  -0.37056  -0.36849  -0.36590
 Alpha  occ. eigenvalues --   -0.36008  -0.35822  -0.35467  -0.35060  -0.34484
 Alpha  occ. eigenvalues --   -0.34323  -0.33576  -0.33408  -0.32584  -0.32330
 Alpha  occ. eigenvalues --   -0.31521  -0.30340  -0.29772  -0.29186  -0.28847
 Alpha  occ. eigenvalues --   -0.28512  -0.28088  -0.25156  -0.24801  -0.24400
 Alpha  occ. eigenvalues --   -0.23804  -0.23127  -0.22965  -0.22270  -0.18844
 Alpha virt. eigenvalues --   -0.12479  -0.06401  -0.02915  -0.01695  -0.01219
 Alpha virt. eigenvalues --    0.00661   0.01223   0.01893   0.03024   0.03119
 Alpha virt. eigenvalues --    0.03945   0.04086   0.04568   0.05011   0.05290

 Mulliken charges:
               1
     1  O   -0.176028
     2  O   -0.256440
     3  O   -0.136245
     4  O   -0.184753
     5  O   -0.222853
     6  O   -0.254824
     7  N   -0.075315
     8  N   -0.291691
     9  N   -0.056017
    10  N   -0.316118
    11  C    0.046599
    12  C    0.176748
    13  C   -0.045783
    14  C   -0.161967
    15  C   -0.075694
    16  C    0.001456
    17  C   -0.118664
    18  C    0.209428
    19  C   -0.142592
    20  C   -0.139181
    21  C    0.118072
    22  C    0.153862
    23  C   -0.071484
    24  C    0.128665
    25  C    0.063541
    26  C   -0.053854
    27  C   -0.056203
    28  C    0.099071
    29  C    0.023529
    30  C    0.050454
    31  C    0.094844
    32  C    0.013088
    33  C   -0.070925
    34  C    0.144939
    35  C    0.092493
    36  C   -0.059941
    37  C    0.131958
    38  C    0.082135
    39  C   -0.217555
    40  C    0.145247
    41  C    0.016702
    42  C    0.099275
    43  C   -0.107282
    44  H    0.064803
    45  H   -0.018436
    46  H    0.003585
    47  H    0.092490
    48  H    0.139710
    49  H   -0.128427
    50  H    0.007169
    51  H    0.038265
    52  H   -0.000422
    53  H   -0.035820
    54  H    0.067656
    55  H    0.047374
    56  H    0.040648
    57  H    0.019256
    58  H    0.051184
    59  H    0.054943
    60  H    0.185847
    61  H    0.024217
    62  H    0.032666
    63  H   -0.002362
    64  H    0.021533
    65  H    0.020214
    66  H    0.027294
    67  H    0.055146
    68  H    0.041041
    69  H   -0.025918
    70  H    0.010981
    71  H    0.038973
    72  H    0.176994
    73  H   -0.018588
    74  H    0.024566
    75  H    0.043739
    76  H    0.029510
    77  H    0.180538
    78  H    0.049127
    79  H    0.039806
 Sum of Mulliken charges =  -0.00000

 Dipole moment (field-independent basis, Debye):
    X=              5.3102    Y=              2.4920    Z=             -0.5246  Tot=              5.8893
 Quadrupole moment (field-independent basis, Debye-Ang):
   XX=           -236.9828   YY=           -237.2278   ZZ=           -265.7158
   XY=              4.7005   XZ=            -17.7297   YZ=             -8.5041

 Normal termination of Gaussian 16 at Tue Jul 30 02:47:33 2019.
