 Gaussian 16, Revision A.03,
 Gaussian 16:  ES64L-G16RevA.03 25-Dec-2016

 --------------------------
 # td=(NStates=1) B3LYP/SVP
 --------------------------

 --
 TD
 --
 Symbolic Z-matrix:
 Charge =  0 Multiplicity = 1

                         Standard orientation:
 ---------------------------------------------------------------------
 Center     Atomic      Atomic             Coordinates (Angstroms)
 Number     Number       Type             X           Y           Z
 ---------------------------------------------------------------------
      1          8           0        5.187250   -0.430538   -3.322636
      2          8           0       -2.944092   -2.828659    3.101377
      3          8           0       -3.314655   -0.626002    2.948248
      4          8           0       -1.882486    7.103426    1.430179
      5          8           0       -1.016249    6.978707   -0.651513
      6          8           0       -1.510300   -3.974254    0.008606
      7          7           0        2.309618    0.991853    0.592315
      8          7           0        4.320024   -0.527573   -1.229173
      9          7           0       -1.721341    0.610630   -0.493248
     10          7           0       -2.452425   -1.829651   -0.534587
     11          6           0        4.792825   -1.046306    0.065050
     12          6           0        4.448673   -0.128291    1.315311
     13          6           0        3.014131    0.150650    1.415996
     14          6           0        1.985756   -0.420136    2.246270
     15          6           0        0.732742    0.129619    1.819634
     16          6           0        1.035334    0.982626    0.812279
     17          6           0        6.304257   -1.156474   -0.092778
     18          6           0       -0.611419   -0.067399    2.544454
     19          6           0        6.654090   -0.794565   -1.333366
     20          6           0        0.203791    2.008849    0.184589
     21          6           0       -1.131164    1.793621   -0.480665
     22          6           0        5.403830   -0.482112   -2.131875
     23          6           0       -1.940208    2.848214   -1.046531
     24          6           0        2.244225   -1.519454    3.317257
     25          6           0        7.164664   -1.684127    1.050165
     26          6           0       -3.075090    2.182592   -1.365732
     27          6           0       -1.146928   -1.531061    2.657880
     28          6           0       -3.048712    0.735314   -1.043498
     29          6           0       -1.601342    4.268352   -1.007111
     30          6           0        7.853141   -0.754680   -2.025869
     31          6           0       -1.861479    4.968320    0.271275
     32          6           0       -4.387979    2.764027   -1.968039
     33          6           0       -3.912949   -0.202434   -1.401891
     34          6           0       -2.564416   -1.612332    2.960120
     35          6           0       -3.600894   -1.627617   -1.098853
     36          6           0        9.162737   -0.698574   -1.630075
     37          6           0       -1.583023    6.427028    0.255658
     38          6           0       -4.482606   -2.743278   -1.328012
     39          6           0       -3.797733   -3.909188   -0.956681
     40          6           0       -2.520156   -3.353038   -0.406896
     41          6           0       -5.834083   -2.597217   -1.936114
     42          6           0       -4.024172   -5.354859   -1.021405
     43          6           0       -6.702894   -3.603198   -2.317404
     44          1           0        4.420767   -2.165867    0.014784
     45          1           0        5.005043    0.736614    0.906352
     46          1           0        4.829498   -0.552032    2.186647
     47          1           0        2.779724    1.540322   -0.092780
     48          1           0        3.308100   -0.799075   -1.526216
     49          1           0       -0.609825    0.621420    3.772758
     50          1           0       -1.573336    0.387499    2.225437
     51          1           0        0.725605    3.046042   -0.020075
     52          1           0        3.264256   -1.456972    3.684437
     53          1           0        1.679104   -1.251890    4.285886
     54          1           0        1.757060   -2.431389    2.990729
     55          1           0        6.598894   -2.551196    1.774546
     56          1           0        7.560324   -0.673388    1.532806
     57          1           0        8.077739   -2.244048    0.518352
     58          1           0       -1.056700   -2.016690    1.584774
     59          1           0       -0.591800   -2.225763    3.399488
     60          1           0       -1.301004   -0.267831   -0.319140
     61          1           0       -2.239292    4.830354   -1.810671
     62          1           0       -0.509312    4.174653   -1.249427
     63          1           0        7.777821   -0.683466   -3.179811
     64          1           0       -1.174525    4.510305    1.105934
     65          1           0       -2.934062    4.697447    0.537071
     66          1           0       -4.416227    3.902226   -2.472212
     67          1           0       -5.241499    2.784005   -1.319003
     68          1           0       -4.793914    2.168049   -2.766590
     69          1           0       -4.756989    0.252754   -1.703402
     70          1           0        9.354380   -0.717593   -0.404203
     71          1           0       10.024500   -0.497568   -2.308253
     72          1           0       -3.962659   -2.719900    3.175278
     73          1           0       -6.039788   -1.551450   -2.119178
     74          1           0       -4.907378   -5.736441   -0.409019
     75          1           0       -3.948609   -5.576471   -2.014947
     76          1           0       -3.312918   -5.889788   -0.571648
     77          1           0       -1.884203    8.104507    1.180697
     78          1           0       -7.719931   -3.330163   -2.737211
     79          1           0       -6.573390   -4.752719   -2.252298
 ---------------------------------------------------------------------

 SCF Done:  E(RB3LYP) =  -1947.83524142     A.U. after   17 cycles

 Excitation energies and oscillator strengths:

 Excited State   1:      Singlet-A      1.6857 eV  735.50 nm  f=0.3221  <S**2>=0.000
     155 ->156         0.70692
     155 <-156        -0.12523
 This state for optimization and/or second-order correction.
 Total Energy, E(TD-HF/TD-DFT) =  -1947.77329276
 Copying the excited state density for this state as the 1-particle RhoCI density.

 The electronic state is 1-A.
 Alpha  occ. eigenvalues --  -19.19044 -19.18017 -19.13073 -19.12413 -19.10710
 Alpha  occ. eigenvalues --  -19.10282 -14.37412 -14.35858 -14.35180 -14.30604
 Alpha  occ. eigenvalues --  -10.32252 -10.30247 -10.28711 -10.28341 -10.25107
 Alpha  occ. eigenvalues --  -10.24301 -10.24259 -10.24058 -10.23911 -10.22457
 Alpha  occ. eigenvalues --  -10.22199 -10.22047 -10.21973 -10.21933 -10.21908
 Alpha  occ. eigenvalues --  -10.21797 -10.21635 -10.21622 -10.21391 -10.21273
 Alpha  occ. eigenvalues --  -10.21092 -10.20936 -10.20788 -10.20597 -10.20437
 Alpha  occ. eigenvalues --  -10.20329 -10.20306 -10.19349 -10.19239 -10.18767
 Alpha  occ. eigenvalues --  -10.18687 -10.18618 -10.18101  -1.11123  -1.08557
 Alpha  occ. eigenvalues --   -1.02788  -1.00820  -1.00244  -0.99981  -0.98550
 Alpha  occ. eigenvalues --   -0.98031  -0.92915  -0.92881  -0.83360  -0.82504
 Alpha  occ. eigenvalues --   -0.81732  -0.80763  -0.79998  -0.79678  -0.77708
 Alpha  occ. eigenvalues --   -0.76875  -0.76377  -0.75881  -0.73912  -0.71827
 Alpha  occ. eigenvalues --   -0.71600  -0.70579  -0.70207  -0.68384  -0.67665
 Alpha  occ. eigenvalues --   -0.66378  -0.65990  -0.64328  -0.60846  -0.60358
 Alpha  occ. eigenvalues --   -0.59392  -0.58951  -0.58475  -0.57163  -0.56840
 Alpha  occ. eigenvalues --   -0.55481  -0.55301  -0.54665  -0.53940  -0.52998
 Alpha  occ. eigenvalues --   -0.52064  -0.51274  -0.50679  -0.50171  -0.49214
 Alpha  occ. eigenvalues --   -0.48665  -0.48307  -0.48210  -0.47648  -0.47494
 Alpha  occ. eigenvalues --   -0.47342  -0.47030  -0.46821  -0.46480  -0.46003
 Alpha  occ. eigenvalues --   -0.45397  -0.45005  -0.44358  -0.44153  -0.43649
 Alpha  occ. eigenvalues --   -0.43286  -0.43196  -0.42812  -0.42685  -0.42131
 Alpha  occ. eigenvalues --   -0.41779  -0.41572  -0.41431  -0.41093  -0.40644
 Alpha  occ. eigenvalues --   -0.40498  -0.40467  -0.40145  -0.39719  -0.39654
 Alpha  occ. eigenvalues --   -0.39441  -0.39117  -0.38994  -0.38417  -0.37907
 Alpha  occ. eigenvalues --   -0.37775  -0.37576  -0.37027  -0.36874  -0.36141
 Alpha  occ. eigenvalues --   -0.35734  -0.35532  -0.35260  -0.34840  -0.34483
 Alpha  occ. eigenvalues --   -0.33755  -0.33166  -0.32365  -0.32269  -0.31470
 Alpha  occ. eigenvalues --   -0.30908  -0.30295  -0.29827  -0.28502  -0.28202
 Alpha  occ. eigenvalues --   -0.26604  -0.26460  -0.26002  -0.25544  -0.25120
 Alpha  occ. eigenvalues --   -0.24346  -0.23894  -0.23617  -0.22906  -0.18099
 Alpha virt. eigenvalues --   -0.11572  -0.06941  -0.05963  -0.01387  -0.00732
 Alpha virt. eigenvalues --    0.00656   0.01678   0.01941   0.02806   0.03288
 Alpha virt. eigenvalues --    0.03453   0.04057   0.04193   0.04534   0.04989

 Mulliken charges:
               1
     1  O   -0.207755
     2  O   -0.136426
     3  O   -0.282874
     4  O   -0.246545
     5  O   -0.210215
     6  O   -0.218011
     7  N    0.032662
     8  N   -0.253752
     9  N   -0.032736
    10  N   -0.295085
    11  C    0.031327
    12  C    0.281718
    13  C   -0.127010
    14  C   -0.165316
    15  C   -0.023147
    16  C   -0.002106
    17  C   -0.199970
    18  C   -0.020154
    19  C    0.028418
    20  C   -0.124695
    21  C    0.002447
    22  C    0.160144
    23  C   -0.076254
    24  C    0.104097
    25  C   -0.037384
    26  C   -0.103283
    27  C   -0.064810
    28  C    0.134328
    29  C    0.093228
    30  C   -0.070952
    31  C   -0.019251
    32  C    0.031920
    33  C   -0.052713
    34  C    0.115801
    35  C    0.115974
    36  C   -0.090151
    37  C    0.150548
    38  C    0.008127
    39  C   -0.216640
    40  C    0.172808
    41  C    0.020750
    42  C    0.217895
    43  C   -0.063494
    44  H    0.038839
    45  H   -0.012835
    46  H   -0.022752
    47  H    0.097387
    48  H    0.166010
    49  H    0.011080
    50  H    0.038489
    51  H    0.018676
    52  H    0.000506
    53  H    0.013010
    54  H    0.042561
    55  H    0.070156
    56  H    0.075265
    57  H    0.067635
    58  H    0.102660
    59  H    0.036206
    60  H    0.134368
    61  H    0.028862
    62  H    0.024173
    63  H    0.034097
    64  H    0.064505
    65  H    0.049471
    66  H    0.034172
    67  H    0.018761
    68  H    0.013375
    69  H   -0.088732
    70  H    0.028486
    71  H    0.045315
    72  H    0.197065
    73  H   -0.006629
    74  H    0.034778
    75  H    0.013702
    76  H   -0.034943
    77  H    0.211659
    78  H    0.040830
    79  H    0.052329
 Sum of Mulliken charges =  -0.00000

 Dipole moment (field-independent basis, Debye):
    X=             -1.7442    Y=             -0.5152    Z=              1.9430  Tot=              2.6614
 Quadrupole moment (field-independent basis, Debye-Ang):
   XX=           -208.8087   YY=           -240.5880   ZZ=           -268.7206
   XY=              2.6395   XZ=             30.9249   YZ=              1.1301

 Normal termination of Gaussian 16 at Tue Sep 24 13:35:49 2019.
