 Gaussian 16, Revision A.03,
 Gaussian 16:  ES64L-G16RevA.03 25-Dec-2016

 --------------------------
 # td=(NStates=1) B3LYP/SVP
 --------------------------

 --
 TD
 --
 Symbolic Z-matrix:
 Charge =  0 Multiplicity = 1

                         Standard orientation:
 ---------------------------------------------------------------------
 Center     Atomic      Atomic             Coordinates (Angstroms)
 Number     Number       Type             X           Y           Z
 ---------------------------------------------------------------------
      1          8           0       -3.267900   -1.321783   -2.796622
      2          8           0        3.129366    2.984099    2.809753
      3          8           0        3.673518    1.500946    4.423115
      4          8           0        7.614067   -1.708033   -0.592876
      5          8           0        6.573327   -3.120393   -2.027351
      6          8           0       -2.618995    1.732914    1.522487
      7          7           0       -0.286732   -2.341849    0.954485
      8          7           0       -2.610310   -1.110904   -0.491164
      9          7           0        1.085033    0.010409   -0.796021
     10          7           0       -1.014886    1.473408   -0.164285
     11          6           0       -3.393038   -1.182483    0.652711
     12          6           0       -2.742900   -2.300727    1.632445
     13          6           0       -1.209173   -2.025455    1.853659
     14          6           0       -0.570483   -1.151053    2.777638
     15          6           0        0.775012   -1.147803    2.509692
     16          6           0        0.873943   -1.822307    1.208069
     17          6           0       -4.725640   -1.918102    0.231246
     18          6           0        1.880516   -0.405771    3.217315
     19          6           0       -4.775650   -2.057659   -1.100214
     20          6           0        2.019107   -1.956898    0.341236
     21          6           0        2.025438   -0.951853   -0.646346
     22          6           0       -3.406826   -1.474533   -1.673876
     23          6           0        2.959811   -0.709460   -1.805626
     24          6           0       -1.333849   -0.346161    3.867793
     25          6           0       -5.852816   -2.231147    1.221203
     26          6           0        2.535298    0.396029   -2.490416
     27          6           0        1.886088    1.006061    2.677752
     28          6           0        1.377484    0.838727   -1.833612
     29          6           0        4.174815   -1.524591   -2.088600
     30          6           0       -5.768703   -2.489280   -1.977720
     31          6           0        5.394573   -1.137221   -1.143231
     32          6           0        3.145963    1.126878   -3.704556
     33          6           0        0.465531    1.976018   -2.066563
     34          6           0        3.022579    1.822964    3.458290
     35          6           0       -0.550705    2.229599   -1.166640
     36          6           0       -6.855049   -3.395604   -1.757490
     37          6           0        6.579656   -2.117023   -1.265592
     38          6           0       -1.378970    3.627046   -1.176399
     39          6           0       -2.239432    3.444488   -0.163851
     40          6           0       -2.003861    2.179687    0.499908
     41          6           0       -1.241990    4.561012   -2.208101
     42          6           0       -3.189400    4.536701    0.183397
     43          6           0       -1.745821    5.834193   -2.257669
     44          1           0       -3.612977   -0.230405    1.135312
     45          1           0       -3.052346   -3.392572    1.252037
     46          1           0       -3.239942   -2.149771    2.678168
     47          1           0       -0.607755   -2.998507    0.258327
     48          1           0       -1.991653   -0.227958   -0.730531
     49          1           0        1.603036   -0.534409    4.411291
     50          1           0        2.804480   -1.036916    2.982502
     51          1           0        2.679752   -2.669766    0.266934
     52          1           0       -2.080176   -0.873976    4.572306
     53          1           0       -0.441874    0.161606    4.352799
     54          1           0       -1.999450    0.528704    3.515186
     55          1           0       -5.615280   -1.711679    2.128990
     56          1           0       -5.804219   -3.348689    1.560767
     57          1           0       -6.950083   -2.179439    1.035983
     58          1           0        2.158227    1.125429    1.638193
     59          1           0        0.970450    1.662148    2.682447
     60          1           0        0.344952    0.214889   -0.222827
     61          1           0        4.542646   -1.425958   -3.163917
     62          1           0        3.912208   -2.610337   -1.880999
     63          1           0       -5.687308   -2.561652   -3.182783
     64          1           0        5.122835   -1.214293   -0.110454
     65          1           0        5.585144   -0.138103   -1.376880
     66          1           0        4.034080    0.524308   -4.131487
     67          1           0        3.531315    2.110954   -3.335660
     68          1           0        2.334034    1.318023   -4.456629
     69          1           0        0.673361    2.675862   -2.866338
     70          1           0       -6.963080   -3.778865   -0.653845
     71          1           0       -7.684148   -3.674154   -2.323427
     72          1           0        3.914242    3.548024    3.291090
     73          1           0       -0.440256    4.305048   -2.991828
     74          1           0       -3.984704    4.564534   -0.712824
     75          1           0       -3.536767    4.210843    1.141814
     76          1           0       -2.685046    5.514745    0.399130
     77          1           0        8.329544   -2.260893   -0.524417
     78          1           0       -1.491036    6.217071   -3.131203
     79          1           0       -2.500070    6.171088   -1.571482
 ---------------------------------------------------------------------

 SCF Done:  E(RB3LYP) =  -1947.84622946     A.U. after   21 cycles

 Excitation energies and oscillator strengths:

 Excited State   1:      Singlet-A      0.7369 eV 1682.43 nm  f=0.0000  <S**2>=0.000
     155 ->156         0.70290
 This state for optimization and/or second-order correction.
 Total Energy, E(TD-HF/TD-DFT) =  -1947.81914757
 Copying the excited state density for this state as the 1-particle RhoCI density.

 The electronic state is 1-A.
 Alpha  occ. eigenvalues --  -19.20731 -19.18680 -19.13477 -19.12426 -19.11373
 Alpha  occ. eigenvalues --  -19.10458 -14.37731 -14.36906 -14.32436 -14.31170
 Alpha  occ. eigenvalues --  -10.34294 -10.31265 -10.28113 -10.27331 -10.27134
 Alpha  occ. eigenvalues --  -10.26174 -10.25102 -10.23616 -10.23209 -10.22844
 Alpha  occ. eigenvalues --  -10.22738 -10.22339 -10.22304 -10.21736 -10.21570
 Alpha  occ. eigenvalues --  -10.21379 -10.20658 -10.20637 -10.20307 -10.20235
 Alpha  occ. eigenvalues --  -10.20150 -10.20038 -10.19978 -10.19825 -10.19817
 Alpha  occ. eigenvalues --  -10.19797 -10.19340 -10.18895 -10.18803 -10.17597
 Alpha  occ. eigenvalues --  -10.17482 -10.16717 -10.16043  -1.13293  -1.08715
 Alpha  occ. eigenvalues --   -1.05542  -1.01825  -1.00374  -1.00347  -0.99885
 Alpha  occ. eigenvalues --   -0.99230  -0.92975  -0.91298  -0.84541  -0.82893
 Alpha  occ. eigenvalues --   -0.82338  -0.79995  -0.79450  -0.79413  -0.78253
 Alpha  occ. eigenvalues --   -0.76490  -0.75213  -0.74394  -0.73699  -0.72074
 Alpha  occ. eigenvalues --   -0.71515  -0.70200  -0.68779  -0.68211  -0.67359
 Alpha  occ. eigenvalues --   -0.66059  -0.65680  -0.64847  -0.63610  -0.61115
 Alpha  occ. eigenvalues --   -0.60253  -0.58926  -0.58731  -0.58360  -0.57156
 Alpha  occ. eigenvalues --   -0.55861  -0.55175  -0.54244  -0.53654  -0.52726
 Alpha  occ. eigenvalues --   -0.52239  -0.51530  -0.50904  -0.50263  -0.49704
 Alpha  occ. eigenvalues --   -0.49384  -0.49155  -0.48861  -0.48213  -0.47752
 Alpha  occ. eigenvalues --   -0.47542  -0.47157  -0.46839  -0.46701  -0.45227
 Alpha  occ. eigenvalues --   -0.44989  -0.44774  -0.44629  -0.44033  -0.43620
 Alpha  occ. eigenvalues --   -0.43368  -0.43318  -0.43028  -0.42657  -0.42460
 Alpha  occ. eigenvalues --   -0.41722  -0.41491  -0.41235  -0.40958  -0.40688
 Alpha  occ. eigenvalues --   -0.40575  -0.40379  -0.40133  -0.39978  -0.39747
 Alpha  occ. eigenvalues --   -0.39310  -0.39173  -0.38641  -0.38327  -0.37886
 Alpha  occ. eigenvalues --   -0.37748  -0.37175  -0.36906  -0.36610  -0.36107
 Alpha  occ. eigenvalues --   -0.35760  -0.35306  -0.34654  -0.34302  -0.33936
 Alpha  occ. eigenvalues --   -0.33330  -0.32960  -0.32398  -0.31982  -0.31777
 Alpha  occ. eigenvalues --   -0.31200  -0.29689  -0.29288  -0.29012  -0.28359
 Alpha  occ. eigenvalues --   -0.27757  -0.27640  -0.25729  -0.25305  -0.24157
 Alpha  occ. eigenvalues --   -0.23668  -0.22700  -0.22111  -0.21171  -0.18256
 Alpha virt. eigenvalues --   -0.12810  -0.08074  -0.04190  -0.01834  -0.01705
 Alpha virt. eigenvalues --    0.01582   0.02083   0.02260   0.02579   0.03452
 Alpha virt. eigenvalues --    0.03608   0.03917   0.05007   0.05189   0.05344

 Mulliken charges:
               1
     1  O   -0.121210
     2  O   -0.226829
     3  O   -0.220716
     4  O   -0.093796
     5  O   -0.268811
     6  O   -0.258688
     7  N    0.092139
     8  N   -0.282674
     9  N    0.016331
    10  N   -0.296313
    11  C    0.103738
    12  C    0.069949
    13  C   -0.120529
    14  C   -0.091444
    15  C   -0.115240
    16  C   -0.066470
    17  C   -0.172753
    18  C    0.088846
    19  C    0.014438
    20  C    0.006115
    21  C    0.057646
    22  C    0.117433
    23  C   -0.087933
    24  C    0.010298
    25  C    0.071059
    26  C   -0.120190
    27  C   -0.020012
    28  C    0.066377
    29  C    0.042629
    30  C   -0.095908
    31  C    0.023087
    32  C    0.079346
    33  C   -0.077101
    34  C    0.138267
    35  C    0.088789
    36  C   -0.085592
    37  C    0.142454
    38  C    0.088726
    39  C   -0.212649
    40  C    0.190862
    41  C   -0.112102
    42  C    0.067830
    43  C    0.074309
    44  H    0.047254
    45  H    0.019220
    46  H    0.011328
    47  H    0.107262
    48  H    0.181339
    49  H    0.057856
    50  H    0.013275
    51  H   -0.079350
    52  H    0.020707
    53  H   -0.003577
    54  H    0.048243
    55  H   -0.000286
    56  H    0.026438
    57  H    0.039173
    58  H    0.013721
    59  H    0.058109
    60  H    0.128452
    61  H    0.037524
    62  H    0.036052
    63  H    0.042790
    64  H    0.029459
    65  H    0.023312
    66  H    0.037238
    67  H    0.042047
    68  H    0.051119
    69  H   -0.027641
    70  H    0.009496
    71  H    0.015651
    72  H    0.213738
    73  H    0.011041
    74  H    0.063119
    75  H    0.010460
    76  H    0.041438
    77  H    0.158719
    78  H   -0.013583
    79  H    0.025150
 Sum of Mulliken charges =  -0.00000

 Dipole moment (field-independent basis, Debye):
    X=              5.6189    Y=              3.1539    Z=             -2.5017  Tot=              6.9122
 Quadrupole moment (field-independent basis, Debye-Ang):
   XX=           -228.5461   YY=           -236.6525   ZZ=           -272.8028
   XY=              5.1651   XZ=            -14.4101   YZ=            -15.6269

 Normal termination of Gaussian 16 at Sun Jul 28 04:28:42 2019.
