 Gaussian 16, Revision A.03,
 Gaussian 16:  ES64L-G16RevA.03 25-Dec-2016

 --------------------------
 # td=(NStates=1) B3LYP/SVP
 --------------------------

 --
 TD
 --
 Symbolic Z-matrix:
 Charge =  0 Multiplicity = 1

                         Standard orientation:
 ---------------------------------------------------------------------
 Center     Atomic      Atomic             Coordinates (Angstroms)
 Number     Number       Type             X           Y           Z
 ---------------------------------------------------------------------
      1          8           0        5.441113   -0.129131   -3.255814
      2          8           0       -3.271447   -2.694379    3.138504
      3          8           0       -3.448826   -0.518875    3.099603
      4          8           0       -1.363885    7.095951    1.469555
      5          8           0       -0.441726    6.958866   -0.560027
      6          8           0       -1.696546   -3.967733   -0.105764
      7          7           0        2.299528    0.822719    0.671849
      8          7           0        4.389538   -0.638521   -1.189392
      9          7           0       -1.849951    0.637049   -0.323979
     10          7           0       -2.625886   -1.774036   -0.539239
     11          6           0        4.740678   -1.311715    0.030681
     12          6           0        4.443425   -0.454651    1.276283
     13          6           0        2.942103   -0.204636    1.452015
     14          6           0        1.910611   -0.747773    2.236959
     15          6           0        0.658661   -0.137808    1.833659
     16          6           0        0.992867    0.854859    0.889537
     17          6           0        6.224038   -1.427089   -0.178344
     18          6           0       -0.697680   -0.183793    2.545871
     19          6           0        6.694766   -0.922975   -1.343486
     20          6           0        0.236322    1.915518    0.050661
     21          6           0       -1.098077    1.810718   -0.338089
     22          6           0        5.441863   -0.540752   -2.114787
     23          6           0       -1.781156    2.870932   -0.997593
     24          6           0        2.182725   -1.789780    3.300159
     25          6           0        7.083395   -2.043259    0.841577
     26          6           0       -3.133136    2.474521   -1.292608
     27          6           0       -1.258579   -1.579013    2.573522
     28          6           0       -3.110417    0.960037   -0.977885
     29          6           0       -1.396604    4.407476   -1.053392
     30          6           0        7.917427   -0.691425   -1.930737
     31          6           0       -1.589898    5.022092    0.337963
     32          6           0       -4.195869    3.021905   -1.955929
     33          6           0       -4.020964    0.048351   -1.233999
     34          6           0       -2.711689   -1.488046    2.969970
     35          6           0       -3.872677   -1.412665   -0.973020
     36          6           0        9.167782   -0.838345   -1.440090
     37          6           0       -1.066848    6.519105    0.348244
     38          6           0       -4.703551   -2.602699   -1.341915
     39          6           0       -3.878771   -3.748544   -1.123392
     40          6           0       -2.630302   -3.221626   -0.515374
     41          6           0       -5.915246   -2.403833   -2.037260
     42          6           0       -4.333014   -5.151042   -1.354976
     43          6           0       -6.795082   -3.346564   -2.421033
     44          1           0        4.140271   -2.256829    0.071371
     45          1           0        4.935707    0.536474    1.122696
     46          1           0        4.879704   -1.162961    2.082262
     47          1           0        2.763409    1.231167   -0.079912
     48          1           0        3.447357   -0.901846   -1.432368
     49          1           0       -0.525840    0.084200    3.640783
     50          1           0       -1.343333    0.399890    2.054678
     51          1           0        0.807057    2.758347   -0.264672
     52          1           0        3.184125   -1.808041    3.196700
     53          1           0        1.662958   -1.549875    4.045343
     54          1           0        1.781197   -2.744700    2.911853
     55          1           0        6.232574   -2.588263    1.439283
     56          1           0        7.430502   -1.122063    1.468118
     57          1           0        7.821154   -2.629297    0.444834
     58          1           0       -1.247567   -2.144954    1.769761
     59          1           0       -0.716115   -1.999934    3.317775
     60          1           0       -1.696300   -0.294181   -0.183582
     61          1           0       -1.913600    4.757042   -1.925869
     62          1           0       -0.559257    4.747765   -1.466099
     63          1           0        7.802780   -0.629552   -3.059133
     64          1           0       -0.722349    4.680692    0.933875
     65          1           0       -2.406446    5.013834    1.011028
     66          1           0       -4.010366    4.154080   -2.354995
     67          1           0       -5.016067    3.195840   -1.179635
     68          1           0       -4.493491    2.325084   -2.724885
     69          1           0       -4.985436    0.429855   -1.916287
     70          1           0        9.231116   -1.118099   -0.425196
     71          1           0       10.164345   -0.822897   -1.956936
     72          1           0       -4.215329   -2.404159    3.072076
     73          1           0       -6.169594   -1.519889   -2.443909
     74          1           0       -5.236389   -5.240623   -0.831856
     75          1           0       -4.509357   -5.200547   -2.507294
     76          1           0       -3.405555   -5.951812   -1.018975
     77          1           0       -0.739906    7.894422    1.408534
     78          1           0       -7.646836   -2.968243   -3.115746
     79          1           0       -6.649823   -4.382884   -2.105922
 ---------------------------------------------------------------------

 SCF Done:  E(RB3LYP) =  -1947.80151405     A.U. after   17 cycles

 Excitation energies and oscillator strengths:

 Excited State   1:      Singlet-A      1.7574 eV  705.49 nm  f=0.2972  <S**2>=0.000
     155 ->156         0.70083
     155 <-156        -0.11099
 This state for optimization and/or second-order correction.
 Total Energy, E(TD-HF/TD-DFT) =  -1947.73693052
 Copying the excited state density for this state as the 1-particle RhoCI density.

 The electronic state is 1-A.
 Alpha  occ. eigenvalues --  -19.20627 -19.16369 -19.13207 -19.11709 -19.11117
 Alpha  occ. eigenvalues --  -19.10640 -14.36883 -14.35255 -14.35027 -14.30453
 Alpha  occ. eigenvalues --  -10.32279 -10.30218 -10.28663 -10.27944 -10.25131
 Alpha  occ. eigenvalues --  -10.24648 -10.24474 -10.24179 -10.22941 -10.22599
 Alpha  occ. eigenvalues --  -10.22363 -10.21788 -10.21668 -10.21559 -10.21450
 Alpha  occ. eigenvalues --  -10.21400 -10.21368 -10.21305 -10.21135 -10.21085
 Alpha  occ. eigenvalues --  -10.20972 -10.20859 -10.20557 -10.20250 -10.19750
 Alpha  occ. eigenvalues --  -10.19620 -10.19616 -10.19291 -10.18921 -10.18290
 Alpha  occ. eigenvalues --  -10.17814 -10.17194 -10.16855  -1.13052  -1.09011
 Alpha  occ. eigenvalues --   -1.03066  -1.02736  -0.99974  -0.97838  -0.97757
 Alpha  occ. eigenvalues --   -0.95925  -0.95029  -0.91232  -0.83141  -0.82769
 Alpha  occ. eigenvalues --   -0.81763  -0.81421  -0.80989  -0.80068  -0.78292
 Alpha  occ. eigenvalues --   -0.78065  -0.76654  -0.76157  -0.74370  -0.73263
 Alpha  occ. eigenvalues --   -0.72092  -0.71596  -0.70079  -0.69072  -0.68582
 Alpha  occ. eigenvalues --   -0.66588  -0.65618  -0.63718  -0.62638  -0.60470
 Alpha  occ. eigenvalues --   -0.60189  -0.58752  -0.57821  -0.57512  -0.56978
 Alpha  occ. eigenvalues --   -0.56265  -0.55655  -0.54656  -0.53888  -0.53272
 Alpha  occ. eigenvalues --   -0.51892  -0.51380  -0.51194  -0.50988  -0.50537
 Alpha  occ. eigenvalues --   -0.50064  -0.49266  -0.48579  -0.48415  -0.47963
 Alpha  occ. eigenvalues --   -0.47930  -0.47723  -0.47179  -0.46900  -0.45966
 Alpha  occ. eigenvalues --   -0.45895  -0.45196  -0.44732  -0.44429  -0.44265
 Alpha  occ. eigenvalues --   -0.44036  -0.43541  -0.43351  -0.42964  -0.42845
 Alpha  occ. eigenvalues --   -0.42625  -0.42283  -0.41988  -0.41332  -0.41326
 Alpha  occ. eigenvalues --   -0.41196  -0.40741  -0.40626  -0.40137  -0.39998
 Alpha  occ. eigenvalues --   -0.39663  -0.39316  -0.38860  -0.38770  -0.38325
 Alpha  occ. eigenvalues --   -0.38064  -0.37876  -0.37561  -0.37402  -0.36901
 Alpha  occ. eigenvalues --   -0.36712  -0.35527  -0.34921  -0.34502  -0.34366
 Alpha  occ. eigenvalues --   -0.34331  -0.34254  -0.33914  -0.33811  -0.31777
 Alpha  occ. eigenvalues --   -0.31707  -0.30457  -0.28821  -0.28612  -0.28117
 Alpha  occ. eigenvalues --   -0.27132  -0.26806  -0.25642  -0.25152  -0.24872
 Alpha  occ. eigenvalues --   -0.24147  -0.23766  -0.23350  -0.22512  -0.18723
 Alpha virt. eigenvalues --   -0.11740  -0.07035  -0.06062  -0.01669   0.00898
 Alpha virt. eigenvalues --    0.01402   0.01651   0.01820   0.02909   0.03386
 Alpha virt. eigenvalues --    0.03928   0.04219   0.04495   0.05456   0.05643

 Mulliken charges:
               1
     1  O   -0.205494
     2  O   -0.180253
     3  O   -0.261827
     4  O   -0.143307
     5  O   -0.214014
     6  O   -0.239196
     7  N   -0.051427
     8  N   -0.201102
     9  N   -0.074644
    10  N   -0.336286
    11  C    0.044794
    12  C    0.181893
    13  C   -0.091259
    14  C   -0.228397
    15  C   -0.147410
    16  C    0.036098
    17  C   -0.243026
    18  C    0.154030
    19  C    0.023829
    20  C   -0.060438
    21  C    0.157116
    22  C    0.156831
    23  C   -0.114047
    24  C    0.316610
    25  C    0.093612
    26  C   -0.052648
    27  C    0.131220
    28  C    0.114748
    29  C    0.186202
    30  C   -0.046199
    31  C    0.043438
    32  C    0.021280
    33  C   -0.158009
    34  C    0.108478
    35  C    0.079879
    36  C   -0.034257
    37  C    0.066688
    38  C    0.090414
    39  C   -0.170463
    40  C    0.211038
    41  C   -0.025816
    42  C    0.023114
    43  C   -0.046585
    44  H    0.028127
    45  H    0.006762
    46  H    0.017783
    47  H    0.088149
    48  H    0.123536
    49  H    0.015301
    50  H   -0.035276
    51  H   -0.017253
    52  H   -0.049592
    53  H   -0.043339
    54  H    0.021231
    55  H    0.028670
    56  H    0.059439
    57  H    0.027451
    58  H   -0.006561
    59  H   -0.018762
    60  H    0.093787
    61  H   -0.013836
    62  H   -0.039553
    63  H    0.027726
    64  H    0.030108
    65  H    0.020544
    66  H    0.042137
    67  H    0.043738
    68  H    0.046599
    69  H    0.022960
    70  H   -0.010898
    71  H    0.042444
    72  H    0.172447
    73  H   -0.056013
    74  H    0.045097
    75  H    0.054626
    76  H    0.072067
    77  H    0.190188
    78  H    0.042211
    79  H    0.012747
 Sum of Mulliken charges =  -0.00000

 Dipole moment (field-independent basis, Debye):
    X=             -0.6326    Y=              1.5943    Z=              1.5840  Tot=              2.3348
 Quadrupole moment (field-independent basis, Debye-Ang):
   XX=           -221.5489   YY=           -241.2794   ZZ=           -265.0485
   XY=             -8.7911   XZ=             36.8387   YZ=              8.6305

 Normal termination of Gaussian 16 at Mon Oct  7 14:43:31 2019.
