 Gaussian 16, Revision A.03,
 Gaussian 16:  ES64L-G16RevA.03 25-Dec-2016

 --------------------------
 # td=(NStates=1) B3LYP/SVP
 --------------------------

 --
 TD
 --
 Symbolic Z-matrix:
 Charge =  0 Multiplicity = 1

                         Standard orientation:
 ---------------------------------------------------------------------
 Center     Atomic      Atomic             Coordinates (Angstroms)
 Number     Number       Type             X           Y           Z
 ---------------------------------------------------------------------
      1          8           0        5.328474    0.039354   -3.300941
      2          8           0       -2.848596   -3.257916    3.176364
      3          8           0       -3.316532   -1.036114    3.004878
      4          8           0       -1.602799    7.407975    1.462065
      5          8           0       -0.276430    6.979176   -0.405595
      6          8           0       -1.860627   -4.026546   -0.071397
      7          7           0        2.349964    0.819026    0.516629
      8          7           0        4.320150   -0.777000   -1.325260
      9          7           0       -1.866228    0.739980   -0.302417
     10          7           0       -2.655421   -1.846365   -0.462809
     11          6           0        4.707965   -1.310985   -0.092193
     12          6           0        4.443128   -0.363926    1.238809
     13          6           0        2.885079   -0.019226    1.389143
     14          6           0        1.985277   -0.632173    2.236163
     15          6           0        0.733281   -0.031714    1.835378
     16          6           0        1.009368    0.975147    0.842958
     17          6           0        6.232998   -1.390353   -0.230758
     18          6           0       -0.616452   -0.343687    2.574254
     19          6           0        6.559484   -0.930796   -1.504042
     20          6           0        0.167158    1.966609    0.232541
     21          6           0       -1.111435    1.906527   -0.372258
     22          6           0        5.344154   -0.546638   -2.185002
     23          6           0       -1.905414    2.966122   -0.814440
     24          6           0        2.360614   -1.687508    3.209486
     25          6           0        7.100912   -2.075235    0.782321
     26          6           0       -3.183669    2.368905   -1.232872
     27          6           0       -1.107259   -1.784800    2.432949
     28          6           0       -3.086109    0.970260   -0.881784
     29          6           0       -1.312803    4.399912   -0.800991
     30          6           0        7.859442   -0.799466   -2.037120
     31          6           0       -1.690392    5.187894    0.480282
     32          6           0       -4.304913    3.066246   -1.826185
     33          6           0       -3.935330   -0.002458   -1.139948
     34          6           0       -2.486255   -1.973700    2.908263
     35          6           0       -3.751878   -1.361796   -1.032332
     36          6           0        9.156917   -0.801087   -1.440638
     37          6           0       -1.072961    6.588045    0.458199
     38          6           0       -4.724643   -2.465298   -1.492118
     39          6           0       -3.968316   -3.598200   -1.178559
     40          6           0       -2.784662   -3.274694   -0.538762
     41          6           0       -5.984311   -2.268239   -2.079264
     42          6           0       -4.450771   -5.087178   -1.399781
     43          6           0       -6.941286   -3.135779   -2.474063
     44          1           0        4.290027   -2.282579    0.102319
     45          1           0        5.013729    0.613930    0.976295
     46          1           0        4.691912   -1.001415    2.036280
     47          1           0        3.018467    1.432992   -0.108994
     48          1           0        3.236675   -0.654282   -1.556292
     49          1           0       -0.551589    0.020254    3.715232
     50          1           0       -1.638018    0.345721    2.127572
     51          1           0        0.599182    2.883183   -0.082732
     52          1           0        3.448300   -1.559393    3.457369
     53          1           0        1.681179   -1.800512    4.171917
     54          1           0        2.302605   -2.858662    3.001590
     55          1           0        6.635944   -2.864419    1.358918
     56          1           0        7.597540   -1.547234    1.535989
     57          1           0        8.011280   -2.703645    0.488964
     58          1           0       -0.871394   -2.069313    1.326989
     59          1           0       -0.404573   -2.613179    3.082503
     60          1           0       -1.579372   -0.352432   -0.254887
     61          1           0       -1.662421    4.953512   -1.658408
     62          1           0       -0.318837    4.457957   -1.007548
     63          1           0        8.038435   -0.300263   -3.018453
     64          1           0       -1.392542    4.662727    1.454891
     65          1           0       -2.842982    5.416958    0.548316
     66          1           0       -4.275084    4.101477   -1.936453
     67          1           0       -5.176943    2.756832   -1.333169
     68          1           0       -4.494024    2.670690   -2.851360
     69          1           0       -5.091690    0.419283   -1.243744
     70          1           0        9.249565   -1.068454   -0.409017
     71          1           0       10.098950   -0.444588   -1.997474
     72          1           0       -3.816786   -3.027922    3.254018
     73          1           0       -6.189581   -1.241940   -2.473099
     74          1           0       -5.243938   -5.249572   -0.478364
     75          1           0       -4.792608   -5.153548   -2.243674
     76          1           0       -3.415552   -5.533771   -1.334022
     77          1           0       -0.893683    8.144837    1.474908
     78          1           0       -7.670939   -2.745274   -3.012203
     79          1           0       -6.779925   -4.269246   -2.225983
 ---------------------------------------------------------------------

 SCF Done:  E(RB3LYP) =  -1947.80594720     A.U. after   24 cycles

 Excitation energies and oscillator strengths:

 Excited State   1:      Singlet-A      1.8639 eV  665.18 nm  f=0.4230  <S**2>=0.000
     154 ->156         0.10413
     155 ->156         0.69276
     155 <-156        -0.12957
 This state for optimization and/or second-order correction.
 Total Energy, E(TD-HF/TD-DFT) =  -1947.73744957
 Copying the excited state density for this state as the 1-particle RhoCI density.

 The electronic state is 1-A.
 Alpha  occ. eigenvalues --  -19.19567 -19.17569 -19.14557 -19.11441 -19.10289
 Alpha  occ. eigenvalues --  -19.09467 -14.40180 -14.37267 -14.35678 -14.29448
 Alpha  occ. eigenvalues --  -10.33693 -10.31029 -10.28700 -10.26178 -10.25547
 Alpha  occ. eigenvalues --  -10.24222 -10.23763 -10.23741 -10.23554 -10.23505
 Alpha  occ. eigenvalues --  -10.23265 -10.23110 -10.23046 -10.21973 -10.21880
 Alpha  occ. eigenvalues --  -10.21808 -10.21786 -10.21436 -10.21100 -10.21012
 Alpha  occ. eigenvalues --  -10.20956 -10.20902 -10.20747 -10.20721 -10.20562
 Alpha  occ. eigenvalues --  -10.20558 -10.20521 -10.19935 -10.19915 -10.19725
 Alpha  occ. eigenvalues --  -10.19453 -10.19048 -10.18689  -1.08579  -1.08158
 Alpha  occ. eigenvalues --   -1.01351  -1.00565  -1.00280  -0.98818  -0.97516
 Alpha  occ. eigenvalues --   -0.97468  -0.94794  -0.91619  -0.82671  -0.82217
 Alpha  occ. eigenvalues --   -0.81506  -0.80988  -0.80857  -0.79412  -0.78251
 Alpha  occ. eigenvalues --   -0.77161  -0.76261  -0.75664  -0.74387  -0.73091
 Alpha  occ. eigenvalues --   -0.72049  -0.71256  -0.70127  -0.69186  -0.68288
 Alpha  occ. eigenvalues --   -0.67125  -0.65891  -0.65048  -0.62168  -0.61945
 Alpha  occ. eigenvalues --   -0.58737  -0.58439  -0.58389  -0.57474  -0.56990
 Alpha  occ. eigenvalues --   -0.56368  -0.55912  -0.54480  -0.54243  -0.53303
 Alpha  occ. eigenvalues --   -0.52342  -0.51998  -0.51309  -0.50121  -0.49820
 Alpha  occ. eigenvalues --   -0.49001  -0.48654  -0.48373  -0.48049  -0.47869
 Alpha  occ. eigenvalues --   -0.47513  -0.46693  -0.46502  -0.45888  -0.45366
 Alpha  occ. eigenvalues --   -0.45303  -0.45060  -0.44619  -0.44483  -0.43983
 Alpha  occ. eigenvalues --   -0.43491  -0.43319  -0.43190  -0.42927  -0.42866
 Alpha  occ. eigenvalues --   -0.42416  -0.41916  -0.41630  -0.41422  -0.41230
 Alpha  occ. eigenvalues --   -0.40975  -0.40721  -0.40355  -0.40108  -0.39721
 Alpha  occ. eigenvalues --   -0.39583  -0.39325  -0.38958  -0.38634  -0.38298
 Alpha  occ. eigenvalues --   -0.38105  -0.37595  -0.37558  -0.37280  -0.36979
 Alpha  occ. eigenvalues --   -0.36293  -0.35882  -0.35589  -0.34204  -0.33590
 Alpha  occ. eigenvalues --   -0.33365  -0.33336  -0.33089  -0.31834  -0.31686
 Alpha  occ. eigenvalues --   -0.30604  -0.30313  -0.29499  -0.28702  -0.27756
 Alpha  occ. eigenvalues --   -0.26874  -0.26495  -0.25580  -0.25170  -0.24966
 Alpha  occ. eigenvalues --   -0.24472  -0.23980  -0.23230  -0.22638  -0.18978
 Alpha virt. eigenvalues --   -0.11733  -0.07867  -0.07329  -0.02215  -0.01142
 Alpha virt. eigenvalues --   -0.00325  -0.00182   0.00451   0.01921   0.02449
 Alpha virt. eigenvalues --    0.02995   0.03682   0.04074   0.04503   0.05143

 Mulliken charges:
               1
     1  O   -0.265725
     2  O   -0.179085
     3  O   -0.290067
     4  O   -0.235275
     5  O   -0.245035
     6  O   -0.257960
     7  N   -0.074880
     8  N   -0.195045
     9  N   -0.141071
    10  N   -0.299884
    11  C    0.070174
    12  C    0.187656
    13  C   -0.127740
    14  C   -0.029517
    15  C   -0.077479
    16  C    0.097991
    17  C   -0.123362
    18  C   -0.074170
    19  C    0.046344
    20  C   -0.042893
    21  C    0.041645
    22  C    0.152677
    23  C   -0.079768
    24  C   -0.025107
    25  C    0.072448
    26  C   -0.152837
    27  C   -0.062094
    28  C    0.122757
    29  C    0.165293
    30  C   -0.076035
    31  C   -0.049121
    32  C    0.183048
    33  C   -0.171546
    34  C    0.195680
    35  C    0.071501
    36  C   -0.063948
    37  C    0.168869
    38  C    0.118436
    39  C   -0.248525
    40  C    0.167515
    41  C   -0.099837
    42  C    0.178394
    43  C    0.027918
    44  H    0.018200
    45  H    0.018518
    46  H   -0.018265
    47  H    0.168656
    48  H    0.172873
    49  H    0.036379
    50  H    0.080645
    51  H   -0.040491
    52  H    0.021879
    53  H    0.035855
    54  H    0.041641
    55  H    0.002385
    56  H    0.012207
    57  H    0.031774
    58  H    0.108646
    59  H    0.039888
    60  H    0.205614
    61  H   -0.004265
    62  H   -0.013636
    63  H    0.022693
    64  H    0.066906
    65  H    0.063846
    66  H   -0.001828
    67  H    0.001076
    68  H    0.016175
    69  H    0.021662
    70  H   -0.002710
    71  H    0.053709
    72  H    0.178233
    73  H   -0.000571
    74  H    0.063653
    75  H   -0.050896
    76  H    0.040144
    77  H    0.204898
    78  H   -0.016369
    79  H    0.040536
 Sum of Mulliken charges =  -0.00000

 Dipole moment (field-independent basis, Debye):
    X=              0.4641    Y=              2.7119    Z=              2.7749  Tot=              3.9077
 Quadrupole moment (field-independent basis, Debye-Ang):
   XX=           -220.8489   YY=           -251.6096   ZZ=           -266.4827
   XY=            -10.8069   XZ=             41.3003   YZ=              3.8573

 Normal termination of Gaussian 16 at Sun Sep 15 09:56:32 2019.
