 Gaussian 16, Revision A.03,
 Gaussian 16:  ES64L-G16RevA.03 25-Dec-2016

 --------------------------
 # td=(NStates=1) B3LYP/SVP
 --------------------------

 --
 TD
 --
 Symbolic Z-matrix:
 Charge =  0 Multiplicity = 1

                         Standard orientation:
 ---------------------------------------------------------------------
 Center     Atomic      Atomic             Coordinates (Angstroms)
 Number     Number       Type             X           Y           Z
 ---------------------------------------------------------------------
      1          8           0        5.062268   -0.134937   -3.318817
      2          8           0       -3.050977   -2.900628    3.172455
      3          8           0       -3.313706   -0.624449    2.988929
      4          8           0       -1.580200    7.167371    1.392647
      5          8           0       -0.571261    6.919351   -0.515207
      6          8           0       -1.663400   -4.030205    0.220423
      7          7           0        2.334884    1.127056    0.693298
      8          7           0        4.223617   -0.597557   -1.087229
      9          7           0       -1.667138    0.719974   -0.358905
     10          7           0       -2.429722   -1.945105   -0.500103
     11          6           0        4.667977   -1.171050    0.153431
     12          6           0        4.421535   -0.200473    1.359460
     13          6           0        3.092608    0.048282    1.537810
     14          6           0        1.902623   -0.623322    2.215176
     15          6           0        0.643140    0.007041    1.795982
     16          6           0        0.960129    1.087900    0.860952
     17          6           0        6.177472   -1.410951   -0.204497
     18          6           0       -0.695203   -0.116640    2.474572
     19          6           0        6.482463   -1.012091   -1.479108
     20          6           0        0.173659    2.028203    0.185771
     21          6           0       -1.081451    1.860023   -0.354390
     22          6           0        5.148978   -0.554073   -2.146523
     23          6           0       -1.944742    2.840890   -1.027042
     24          6           0        2.154835   -1.548517    3.365584
     25          6           0        7.095674   -1.782383    0.894560
     26          6           0       -3.133235    2.315451   -1.390093
     27          6           0       -1.132086   -1.579441    2.550841
     28          6           0       -3.002397    0.903462   -1.036775
     29          6           0       -1.498954    4.456193   -1.074256
     30          6           0        7.788615   -0.941405   -2.175564
     31          6           0       -1.842024    5.060323    0.266158
     32          6           0       -4.288821    2.863974   -2.019493
     33          6           0       -3.873685   -0.108640   -1.303731
     34          6           0       -2.674579   -1.690909    2.883960
     35          6           0       -3.653896   -1.538079   -1.024312
     36          6           0        9.026036   -0.883840   -1.676611
     37          6           0       -1.262079    6.506008    0.352422
     38          6           0       -4.426703   -2.716334   -1.503918
     39          6           0       -3.710769   -3.862132   -1.062537
     40          6           0       -2.497189   -3.353983   -0.294436
     41          6           0       -5.690733   -2.569264   -2.114024
     42          6           0       -4.121194   -5.216478   -1.024432
     43          6           0       -6.613232   -3.476340   -2.593490
     44          1           0        4.187828   -2.144630    0.472370
     45          1           0        5.046466    0.688732    1.300255
     46          1           0        4.746882   -0.755537    2.282630
     47          1           0        2.917195    1.714895    0.120539
     48          1           0        3.231543   -0.497449   -1.444961
     49          1           0       -0.601205    0.503991    3.435977
     50          1           0       -1.587484    0.387733    1.911163
     51          1           0        0.671567    2.846195   -0.293019
     52          1           0        3.129085   -1.453792    3.863329
     53          1           0        1.465870   -1.128361    4.247721
     54          1           0        1.921538   -2.578466    3.110581
     55          1           0        6.561321   -2.477385    1.747486
     56          1           0        7.626931   -1.147665    1.322688
     57          1           0        7.820355   -2.556615    0.547445
     58          1           0       -0.855929   -2.377757    1.713333
     59          1           0       -0.666375   -2.060258    3.481199
     60          1           0       -1.384919   -0.252691    0.019403
     61          1           0       -2.004606    4.952112   -1.904011
     62          1           0       -0.370411    4.654636   -1.198882
     63          1           0        7.648673   -0.888029   -3.371822
     64          1           0       -1.662306    4.312862    1.136908
     65          1           0       -2.952657    5.300727    0.746021
     66          1           0       -3.980018    3.948478   -2.123206
     67          1           0       -5.152963    2.814648   -1.351685
     68          1           0       -4.159342    2.380310   -3.053807
     69          1           0       -4.900290    0.292728   -1.873101
     70          1           0        9.254948   -0.747101   -0.608226
     71          1           0        9.924567   -0.930355   -2.535198
     72          1           0       -4.017652   -2.813805    3.225044
     73          1           0       -5.892145   -1.520700   -2.220275
     74          1           0       -4.917004   -5.406732   -0.501543
     75          1           0       -4.345326   -5.593508   -2.125804
     76          1           0       -3.115022   -5.680864   -0.868618
     77          1           0       -1.023640    7.975173    1.313647
     78          1           0       -7.673859   -3.167360   -3.166512
     79          1           0       -6.741513   -4.625227   -2.458631
 ---------------------------------------------------------------------

 SCF Done:  E(RB3LYP) =  -1947.78350017     A.U. after   18 cycles

 Excitation energies and oscillator strengths:

 Excited State   1:      Singlet-A      1.6844 eV  736.07 nm  f=0.4071  <S**2>=0.000
     154 ->156         0.12812
     155 ->156         0.70131
     155 <-156        -0.15345
 This state for optimization and/or second-order correction.
 Total Energy, E(TD-HF/TD-DFT) =  -1947.72159974
 Copying the excited state density for this state as the 1-particle RhoCI density.

 The electronic state is 1-A.
 Alpha  occ. eigenvalues --  -19.20103 -19.19409 -19.12539 -19.11386 -19.11151
 Alpha  occ. eigenvalues --  -19.10870 -14.37360 -14.36370 -14.36233 -14.29220
 Alpha  occ. eigenvalues --  -10.32048 -10.31101 -10.29480 -10.26635 -10.25837
 Alpha  occ. eigenvalues --  -10.24696 -10.24450 -10.23723 -10.23613 -10.23307
 Alpha  occ. eigenvalues --  -10.22320 -10.22168 -10.22080 -10.21845 -10.21705
 Alpha  occ. eigenvalues --  -10.21552 -10.21338 -10.21113 -10.21092 -10.21027
 Alpha  occ. eigenvalues --  -10.20846 -10.20739 -10.20718 -10.20505 -10.20210
 Alpha  occ. eigenvalues --  -10.20184 -10.20123 -10.19963 -10.19838 -10.19643
 Alpha  occ. eigenvalues --  -10.19535 -10.19458 -10.17981  -1.14100  -1.10946
 Alpha  occ. eigenvalues --   -1.03409  -1.02792  -1.00900  -0.98717  -0.97922
 Alpha  occ. eigenvalues --   -0.94269  -0.93197  -0.90213  -0.83604  -0.81911
 Alpha  occ. eigenvalues --   -0.81340  -0.80351  -0.79751  -0.79514  -0.77295
 Alpha  occ. eigenvalues --   -0.76742  -0.76029  -0.74930  -0.74641  -0.72466
 Alpha  occ. eigenvalues --   -0.71262  -0.70732  -0.69229  -0.68617  -0.67801
 Alpha  occ. eigenvalues --   -0.66038  -0.65735  -0.63626  -0.60263  -0.59916
 Alpha  occ. eigenvalues --   -0.59701  -0.59191  -0.58263  -0.57148  -0.55968
 Alpha  occ. eigenvalues --   -0.55804  -0.54904  -0.54388  -0.53903  -0.52268
 Alpha  occ. eigenvalues --   -0.51532  -0.51153  -0.50999  -0.50733  -0.49618
 Alpha  occ. eigenvalues --   -0.48944  -0.48738  -0.48271  -0.48061  -0.47372
 Alpha  occ. eigenvalues --   -0.47240  -0.46648  -0.46469  -0.46293  -0.45915
 Alpha  occ. eigenvalues --   -0.45683  -0.45530  -0.45329  -0.44400  -0.43956
 Alpha  occ. eigenvalues --   -0.43746  -0.43597  -0.43180  -0.42892  -0.42306
 Alpha  occ. eigenvalues --   -0.42269  -0.41878  -0.41768  -0.41299  -0.41170
 Alpha  occ. eigenvalues --   -0.40951  -0.40814  -0.40280  -0.39964  -0.39600
 Alpha  occ. eigenvalues --   -0.38968  -0.38663  -0.38618  -0.38163  -0.38028
 Alpha  occ. eigenvalues --   -0.37207  -0.36929  -0.36834  -0.36271  -0.35970
 Alpha  occ. eigenvalues --   -0.35714  -0.35044  -0.34306  -0.33691  -0.33638
 Alpha  occ. eigenvalues --   -0.33124  -0.32981  -0.32945  -0.31480  -0.31381
 Alpha  occ. eigenvalues --   -0.31171  -0.30642  -0.28857  -0.28377  -0.27659
 Alpha  occ. eigenvalues --   -0.26951  -0.26275  -0.25840  -0.25644  -0.24452
 Alpha  occ. eigenvalues --   -0.23977  -0.23829  -0.23441  -0.21278  -0.17713
 Alpha virt. eigenvalues --   -0.11465  -0.06768  -0.05583  -0.01542   0.00042
 Alpha virt. eigenvalues --    0.00783   0.00846   0.01554   0.03175   0.03422
 Alpha virt. eigenvalues --    0.03573   0.04208   0.05017   0.05112   0.05309

 Mulliken charges:
               1
     1  O   -0.244036
     2  O   -0.114126
     3  O   -0.279966
     4  O   -0.105666
     5  O   -0.222372
     6  O   -0.171795
     7  N   -0.178774
     8  N   -0.236730
     9  N   -0.111369
    10  N   -0.332274
    11  C    0.102069
    12  C    0.205680
    13  C   -0.059081
    14  C   -0.125100
    15  C   -0.084393
    16  C    0.110339
    17  C   -0.161802
    18  C    0.015507
    19  C   -0.049377
    20  C   -0.056370
    21  C    0.047726
    22  C    0.182724
    23  C   -0.094337
    24  C    0.045840
    25  C    0.109293
    26  C   -0.134884
    27  C   -0.091229
    28  C    0.122547
    29  C    0.108342
    30  C   -0.027273
    31  C   -0.134102
    32  C    0.113689
    33  C   -0.162326
    34  C    0.143921
    35  C    0.094998
    36  C   -0.078889
    37  C    0.111801
    38  C    0.071627
    39  C   -0.228292
    40  C    0.165571
    41  C    0.022390
    42  C    0.122112
    43  C   -0.133099
    44  H    0.032023
    45  H   -0.004236
    46  H    0.003122
    47  H    0.110631
    48  H    0.151600
    49  H    0.036711
    50  H    0.052753
    51  H   -0.035055
    52  H    0.013560
    53  H    0.035373
    54  H    0.042330
    55  H    0.019118
    56  H   -0.021478
    57  H    0.028383
    58  H    0.095529
    59  H    0.024062
    60  H    0.192859
    61  H    0.018669
    62  H    0.051089
    63  H    0.050249
    64  H    0.062383
    65  H    0.040987
    66  H    0.013525
    67  H    0.051340
    68  H    0.063457
    69  H    0.035309
    70  H    0.023175
    71  H    0.057718
    72  H    0.175087
    73  H   -0.024596
    74  H   -0.003113
    75  H    0.023676
    76  H    0.034435
    77  H    0.182311
    78  H    0.043960
    79  H    0.044539
 Sum of Mulliken charges =  -0.00000

 Dipole moment (field-independent basis, Debye):
    X=             -0.3491    Y=              2.2535    Z=              3.7774  Tot=              4.4124
 Quadrupole moment (field-independent basis, Debye-Ang):
   XX=           -219.3540   YY=           -241.5355   ZZ=           -263.7906
   XY=             -4.5145   XZ=             30.9527   YZ=              3.5221

 Normal termination of Gaussian 16 at Mon Sep 16 00:33:55 2019.
