 Gaussian 16, Revision A.03,
 Gaussian 16:  ES64L-G16RevA.03 25-Dec-2016

 --------------------------
 # td=(NStates=1) B3LYP/SVP
 --------------------------

 --
 TD
 --
 Symbolic Z-matrix:
 Charge =  0 Multiplicity = 1

                         Standard orientation:
 ---------------------------------------------------------------------
 Center     Atomic      Atomic             Coordinates (Angstroms)
 Number     Number       Type             X           Y           Z
 ---------------------------------------------------------------------
      1          8           0        5.355887   -0.125803   -3.334808
      2          8           0       -3.179996   -2.663391    3.051844
      3          8           0       -3.470808   -0.510074    3.055490
      4          8           0       -1.445352    6.967893    1.445971
      5          8           0       -0.302656    6.892385   -0.518293
      6          8           0       -1.717475   -3.925761    0.128319
      7          7           0        2.336893    0.991402    0.597820
      8          7           0        4.413095   -0.692721   -1.277678
      9          7           0       -1.858337    0.664536   -0.484422
     10          7           0       -2.595174   -1.831055   -0.494130
     11          6           0        4.668644   -1.200334    0.021880
     12          6           0        4.367569   -0.290849    1.249998
     13          6           0        2.888394   -0.040238    1.386839
     14          6           0        1.843728   -0.527013    2.165397
     15          6           0        0.639737   -0.024595    1.761935
     16          6           0        0.981506    0.983472    0.825544
     17          6           0        6.210468   -1.456091   -0.091053
     18          6           0       -0.696011   -0.001209    2.471542
     19          6           0        6.628201   -0.977948   -1.306558
     20          6           0        0.207126    2.011128    0.176051
     21          6           0       -1.153049    1.821891   -0.382450
     22          6           0        5.401304   -0.589613   -2.218817
     23          6           0       -1.874162    2.929945   -1.053231
     24          6           0        2.075374   -1.422954    3.369268
     25          6           0        7.044672   -2.127953    0.945593
     26          6           0       -3.079379    2.394204   -1.447728
     27          6           0       -1.243408   -1.443022    2.661235
     28          6           0       -3.022138    0.909483   -1.053169
     29          6           0       -1.426542    4.354679   -0.996078
     30          6           0        7.954522   -0.950553   -1.975714
     31          6           0       -1.535024    4.954603    0.309786
     32          6           0       -4.289416    2.924692   -2.117207
     33          6           0       -3.923714   -0.075090   -1.371737
     34          6           0       -2.712902   -1.437452    2.941242
     35          6           0       -3.771028   -1.484218   -1.044164
     36          6           0        9.119900   -1.062960   -1.385832
     37          6           0       -1.013059    6.414744    0.317395
     38          6           0       -4.584603   -2.705285   -1.332249
     39          6           0       -3.894672   -3.675250   -0.911494
     40          6           0       -2.621879   -3.286518   -0.347767
     41          6           0       -5.783634   -2.492052   -2.196737
     42          6           0       -4.209032   -5.219722   -0.921038
     43          6           0       -6.816673   -3.489247   -2.458576
     44          1           0        4.208119   -2.256002    0.152634
     45          1           0        4.917863    0.566330    1.295413
     46          1           0        4.628923   -0.902494    2.196429
     47          1           0        2.802589    1.685847    0.054337
     48          1           0        3.523324   -1.001174   -1.499149
     49          1           0       -0.720587    0.572788    3.307942
     50          1           0       -1.418331    0.485604    1.750766
     51          1           0        0.767906    2.897386   -0.060846
     52          1           0        3.130316   -1.426160    3.495309
     53          1           0        1.661127   -1.038684    4.285183
     54          1           0        1.840185   -2.311339    3.115590
     55          1           0        6.530146   -2.904893    1.483748
     56          1           0        7.394209   -1.458098    1.707844
     57          1           0        8.080479   -2.438643    0.505546
     58          1           0       -0.908574   -1.837192    1.510176
     59          1           0       -0.677107   -2.105357    3.590756
     60          1           0       -1.535550   -0.416835   -0.221056
     61          1           0       -2.076591    4.887382   -1.750453
     62          1           0       -0.354134    4.471908   -1.455820
     63          1           0        7.865883   -0.859533   -3.203451
     64          1           0       -0.969295    4.567904    1.175762
     65          1           0       -2.568120    5.208236    0.718904
     66          1           0       -4.252282    3.935087   -2.435903
     67          1           0       -5.075415    3.169088   -1.193473
     68          1           0       -4.884790    2.292447   -2.993077
     69          1           0       -4.843293    0.160996   -2.018481
     70          1           0        9.258710   -1.305818   -0.277418
     71          1           0       10.017120   -1.051467   -2.021283
     72          1           0       -4.126651   -2.666857    2.977354
     73          1           0       -6.055019   -1.543941   -2.727873
     74          1           0       -5.253075   -5.462407   -0.400457
     75          1           0       -4.555442   -5.662734   -1.915460
     76          1           0       -3.389143   -5.689683   -0.388594
     77          1           0       -1.025315    7.744318    1.328168
     78          1           0       -7.574637   -3.127423   -3.119454
     79          1           0       -6.640607   -4.497767   -1.941549
 ---------------------------------------------------------------------

 SCF Done:  E(RB3LYP) =  -1947.83904026     A.U. after   16 cycles

 Excitation energies and oscillator strengths:

 Excited State   1:      Singlet-A      1.9093 eV  649.38 nm  f=0.4284  <S**2>=0.000
     155 ->156         0.70595
     155 <-156        -0.12725
 This state for optimization and/or second-order correction.
 Total Energy, E(TD-HF/TD-DFT) =  -1947.76887576
 Copying the excited state density for this state as the 1-particle RhoCI density.

 The electronic state is 1-A.
 Alpha  occ. eigenvalues --  -19.19740 -19.16009 -19.14166 -19.11491 -19.11436
 Alpha  occ. eigenvalues --  -19.10629 -14.37979 -14.36656 -14.34917 -14.29193
 Alpha  occ. eigenvalues --  -10.32645 -10.30089 -10.29401 -10.26882 -10.25609
 Alpha  occ. eigenvalues --  -10.24383 -10.24054 -10.23294 -10.22743 -10.22474
 Alpha  occ. eigenvalues --  -10.22278 -10.22170 -10.22028 -10.22024 -10.21732
 Alpha  occ. eigenvalues --  -10.21454 -10.21418 -10.21307 -10.21095 -10.20929
 Alpha  occ. eigenvalues --  -10.20924 -10.20875 -10.20563 -10.20485 -10.20220
 Alpha  occ. eigenvalues --  -10.20214 -10.19347 -10.19343 -10.19328 -10.18672
 Alpha  occ. eigenvalues --  -10.18231 -10.18117 -10.17401  -1.14054  -1.09511
 Alpha  occ. eigenvalues --   -1.03718  -1.03445  -1.02713  -0.98912  -0.98822
 Alpha  occ. eigenvalues --   -0.98120  -0.95627  -0.92384  -0.83158  -0.81918
 Alpha  occ. eigenvalues --   -0.81605  -0.80818  -0.80275  -0.78906  -0.77924
 Alpha  occ. eigenvalues --   -0.76908  -0.75789  -0.75139  -0.73784  -0.72365
 Alpha  occ. eigenvalues --   -0.71575  -0.71377  -0.69449  -0.68818  -0.68136
 Alpha  occ. eigenvalues --   -0.67460  -0.66314  -0.63734  -0.61116  -0.60528
 Alpha  occ. eigenvalues --   -0.60193  -0.59083  -0.57812  -0.57739  -0.57002
 Alpha  occ. eigenvalues --   -0.56113  -0.55612  -0.55324  -0.54214  -0.52702
 Alpha  occ. eigenvalues --   -0.51835  -0.51310  -0.51062  -0.50481  -0.50001
 Alpha  occ. eigenvalues --   -0.49796  -0.48902  -0.48661  -0.48433  -0.48029
 Alpha  occ. eigenvalues --   -0.47096  -0.46600  -0.46183  -0.46008  -0.45362
 Alpha  occ. eigenvalues --   -0.45174  -0.44890  -0.44699  -0.44076  -0.43792
 Alpha  occ. eigenvalues --   -0.43483  -0.43417  -0.43223  -0.42994  -0.42801
 Alpha  occ. eigenvalues --   -0.42745  -0.42527  -0.42370  -0.41807  -0.41566
 Alpha  occ. eigenvalues --   -0.40947  -0.40339  -0.39953  -0.39745  -0.39662
 Alpha  occ. eigenvalues --   -0.39355  -0.38989  -0.38866  -0.38551  -0.37927
 Alpha  occ. eigenvalues --   -0.37793  -0.37453  -0.36926  -0.36845  -0.36603
 Alpha  occ. eigenvalues --   -0.36441  -0.35512  -0.35260  -0.34817  -0.34521
 Alpha  occ. eigenvalues --   -0.34282  -0.33457  -0.32999  -0.32546  -0.31397
 Alpha  occ. eigenvalues --   -0.30716  -0.30418  -0.29085  -0.28214  -0.27861
 Alpha  occ. eigenvalues --   -0.27355  -0.26577  -0.26258  -0.25651  -0.25390
 Alpha  occ. eigenvalues --   -0.24544  -0.24321  -0.24061  -0.22653  -0.17971
 Alpha virt. eigenvalues --   -0.10643  -0.06580  -0.05282  -0.01765   0.00448
 Alpha virt. eigenvalues --    0.01041   0.01159   0.01644   0.03084   0.03241
 Alpha virt. eigenvalues --    0.04316   0.04481   0.04844   0.05094   0.05573

 Mulliken charges:
               1
     1  O   -0.196114
     2  O   -0.146055
     3  O   -0.229210
     4  O   -0.092785
     5  O   -0.208872
     6  O   -0.174518
     7  N   -0.076141
     8  N   -0.128788
     9  N   -0.082070
    10  N   -0.365423
    11  C    0.033865
    12  C    0.245703
    13  C   -0.085078
    14  C   -0.180566
    15  C   -0.131555
    16  C    0.047252
    17  C   -0.186469
    18  C    0.146758
    19  C   -0.112679
    20  C   -0.069462
    21  C    0.055651
    22  C    0.170421
    23  C   -0.078230
    24  C    0.268412
    25  C    0.093147
    26  C   -0.079612
    27  C   -0.166308
    28  C    0.112365
    29  C    0.097209
    30  C   -0.028731
    31  C   -0.013709
    32  C    0.021409
    33  C   -0.134111
    34  C    0.137082
    35  C    0.037652
    36  C   -0.050391
    37  C    0.085041
    38  C    0.144831
    39  C   -0.205445
    40  C    0.173194
    41  C   -0.107056
    42  C    0.044414
    43  C   -0.016004
    44  H    0.033917
    45  H   -0.029993
    46  H    0.004283
    47  H    0.110964
    48  H    0.103065
    49  H   -0.016400
    50  H    0.017291
    51  H   -0.020019
    52  H   -0.046879
    53  H    0.018967
    54  H   -0.027083
    55  H    0.015209
    56  H    0.018139
    57  H    0.040846
    58  H    0.120541
    59  H    0.063924
    60  H    0.226856
    61  H    0.011223
    62  H    0.041497
    63  H    0.055766
    64  H    0.043265
    65  H    0.041042
    66  H   -0.007591
    67  H    0.040071
    68  H    0.067089
    69  H   -0.012692
    70  H    0.025684
    71  H    0.026273
    72  H    0.165163
    73  H    0.021047
    74  H    0.026318
    75  H    0.032398
    76  H    0.039184
    77  H    0.115093
    78  H    0.027106
    79  H    0.039410
 Sum of Mulliken charges =  -0.00000

 Dipole moment (field-independent basis, Debye):
    X=             -0.0272    Y=              1.7803    Z=              2.6565  Tot=              3.1980
 Quadrupole moment (field-independent basis, Debye-Ang):
   XX=           -224.8634   YY=           -243.3878   ZZ=           -263.0376
   XY=             -8.8961   XZ=             39.1508   YZ=              5.2632

 Normal termination of Gaussian 16 at Mon Sep 30 23:05:21 2019.
