 Gaussian 16, Revision A.03,
 Gaussian 16:  ES64L-G16RevA.03 25-Dec-2016

 --------------------------
 # td=(NStates=1) B3LYP/SVP
 --------------------------

 --
 TD
 --
 Symbolic Z-matrix:
 Charge =  0 Multiplicity = 1

                         Standard orientation:
 ---------------------------------------------------------------------
 Center     Atomic      Atomic             Coordinates (Angstroms)
 Number     Number       Type             X           Y           Z
 ---------------------------------------------------------------------
      1          8           0       -3.145357   -1.674333   -2.793448
      2          8           0        2.722561    3.583560    3.014492
      3          8           0        3.618957    1.942287    4.194218
      4          8           0        7.726362   -1.563558   -0.738001
      5          8           0        6.718549   -3.190335   -1.845259
      6          8           0       -2.743357    1.900850    1.201510
      7          7           0       -0.265629   -2.345913    1.267999
      8          7           0       -2.663265   -1.247747   -0.564145
      9          7           0        1.133438   -0.069300   -0.593721
     10          7           0       -1.024323    1.471555   -0.315311
     11          6           0       -3.313861   -1.287497    0.785923
     12          6           0       -2.671341   -2.144807    1.908844
     13          6           0       -1.221552   -1.951411    2.085568
     14          6           0       -0.523230   -1.080523    2.970367
     15          6           0        0.753418   -0.885947    2.633110
     16          6           0        0.974964   -1.729351    1.516557
     17          6           0       -4.763711   -1.818236    0.326961
     18          6           0        1.823360   -0.037115    3.197003
     19          6           0       -4.781008   -2.169597   -0.944797
     20          6           0        2.029798   -1.950842    0.581920
     21          6           0        2.055848   -1.019580   -0.384495
     22          6           0       -3.489611   -1.671834   -1.588169
     23          6           0        2.943372   -0.975391   -1.649383
     24          6           0       -1.221572   -0.194776    4.076913
     25          6           0       -5.899305   -1.976673    1.324553
     26          6           0        2.558110    0.214175   -2.475358
     27          6           0        1.680083    1.526755    2.819469
     28          6           0        1.395807    0.681524   -1.704670
     29          6           0        4.183958   -1.780894   -1.882907
     30          6           0       -5.799261   -2.725194   -1.920188
     31          6           0        5.416708   -1.350648   -1.043277
     32          6           0        3.120326    0.752566   -3.686619
     33          6           0        0.544259    1.668611   -2.249661
     34          6           0        2.769048    2.326416    3.425196
     35          6           0       -0.507864    2.176830   -1.401674
     36          6           0       -6.732289   -3.508611   -1.438762
     37          6           0        6.696257   -2.179160   -1.285090
     38          6           0       -1.270166    3.459918   -1.585480
     39          6           0       -2.185428    3.474006   -0.571468
     40          6           0       -2.099859    2.254640    0.184736
     41          6           0       -0.952151    4.383526   -2.685510
     42          6           0       -3.283746    4.464326   -0.256948
     43          6           0       -1.861668    5.287698   -3.141377
     44          1           0       -3.345304   -0.177421    1.148949
     45          1           0       -2.888775   -3.281140    1.715007
     46          1           0       -3.337609   -1.722355    2.908037
     47          1           0       -0.466720   -3.133266    0.532129
     48          1           0       -1.896707   -0.405146   -0.748595
     49          1           0        1.889269   -0.196487    4.401145
     50          1           0        2.974872   -0.363975    2.927168
     51          1           0        2.855671   -2.845776    0.657315
     52          1           0       -1.809860   -0.982748    4.884336
     53          1           0       -0.727436    0.664705    4.533683
     54          1           0       -1.652568    0.596669    3.488913
     55          1           0       -5.994591   -1.051609    2.019822
     56          1           0       -5.781536   -2.968756    1.839303
     57          1           0       -6.876416   -2.202908    0.489216
     58          1           0        1.852867    1.677822    1.631026
     59          1           0        0.636884    1.931798    2.763649
     60          1           0        0.339052    0.213361   -0.025938
     61          1           0        4.477852   -1.816401   -2.992140
     62          1           0        4.116141   -2.810290   -1.700105
     63          1           0       -5.658843   -2.448640   -2.873544
     64          1           0        5.173322   -1.342260    0.035225
     65          1           0        5.580626   -0.225684   -1.299709
     66          1           0        3.717492   -0.191414   -3.931712
     67          1           0        3.753068    1.720173   -3.421821
     68          1           0        2.365851    1.047009   -4.533491
     69          1           0        0.639719    2.052833   -3.235620
     70          1           0       -6.812874   -3.862275   -0.452647
     71          1           0       -7.554961   -3.814092   -1.975967
     72          1           0        3.254827    4.128352    3.670842
     73          1           0        0.183466    4.302250   -2.948286
     74          1           0       -4.212643    4.234436   -1.042859
     75          1           0       -3.631267    4.324404    0.924278
     76          1           0       -2.918718    5.667724   -0.418957
     77          1           0        8.583365   -2.187363   -0.788999
     78          1           0       -1.327944    6.013347   -3.777080
     79          1           0       -3.149000    5.409761   -2.882154
 ---------------------------------------------------------------------

 SCF Done:  E(RB3LYP) =  -1947.76834529     A.U. after   19 cycles

 Excitation energies and oscillator strengths:

 Excited State   1:      Singlet-A      1.0930 eV 1134.35 nm  f=0.0090  <S**2>=0.000
     155 ->156         0.70214
 This state for optimization and/or second-order correction.
 Total Energy, E(TD-HF/TD-DFT) =  -1947.72817825
 Copying the excited state density for this state as the 1-particle RhoCI density.

 The electronic state is 1-A.
 Alpha  occ. eigenvalues --  -19.19862 -19.17916 -19.13889 -19.12314 -19.11823
 Alpha  occ. eigenvalues --  -19.07290 -14.37794 -14.37635 -14.32240 -14.30997
 Alpha  occ. eigenvalues --  -10.32764 -10.31357 -10.28113 -10.26579 -10.25784
 Alpha  occ. eigenvalues --  -10.25636 -10.25431 -10.24299 -10.23374 -10.23314
 Alpha  occ. eigenvalues --  -10.23256 -10.23114 -10.22701 -10.22533 -10.22530
 Alpha  occ. eigenvalues --  -10.22225 -10.21848 -10.21708 -10.21531 -10.21375
 Alpha  occ. eigenvalues --  -10.21275 -10.21111 -10.21020 -10.20889 -10.20473
 Alpha  occ. eigenvalues --  -10.20291 -10.19948 -10.18401 -10.18348 -10.18004
 Alpha  occ. eigenvalues --  -10.17076 -10.16988 -10.16579  -1.12193  -1.09981
 Alpha  occ. eigenvalues --   -1.03468  -1.01559  -1.00268  -0.99885  -0.97729
 Alpha  occ. eigenvalues --   -0.97435  -0.92141  -0.88799  -0.83463  -0.82699
 Alpha  occ. eigenvalues --   -0.80939  -0.80080  -0.79791  -0.78764  -0.77903
 Alpha  occ. eigenvalues --   -0.76051  -0.75551  -0.75182  -0.74254  -0.72684
 Alpha  occ. eigenvalues --   -0.70324  -0.69437  -0.68838  -0.68131  -0.66784
 Alpha  occ. eigenvalues --   -0.66374  -0.64603  -0.62346  -0.60833  -0.60401
 Alpha  occ. eigenvalues --   -0.59390  -0.59060  -0.58782  -0.57057  -0.56571
 Alpha  occ. eigenvalues --   -0.55488  -0.54532  -0.54005  -0.53118  -0.52082
 Alpha  occ. eigenvalues --   -0.51287  -0.51047  -0.50859  -0.49993  -0.49685
 Alpha  occ. eigenvalues --   -0.49256  -0.48689  -0.48030  -0.47935  -0.47446
 Alpha  occ. eigenvalues --   -0.46953  -0.46823  -0.46437  -0.46105  -0.45401
 Alpha  occ. eigenvalues --   -0.45345  -0.44619  -0.44103  -0.43842  -0.43477
 Alpha  occ. eigenvalues --   -0.43189  -0.42836  -0.42464  -0.42349  -0.41784
 Alpha  occ. eigenvalues --   -0.41562  -0.41419  -0.40836  -0.40639  -0.40452
 Alpha  occ. eigenvalues --   -0.40147  -0.39861  -0.39667  -0.39522  -0.38801
 Alpha  occ. eigenvalues --   -0.38656  -0.38489  -0.37967  -0.37691  -0.37531
 Alpha  occ. eigenvalues --   -0.36823  -0.36605  -0.36041  -0.35766  -0.35430
 Alpha  occ. eigenvalues --   -0.35328  -0.35149  -0.34914  -0.34672  -0.34313
 Alpha  occ. eigenvalues --   -0.33630  -0.32124  -0.31700  -0.31399  -0.31356
 Alpha  occ. eigenvalues --   -0.30180  -0.29812  -0.29176  -0.29158  -0.28300
 Alpha  occ. eigenvalues --   -0.27815  -0.26256  -0.26029  -0.24318  -0.24081
 Alpha  occ. eigenvalues --   -0.23598  -0.22928  -0.22508  -0.21747  -0.19029
 Alpha virt. eigenvalues --   -0.12693  -0.08171  -0.02818  -0.02411   0.00235
 Alpha virt. eigenvalues --    0.00656   0.01105   0.01428   0.02168   0.02238
 Alpha virt. eigenvalues --    0.02353   0.02711   0.03748   0.03997   0.04851

 Mulliken charges:
               1
     1  O   -0.282010
     2  O   -0.185823
     3  O   -0.228058
     4  O   -0.206339
     5  O   -0.164364
     6  O   -0.230728
     7  N   -0.064978
     8  N   -0.286918
     9  N   -0.026145
    10  N   -0.366842
    11  C    0.062210
    12  C    0.100257
    13  C   -0.060834
    14  C   -0.147898
    15  C    0.012946
    16  C   -0.032828
    17  C   -0.191719
    18  C   -0.001418
    19  C   -0.060505
    20  C   -0.172773
    21  C    0.150558
    22  C    0.151930
    23  C   -0.097358
    24  C    0.025530
    25  C   -0.023403
    26  C   -0.109285
    27  C   -0.076387
    28  C    0.128095
    29  C    0.090142
    30  C    0.081590
    31  C   -0.068971
    32  C    0.011990
    33  C   -0.093040
    34  C    0.141486
    35  C    0.078335
    36  C    0.030975
    37  C    0.122484
    38  C    0.049450
    39  C   -0.152483
    40  C    0.197391
    41  C   -0.055956
    42  C   -0.081178
    43  C   -0.056103
    44  H    0.073524
    45  H   -0.000340
    46  H    0.044544
    47  H    0.149694
    48  H    0.190434
    49  H    0.047011
    50  H    0.029393
    51  H    0.053041
    52  H    0.055654
    53  H   -0.011104
    54  H    0.017780
    55  H    0.055711
    56  H    0.046917
    57  H    0.049726
    58  H    0.046307
    59  H    0.054002
    60  H    0.173671
    61  H    0.022770
    62  H   -0.003663
    63  H   -0.036392
    64  H    0.046433
    65  H    0.041087
    66  H    0.046100
    67  H    0.065843
    68  H    0.063648
    69  H   -0.016950
    70  H    0.003737
    71  H   -0.010273
    72  H    0.195502
    73  H    0.040957
    74  H    0.071669
    75  H    0.072635
    76  H    0.055588
    77  H    0.222193
    78  H    0.033537
    79  H    0.098588
 Sum of Mulliken charges =  -0.00000

 Dipole moment (field-independent basis, Debye):
    X=              4.0415    Y=              3.1239    Z=             -1.2672  Tot=              5.2630
 Quadrupole moment (field-independent basis, Debye-Ang):
   XX=           -231.4472   YY=           -233.3953   ZZ=           -266.5021
   XY=             -0.4610   XZ=            -17.9023   YZ=            -17.1451

 Normal termination of Gaussian 16 at Mon Jul 29 02:53:24 2019.
