 Gaussian 16, Revision A.03,
 Gaussian 16:  ES64L-G16RevA.03 25-Dec-2016

 --------------------------
 # td=(NStates=1) B3LYP/SVP
 --------------------------

 --
 TD
 --
 Symbolic Z-matrix:
 Charge =  0 Multiplicity = 1

                         Standard orientation:
 ---------------------------------------------------------------------
 Center     Atomic      Atomic             Coordinates (Angstroms)
 Number     Number       Type             X           Y           Z
 ---------------------------------------------------------------------
      1          8           0       -3.160779   -1.342646   -2.886789
      2          8           0        3.081806    3.116963    3.196213
      3          8           0        3.860991    1.294766    4.294119
      4          8           0        7.706048   -1.322881   -0.904375
      5          8           0        6.722612   -2.896913   -2.182653
      6          8           0       -2.635058    1.562857    1.525153
      7          7           0       -0.206250   -2.419595    0.794309
      8          7           0       -2.659129   -1.083191   -0.659088
      9          7           0        1.129662    0.080660   -0.639963
     10          7           0       -1.196579    1.410997   -0.222242
     11          6           0       -3.271387   -1.406550    0.668274
     12          6           0       -2.516502   -2.389639    1.515144
     13          6           0       -1.080704   -2.091396    1.764452
     14          6           0       -0.538744   -1.250334    2.806059
     15          6           0        0.818186   -1.166498    2.517951
     16          6           0        1.035799   -1.878200    1.225570
     17          6           0       -4.665161   -1.913547    0.252570
     18          6           0        1.923915   -0.417072    3.183768
     19          6           0       -4.751992   -1.993653   -1.125753
     20          6           0        2.213393   -1.897536    0.306579
     21          6           0        2.160881   -0.833281   -0.639869
     22          6           0       -3.515684   -1.418847   -1.677118
     23          6           0        2.994530   -0.505968   -1.717533
     24          6           0       -1.276931   -0.591895    3.892427
     25          6           0       -5.740294   -2.118293    1.411005
     26          6           0        2.448550    0.603051   -2.382278
     27          6           0        1.977701    1.077808    2.807588
     28          6           0        1.260876    0.927336   -1.739064
     29          6           0        4.241767   -1.319506   -2.055138
     30          6           0       -5.770646   -2.561057   -2.031035
     31          6           0        5.466619   -1.053532   -1.206155
     32          6           0        2.965544    1.162574   -3.607112
     33          6           0        0.375289    2.030925   -2.073732
     34          6           0        3.058685    1.839847    3.526780
     35          6           0       -0.778424    2.278009   -1.127452
     36          6           0       -6.794020   -3.407704   -1.639095
     37          6           0        6.696098   -1.920362   -1.504075
     38          6           0       -1.585527    3.427886   -1.281552
     39          6           0       -2.514295    3.386952   -0.150043
     40          6           0       -2.139666    2.096409    0.512228
     41          6           0       -1.372888    4.593822   -2.108750
     42          6           0       -3.499541    4.162331    0.439984
     43          6           0       -2.231608    5.614133   -2.323838
     44          1           0       -3.291898   -0.532839    1.395933
     45          1           0       -2.583613   -3.406162    0.986203
     46          1           0       -3.059403   -2.612132    2.385997
     47          1           0       -0.354190   -2.832775   -0.014589
     48          1           0       -1.995678   -0.264980   -0.647596
     49          1           0        1.718242   -0.560644    4.272698
     50          1           0        2.891618   -0.949434    2.994517
     51          1           0        2.914082   -2.758892   -0.107350
     52          1           0       -2.086587   -1.109264    4.416608
     53          1           0       -0.727391   -0.432525    4.957468
     54          1           0       -1.391115    0.441159    3.512625
     55          1           0       -5.401114   -1.532764    2.416974
     56          1           0       -5.839826   -3.132346    1.580270
     57          1           0       -6.717879   -1.946193    0.850837
     58          1           0        2.145315    0.986976    1.681895
     59          1           0        1.144730    1.664793    3.030786
     60          1           0        0.324143    0.137677   -0.201871
     61          1           0        4.693501   -0.935532   -3.147008
     62          1           0        4.078039   -2.417748   -2.034085
     63          1           0       -5.790823   -2.023888   -3.137896
     64          1           0        5.265626   -1.166896   -0.160294
     65          1           0        5.795315   -0.028155   -1.198333
     66          1           0        3.866054    0.778208   -3.984637
     67          1           0        3.366174    2.127940   -3.529345
     68          1           0        1.981990    1.006525   -4.449471
     69          1           0        0.648771    2.422047   -3.108610
     70          1           0       -6.620098   -3.833301   -0.601105
     71          1           0       -7.669724   -3.789472   -2.377375
     72          1           0        3.955181    3.435362    3.563636
     73          1           0       -0.605595    4.451994   -2.801517
     74          1           0       -4.266605    4.251279   -0.325579
     75          1           0       -3.812295    3.534725    1.210089
     76          1           0       -3.338714    5.296496    0.818979
     77          1           0        8.466763   -1.912986   -1.185369
     78          1           0       -2.183303    6.270925   -3.242051
     79          1           0       -3.161498    5.756297   -1.710620
 ---------------------------------------------------------------------

 SCF Done:  E(RB3LYP) =  -1947.83513901     A.U. after   26 cycles

 Excitation energies and oscillator strengths:

 Excited State   1:      Singlet-A      0.8570 eV 1446.79 nm  f=0.0119  <S**2>=0.000
     155 ->156         0.70079
 This state for optimization and/or second-order correction.
 Total Energy, E(TD-HF/TD-DFT) =  -1947.80364636
 Copying the excited state density for this state as the 1-particle RhoCI density.

 The electronic state is 1-A.
 Alpha  occ. eigenvalues --  -19.20413 -19.19326 -19.14235 -19.12655 -19.11837
 Alpha  occ. eigenvalues --  -19.06909 -14.37215 -14.36622 -14.31809 -14.30902
 Alpha  occ. eigenvalues --  -10.33007 -10.31528 -10.28178 -10.25921 -10.25867
 Alpha  occ. eigenvalues --  -10.25854 -10.25248 -10.23658 -10.23019 -10.22496
 Alpha  occ. eigenvalues --  -10.22424 -10.21938 -10.21789 -10.21719 -10.21716
 Alpha  occ. eigenvalues --  -10.21691 -10.21565 -10.21417 -10.21093 -10.21020
 Alpha  occ. eigenvalues --  -10.20872 -10.20771 -10.20722 -10.20667 -10.20315
 Alpha  occ. eigenvalues --  -10.19697 -10.19671 -10.19179 -10.18866 -10.18827
 Alpha  occ. eigenvalues --  -10.18778 -10.18304 -10.17774  -1.12611  -1.10419
 Alpha  occ. eigenvalues --   -1.03392  -1.02782  -1.00282  -0.99353  -0.97771
 Alpha  occ. eigenvalues --   -0.97228  -0.94519  -0.89658  -0.84330  -0.82370
 Alpha  occ. eigenvalues --   -0.82069  -0.80975  -0.79254  -0.79204  -0.78662
 Alpha  occ. eigenvalues --   -0.77972  -0.76619  -0.75061  -0.74039  -0.72933
 Alpha  occ. eigenvalues --   -0.71620  -0.70564  -0.69952  -0.69477  -0.68196
 Alpha  occ. eigenvalues --   -0.67131  -0.65393  -0.62636  -0.61261  -0.60628
 Alpha  occ. eigenvalues --   -0.60193  -0.59065  -0.58272  -0.57786  -0.57669
 Alpha  occ. eigenvalues --   -0.57064  -0.55330  -0.54841  -0.53809  -0.53033
 Alpha  occ. eigenvalues --   -0.52448  -0.51276  -0.50705  -0.50395  -0.49821
 Alpha  occ. eigenvalues --   -0.49558  -0.48896  -0.48730  -0.48266  -0.48024
 Alpha  occ. eigenvalues --   -0.47427  -0.47008  -0.46707  -0.46189  -0.45976
 Alpha  occ. eigenvalues --   -0.45450  -0.45148  -0.44950  -0.44771  -0.43948
 Alpha  occ. eigenvalues --   -0.43699  -0.43412  -0.42959  -0.42872  -0.42464
 Alpha  occ. eigenvalues --   -0.41617  -0.41567  -0.41394  -0.41245  -0.40999
 Alpha  occ. eigenvalues --   -0.40745  -0.40735  -0.40428  -0.39912  -0.39708
 Alpha  occ. eigenvalues --   -0.39523  -0.39374  -0.38856  -0.38518  -0.38075
 Alpha  occ. eigenvalues --   -0.37553  -0.37257  -0.36747  -0.36209  -0.35845
 Alpha  occ. eigenvalues --   -0.35432  -0.35102  -0.34920  -0.34631  -0.34407
 Alpha  occ. eigenvalues --   -0.33866  -0.33384  -0.33014  -0.31997  -0.31572
 Alpha  occ. eigenvalues --   -0.31332  -0.29956  -0.29768  -0.29120  -0.28909
 Alpha  occ. eigenvalues --   -0.27434  -0.26966  -0.26554  -0.24072  -0.23217
 Alpha  occ. eigenvalues --   -0.22990  -0.22737  -0.22061  -0.21785  -0.18850
 Alpha virt. eigenvalues --   -0.13394  -0.08978  -0.04689  -0.02315   0.00202
 Alpha virt. eigenvalues --    0.00358   0.00655   0.01632   0.01794   0.03173
 Alpha virt. eigenvalues --    0.04048   0.04284   0.04645   0.04773   0.05377

 Mulliken charges:
               1
     1  O   -0.287876
     2  O   -0.162222
     3  O   -0.259636
     4  O   -0.158902
     5  O   -0.199517
     6  O   -0.221635
     7  N    0.015352
     8  N   -0.229248
     9  N   -0.004211
    10  N   -0.282330
    11  C    0.042532
    12  C    0.190730
    13  C   -0.087457
    14  C   -0.081245
    15  C   -0.107194
    16  C   -0.033285
    17  C   -0.166079
    18  C    0.118443
    19  C   -0.056365
    20  C   -0.067214
    21  C    0.041753
    22  C    0.149339
    23  C   -0.023042
    24  C    0.035779
    25  C    0.077592
    26  C   -0.102298
    27  C    0.016668
    28  C    0.021193
    29  C    0.040686
    30  C   -0.035426
    31  C    0.000659
    32  C    0.096861
    33  C   -0.085246
    34  C    0.123062
    35  C    0.125850
    36  C   -0.090375
    37  C    0.114759
    38  C    0.012244
    39  C   -0.167649
    40  C    0.162473
    41  C    0.037832
    42  C    0.070381
    43  C   -0.057481
    44  H    0.052611
    45  H   -0.031501
    46  H   -0.034514
    47  H    0.068714
    48  H    0.169914
    49  H    0.003598
    50  H    0.012516
    51  H    0.032545
    52  H    0.012264
    53  H    0.002774
    54  H    0.053092
    55  H    0.065179
    56  H    0.011830
    57  H    0.038825
    58  H    0.055214
    59  H    0.015857
    60  H    0.086305
    61  H    0.035355
    62  H    0.040725
    63  H    0.052672
    64  H    0.021384
    65  H    0.013019
    66  H   -0.021462
    67  H    0.008353
    68  H    0.074234
    69  H    0.024904
    70  H    0.025929
    71  H    0.061758
    72  H    0.191141
    73  H   -0.033437
    74  H    0.037898
    75  H    0.009172
    76  H    0.059776
    77  H    0.185085
    78  H    0.044618
    79  H    0.025397
 Sum of Mulliken charges =  -0.00000

 Dipole moment (field-independent basis, Debye):
    X=              3.1899    Y=              3.6478    Z=             -0.5952  Tot=              4.8823
 Quadrupole moment (field-independent basis, Debye-Ang):
   XX=           -226.9191   YY=           -238.0023   ZZ=           -268.3298
   XY=              5.2410   XZ=            -23.9037   YZ=            -14.7683

 Normal termination of Gaussian 16 at Sat Jul 27 16:46:59 2019.
