 Gaussian 16, Revision A.03,
 Gaussian 16:  ES64L-G16RevA.03 25-Dec-2016

 --------------------------
 # td=(NStates=1) B3LYP/SVP
 --------------------------

 --
 TD
 --
 Symbolic Z-matrix:
 Charge =  0 Multiplicity = 1

                         Standard orientation:
 ---------------------------------------------------------------------
 Center     Atomic      Atomic             Coordinates (Angstroms)
 Number     Number       Type             X           Y           Z
 ---------------------------------------------------------------------
      1          8           0        5.298361   -0.037272   -3.256219
      2          8           0       -3.130592   -2.966276    3.216115
      3          8           0       -3.405731   -0.723940    2.768359
      4          8           0       -1.866222    7.283474    1.424164
      5          8           0       -0.582857    7.089614   -0.442895
      6          8           0       -1.544882   -3.952310    0.109000
      7          7           0        2.383128    0.893761    0.674703
      8          7           0        4.331040   -0.474256   -1.273488
      9          7           0       -1.894853    0.654487   -0.426373
     10          7           0       -2.574403   -1.865241   -0.443782
     11          6           0        4.755707   -1.205417   -0.054617
     12          6           0        4.361138   -0.392114    1.230593
     13          6           0        2.878928   -0.146959    1.447991
     14          6           0        1.871503   -0.606991    2.258851
     15          6           0        0.696451   -0.007032    1.924979
     16          6           0        1.002067    0.891085    0.842583
     17          6           0        6.295737   -1.219219   -0.185435
     18          6           0       -0.638689   -0.248965    2.580260
     19          6           0        6.581677   -0.734891   -1.405672
     20          6           0        0.150945    1.953247    0.270520
     21          6           0       -1.113763    1.736058   -0.237948
     22          6           0        5.402778   -0.305433   -2.104585
     23          6           0       -1.929957    2.891066   -0.894500
     24          6           0        2.065654   -1.878053    3.148462
     25          6           0        7.152164   -1.926556    0.787797
     26          6           0       -3.052335    2.381552   -1.355895
     27          6           0       -1.102653   -1.743375    2.591296
     28          6           0       -3.115396    0.873389   -1.072692
     29          6           0       -1.532707    4.359275   -0.834618
     30          6           0        7.983926   -0.629099   -1.983594
     31          6           0       -1.889529    5.100239    0.401349
     32          6           0       -4.193082    2.953666   -2.054677
     33          6           0       -3.876103   -0.108483   -1.338777
     34          6           0       -2.676463   -1.705929    2.852442
     35          6           0       -3.631343   -1.509252   -1.079906
     36          6           0        9.203857   -0.664666   -1.350368
     37          6           0       -1.475844    6.577673    0.424798
     38          6           0       -4.486672   -2.644760   -1.554833
     39          6           0       -3.751236   -3.806832   -1.072588
     40          6           0       -2.591858   -3.267369   -0.427034
     41          6           0       -5.784739   -2.550674   -2.157678
     42          6           0       -4.096462   -5.258626   -1.115960
     43          6           0       -6.649844   -3.510245   -2.620420
     44          1           0        4.416844   -2.250144    0.185656
     45          1           0        4.901559    0.547312    1.081967
     46          1           0        4.682663   -0.864643    2.203173
     47          1           0        3.021749    1.438854    0.097173
     48          1           0        3.402752   -0.649942   -1.737713
     49          1           0       -0.575280    0.166723    3.594335
     50          1           0       -1.394016    0.357517    2.152908
     51          1           0        0.602239    3.033270    0.434646
     52          1           0        3.195890   -1.921187    3.363379
     53          1           0        1.874306   -1.747683    4.085567
     54          1           0        1.449504   -2.530404    2.536417
     55          1           0        6.582604   -2.645698    1.458632
     56          1           0        7.711417   -1.123560    1.442678
     57          1           0        7.899413   -2.510275    0.201942
     58          1           0       -1.025165   -2.268723    1.640733
     59          1           0       -0.494858   -2.368459    3.261046
     60          1           0       -1.587657   -0.316813   -0.142812
     61          1           0       -1.935373    4.849387   -1.813933
     62          1           0       -0.355710    4.396247   -0.890264
     63          1           0        7.955454   -0.615146   -3.106530
     64          1           0       -1.321890    4.741367    1.383159
     65          1           0       -2.945897    5.299741    0.703901
     66          1           0       -3.838382    3.964639   -2.344813
     67          1           0       -5.254084    3.003818   -1.456406
     68          1           0       -4.468526    2.460384   -3.025544
     69          1           0       -4.720060   -0.126799   -1.834098
     70          1           0        9.507893   -0.943211   -0.294928
     71          1           0       10.040600   -0.596011   -1.922064
     72          1           0       -4.010802   -2.773953    3.381254
     73          1           0       -6.159480   -1.519761   -2.425811
     74          1           0       -4.990601   -5.532023   -0.504827
     75          1           0       -4.528785   -5.639375   -2.078911
     76          1           0       -3.123241   -5.716865   -0.823013
     77          1           0       -1.453788    8.148178    1.334801
     78          1           0       -7.654632   -3.210289   -3.105782
     79          1           0       -6.148816   -4.421905   -2.462271
 ---------------------------------------------------------------------

 SCF Done:  E(RB3LYP) =  -1947.85001746     A.U. after   19 cycles

 Excitation energies and oscillator strengths:

 Excited State   1:      Singlet-A      1.5772 eV  786.12 nm  f=0.2642  <S**2>=0.000
     153 ->156         0.11189
     155 ->156         0.70615
     155 <-156        -0.12053
 This state for optimization and/or second-order correction.
 Total Energy, E(TD-HF/TD-DFT) =  -1947.79205793
 Copying the excited state density for this state as the 1-particle RhoCI density.

 The electronic state is 1-A.
 Alpha  occ. eigenvalues --  -19.21236 -19.16794 -19.12552 -19.11369 -19.11166
 Alpha  occ. eigenvalues --  -19.09745 -14.37103 -14.36178 -14.35381 -14.30102
 Alpha  occ. eigenvalues --  -10.33183 -10.31598 -10.27705 -10.27511 -10.25116
 Alpha  occ. eigenvalues --  -10.24354 -10.24271 -10.23916 -10.23244 -10.22360
 Alpha  occ. eigenvalues --  -10.22129 -10.22113 -10.22015 -10.21994 -10.21673
 Alpha  occ. eigenvalues --  -10.21509 -10.21388 -10.21278 -10.21274 -10.21209
 Alpha  occ. eigenvalues --  -10.21092 -10.21064 -10.20990 -10.20726 -10.19991
 Alpha  occ. eigenvalues --  -10.19876 -10.19644 -10.18925 -10.18294 -10.18083
 Alpha  occ. eigenvalues --  -10.17892 -10.17725 -10.17511  -1.13069  -1.08308
 Alpha  occ. eigenvalues --   -1.04265  -0.99641  -0.98324  -0.97222  -0.96948
 Alpha  occ. eigenvalues --   -0.94602  -0.93807  -0.91815  -0.82835  -0.82190
 Alpha  occ. eigenvalues --   -0.81854  -0.81123  -0.80817  -0.78943  -0.78824
 Alpha  occ. eigenvalues --   -0.76730  -0.76071  -0.75283  -0.74553  -0.72391
 Alpha  occ. eigenvalues --   -0.71902  -0.71024  -0.70612  -0.68694  -0.68417
 Alpha  occ. eigenvalues --   -0.66927  -0.66286  -0.63712  -0.62110  -0.61114
 Alpha  occ. eigenvalues --   -0.60716  -0.59054  -0.58466  -0.57785  -0.56917
 Alpha  occ. eigenvalues --   -0.56549  -0.55164  -0.54811  -0.54014  -0.53050
 Alpha  occ. eigenvalues --   -0.52607  -0.51397  -0.50823  -0.50140  -0.49639
 Alpha  occ. eigenvalues --   -0.49461  -0.48703  -0.48555  -0.47830  -0.47611
 Alpha  occ. eigenvalues --   -0.47456  -0.47100  -0.46896  -0.45928  -0.45698
 Alpha  occ. eigenvalues --   -0.45296  -0.44655  -0.44576  -0.43908  -0.43759
 Alpha  occ. eigenvalues --   -0.43460  -0.43403  -0.43168  -0.42974  -0.42853
 Alpha  occ. eigenvalues --   -0.42304  -0.42078  -0.41842  -0.41474  -0.40844
 Alpha  occ. eigenvalues --   -0.40656  -0.40398  -0.40060  -0.40043  -0.39800
 Alpha  occ. eigenvalues --   -0.39160  -0.38824  -0.38673  -0.38454  -0.38230
 Alpha  occ. eigenvalues --   -0.38035  -0.37574  -0.36835  -0.36700  -0.36276
 Alpha  occ. eigenvalues --   -0.35025  -0.34872  -0.34758  -0.34665  -0.33729
 Alpha  occ. eigenvalues --   -0.33460  -0.33255  -0.32683  -0.31859  -0.31500
 Alpha  occ. eigenvalues --   -0.30688  -0.30031  -0.28249  -0.28029  -0.27523
 Alpha  occ. eigenvalues --   -0.27337  -0.26847  -0.26082  -0.25683  -0.24710
 Alpha  occ. eigenvalues --   -0.24594  -0.24366  -0.23258  -0.22690  -0.18631
 Alpha virt. eigenvalues --   -0.12411  -0.06031  -0.05593  -0.02042  -0.01384
 Alpha virt. eigenvalues --    0.00245   0.00962   0.01133   0.03270   0.03337
 Alpha virt. eigenvalues --    0.04448   0.04952   0.05121   0.05434   0.05847

 Mulliken charges:
               1
     1  O   -0.185006
     2  O   -0.160921
     3  O   -0.242678
     4  O   -0.094592
     5  O   -0.364560
     6  O   -0.320468
     7  N   -0.089879
     8  N   -0.203156
     9  N   -0.108803
    10  N   -0.212156
    11  C    0.069259
    12  C    0.155073
    13  C   -0.070365
    14  C   -0.194090
    15  C   -0.119274
    16  C    0.022817
    17  C   -0.157443
    18  C    0.149914
    19  C   -0.052607
    20  C   -0.163259
    21  C    0.131829
    22  C    0.110206
    23  C   -0.108755
    24  C    0.195901
    25  C    0.045178
    26  C   -0.058147
    27  C   -0.032854
    28  C    0.250299
    29  C    0.054712
    30  C   -0.010068
    31  C    0.008951
    32  C    0.042512
    33  C   -0.032261
    34  C    0.160334
    35  C   -0.024107
    36  C   -0.026712
    37  C    0.113738
    38  C    0.088639
    39  C   -0.155479
    40  C    0.186839
    41  C   -0.114679
    42  C    0.067804
    43  C    0.018016
    44  H    0.029346
    45  H   -0.017417
    46  H    0.003276
    47  H    0.120603
    48  H    0.150547
    49  H    0.001832
    50  H   -0.010096
    51  H    0.044567
    52  H   -0.018249
    53  H   -0.049970
    54  H    0.075955
    55  H    0.032289
    56  H    0.059347
    57  H    0.050292
    58  H    0.065198
    59  H    0.027730
    60  H    0.172887
    61  H    0.046689
    62  H    0.040541
    63  H    0.030681
    64  H    0.068529
    65  H    0.036558
    66  H    0.002533
    67  H    0.053096
    68  H    0.030627
    69  H   -0.133517
    70  H    0.026880
    71  H    0.000870
    72  H    0.135146
    73  H    0.007566
    74  H    0.031422
    75  H    0.033885
    76  H    0.053369
    77  H    0.189433
    78  H    0.058892
    79  H   -0.021039
 Sum of Mulliken charges =  -0.00000

 Dipole moment (field-independent basis, Debye):
    X=             -1.4789    Y=              1.1135    Z=              2.9681  Tot=              3.4981
 Quadrupole moment (field-independent basis, Debye-Ang):
   XX=           -210.1065   YY=           -249.0089   ZZ=           -259.4820
   XY=            -13.1332   XZ=             33.8996   YZ=             13.4632

 Normal termination of Gaussian 16 at Wed Oct  9 22:56:30 2019.
