 Gaussian 16, Revision A.03,
 Gaussian 16:  ES64L-G16RevA.03 25-Dec-2016

 --------------------------
 # td=(NStates=1) B3LYP/SVP
 --------------------------

 --
 TD
 --
 Symbolic Z-matrix:
 Charge =  0 Multiplicity = 1

                         Standard orientation:
 ---------------------------------------------------------------------
 Center     Atomic      Atomic             Coordinates (Angstroms)
 Number     Number       Type             X           Y           Z
 ---------------------------------------------------------------------
      1          8           0        5.535241   -0.043689   -3.215582
      2          8           0       -3.081050   -2.982127    3.043014
      3          8           0       -3.446134   -0.763805    3.125412
      4          8           0       -1.282113    7.155346    1.651238
      5          8           0       -0.505518    7.127018   -0.439183
      6          8           0       -1.856266   -4.044387   -0.127302
      7          7           0        2.478183    0.876081    0.573350
      8          7           0        4.419576   -0.493716   -1.330274
      9          7           0       -1.843536    0.741152   -0.392291
     10          7           0       -2.565967   -1.864488   -0.678348
     11          6           0        4.691067   -1.358332   -0.162561
     12          6           0        4.336325   -0.661036    1.248966
     13          6           0        2.951495   -0.176649    1.352002
     14          6           0        1.848603   -0.714535    2.056284
     15          6           0        0.754312   -0.035350    1.736492
     16          6           0        1.125967    0.866206    0.781336
     17          6           0        6.196553   -1.610445   -0.199049
     18          6           0       -0.733953   -0.212880    2.442041
     19          6           0        6.699763   -0.936223   -1.286805
     20          6           0        0.267668    2.017711    0.152924
     21          6           0       -0.956426    1.811950   -0.343848
     22          6           0        5.591666   -0.356849   -2.064311
     23          6           0       -1.851816    2.889710   -0.842090
     24          6           0        1.967232   -1.904635    2.985786
     25          6           0        6.904808   -2.201273    0.928365
     26          6           0       -3.111524    2.461073   -1.247452
     27          6           0       -1.254493   -1.615456    2.465796
     28          6           0       -3.040522    1.000642   -0.932997
     29          6           0       -1.445294    4.344652   -0.922241
     30          6           0        8.147038   -0.772904   -1.922729
     31          6           0       -1.550995    5.121514    0.430848
     32          6           0       -4.152313    3.104104   -1.861190
     33          6           0       -3.956692   -0.026747   -1.187446
     34          6           0       -2.674685   -1.706326    2.870262
     35          6           0       -3.799488   -1.403265   -1.147974
     36          6           0        9.259119   -0.795514   -1.130972
     37          6           0       -1.039317    6.512102    0.462152
     38          6           0       -4.729907   -2.484637   -1.481017
     39          6           0       -4.026192   -3.627529   -1.058207
     40          6           0       -2.646840   -3.327802   -0.575517
     41          6           0       -6.032831   -2.215742   -1.940374
     42          6           0       -4.555961   -5.046397   -1.185919
     43          6           0       -6.950759   -3.109075   -2.460542
     44          1           0        4.205668   -2.164417   -0.328505
     45          1           0        5.072595    0.170708    1.540408
     46          1           0        4.528281   -1.472673    1.946224
     47          1           0        3.104064    1.303246   -0.004643
     48          1           0        3.628864   -0.577147   -1.802462
     49          1           0       -0.399537    0.206133    3.456917
     50          1           0       -1.302371    0.532444    1.866925
     51          1           0        0.705562    3.028873    0.193402
     52          1           0        2.976863   -2.223921    3.205806
     53          1           0        1.394852   -1.807845    3.922119
     54          1           0        1.654060   -2.929592    2.656023
     55          1           0        6.193153   -3.076287    1.303237
     56          1           0        7.151429   -1.335718    1.819922
     57          1           0        7.976449   -2.694316    0.654636
     58          1           0       -1.318649   -1.946057    1.504468
     59          1           0       -0.777578   -2.187674    3.050417
     60          1           0       -1.591501   -0.240829   -0.382420
     61          1           0       -1.916256    5.062256   -1.622558
     62          1           0       -0.398834    4.317576   -1.239557
     63          1           0        8.246846   -0.652301   -3.119551
     64          1           0       -0.814813    4.704183    1.165126
     65          1           0       -2.628794    5.162667    0.701878
     66          1           0       -4.100735    4.278765   -1.776771
     67          1           0       -5.236337    2.755418   -1.419664
     68          1           0       -4.365719    3.029084   -2.950662
     69          1           0       -4.869181    0.429492   -1.712103
     70          1           0        9.233821   -1.061223   -0.106173
     71          1           0       10.152073   -0.775811   -1.695318
     72          1           0       -3.992958   -2.959414    3.530483
     73          1           0       -6.294228   -0.900001   -2.007073
     74          1           0       -5.566012   -5.287024   -0.884552
     75          1           0       -4.726842   -5.551420   -2.256148
     76          1           0       -3.826694   -5.620994   -0.617102
     77          1           0       -1.084380    8.094811    1.417276
     78          1           0       -7.973737   -2.879989   -3.049127
     79          1           0       -6.760133   -4.111419   -2.228781
 ---------------------------------------------------------------------

 SCF Done:  E(RB3LYP) =  -1947.81899942     A.U. after   16 cycles

 Excitation energies and oscillator strengths:

 Excited State   1:      Singlet-A      1.9056 eV  650.62 nm  f=0.2657  <S**2>=0.000
     153 ->156        -0.11354
     154 ->156         0.17582
     155 ->156         0.67183
 This state for optimization and/or second-order correction.
 Total Energy, E(TD-HF/TD-DFT) =  -1947.74896894
 Copying the excited state density for this state as the 1-particle RhoCI density.

 The electronic state is 1-A.
 Alpha  occ. eigenvalues --  -19.18253 -19.17167 -19.13218 -19.11632 -19.10505
 Alpha  occ. eigenvalues --  -19.09851 -14.37832 -14.36581 -14.34018 -14.28563
 Alpha  occ. eigenvalues --  -10.32496 -10.30346 -10.27919 -10.26904 -10.25319
 Alpha  occ. eigenvalues --  -10.24774 -10.24321 -10.24159 -10.23415 -10.22857
 Alpha  occ. eigenvalues --  -10.22827 -10.22688 -10.22580 -10.22457 -10.22154
 Alpha  occ. eigenvalues --  -10.21937 -10.21840 -10.21839 -10.21821 -10.21363
 Alpha  occ. eigenvalues --  -10.21302 -10.21153 -10.20898 -10.20616 -10.20579
 Alpha  occ. eigenvalues --  -10.20034 -10.19452 -10.19443 -10.19285 -10.19016
 Alpha  occ. eigenvalues --  -10.18029 -10.17944 -10.16914  -1.09749  -1.07070
 Alpha  occ. eigenvalues --   -1.05296  -1.03954  -1.00240  -0.99246  -0.98846
 Alpha  occ. eigenvalues --   -0.96895  -0.94082  -0.90201  -0.83410  -0.82492
 Alpha  occ. eigenvalues --   -0.82256  -0.81587  -0.79728  -0.79340  -0.78664
 Alpha  occ. eigenvalues --   -0.78376  -0.76538  -0.75638  -0.73783  -0.72854
 Alpha  occ. eigenvalues --   -0.72005  -0.71400  -0.69781  -0.68900  -0.68740
 Alpha  occ. eigenvalues --   -0.67161  -0.66317  -0.64037  -0.60881  -0.60365
 Alpha  occ. eigenvalues --   -0.59773  -0.59230  -0.58125  -0.57879  -0.57317
 Alpha  occ. eigenvalues --   -0.56717  -0.55458  -0.54989  -0.54222  -0.53278
 Alpha  occ. eigenvalues --   -0.52046  -0.51616  -0.51423  -0.50964  -0.50185
 Alpha  occ. eigenvalues --   -0.49705  -0.48783  -0.48444  -0.48371  -0.48021
 Alpha  occ. eigenvalues --   -0.47657  -0.47258  -0.46664  -0.46311  -0.45887
 Alpha  occ. eigenvalues --   -0.45502  -0.45459  -0.44821  -0.44535  -0.43858
 Alpha  occ. eigenvalues --   -0.43258  -0.43180  -0.43075  -0.42808  -0.42397
 Alpha  occ. eigenvalues --   -0.42146  -0.41623  -0.41417  -0.41338  -0.40805
 Alpha  occ. eigenvalues --   -0.40649  -0.40422  -0.40123  -0.39874  -0.39770
 Alpha  occ. eigenvalues --   -0.39211  -0.39146  -0.38887  -0.38528  -0.38361
 Alpha  occ. eigenvalues --   -0.38237  -0.37751  -0.37592  -0.37159  -0.36968
 Alpha  occ. eigenvalues --   -0.36693  -0.36326  -0.35709  -0.35221  -0.34786
 Alpha  occ. eigenvalues --   -0.34593  -0.33429  -0.32688  -0.32112  -0.31151
 Alpha  occ. eigenvalues --   -0.30666  -0.30114  -0.28656  -0.28505  -0.28328
 Alpha  occ. eigenvalues --   -0.27200  -0.26005  -0.25873  -0.25709  -0.25284
 Alpha  occ. eigenvalues --   -0.25089  -0.23817  -0.23072  -0.21310  -0.19422
 Alpha virt. eigenvalues --   -0.11263  -0.06941  -0.06037  -0.01270  -0.00318
 Alpha virt. eigenvalues --   -0.00024   0.01103   0.01768   0.02281   0.02402
 Alpha virt. eigenvalues --    0.03338   0.04248   0.04804   0.05169   0.05342

 Mulliken charges:
               1
     1  O   -0.202740
     2  O   -0.220056
     3  O   -0.268449
     4  O   -0.212175
     5  O   -0.231490
     6  O   -0.125191
     7  N   -0.016105
     8  N   -0.158159
     9  N   -0.047787
    10  N   -0.403948
    11  C    0.189733
    12  C    0.155567
    13  C   -0.118881
    14  C   -0.086483
    15  C   -0.104067
    16  C   -0.026963
    17  C   -0.164004
    18  C    0.092683
    19  C   -0.053795
    20  C   -0.135745
    21  C    0.206096
    22  C    0.107412
    23  C   -0.107625
    24  C    0.082999
    25  C   -0.056134
    26  C    0.020030
    27  C    0.243263
    28  C    0.025359
    29  C    0.058053
    30  C   -0.056721
    31  C    0.017978
    32  C   -0.046118
    33  C   -0.076318
    34  C    0.096652
    35  C    0.102120
    36  C    0.015239
    37  C    0.107783
    38  C    0.141424
    39  C   -0.206202
    40  C    0.193956
    41  C   -0.113363
    42  C    0.033312
    43  C   -0.046017
    44  H   -0.048365
    45  H    0.015768
    46  H   -0.015029
    47  H    0.083765
    48  H    0.080213
    49  H    0.025490
    50  H    0.017782
    51  H    0.019537
    52  H   -0.023531
    53  H    0.013699
    54  H    0.021030
    55  H    0.049793
    56  H    0.080582
    57  H    0.067161
    58  H    0.015293
    59  H   -0.055221
    60  H    0.137195
    61  H    0.020013
    62  H    0.008154
    63  H    0.069804
    64  H    0.047416
    65  H    0.055927
    66  H    0.027749
    67  H    0.047386
    68  H    0.044832
    69  H   -0.024342
    70  H    0.009689
    71  H    0.018722
    72  H    0.209906
    73  H    0.043938
    74  H    0.019301
    75  H    0.037113
    76  H    0.025092
    77  H    0.187114
    78  H    0.062730
    79  H   -0.000824
 Sum of Mulliken charges =  -0.00000

 Dipole moment (field-independent basis, Debye):
    X=              0.4874    Y=              0.6087    Z=              2.2679  Tot=              2.3982
 Quadrupole moment (field-independent basis, Debye-Ang):
   XX=           -217.5494   YY=           -245.6224   ZZ=           -263.1020
   XY=            -13.3743   XZ=             32.0694   YZ=             -0.6548

 Normal termination of Gaussian 16 at Wed Oct  9 12:20:05 2019.
