 Gaussian 16, Revision A.03,
 Gaussian 16:  ES64L-G16RevA.03 25-Dec-2016

 --------------------------
 # td=(NStates=1) B3LYP/SVP
 --------------------------

 --
 TD
 --
 Symbolic Z-matrix:
 Charge =  0 Multiplicity = 1

                         Standard orientation:
 ---------------------------------------------------------------------
 Center     Atomic      Atomic             Coordinates (Angstroms)
 Number     Number       Type             X           Y           Z
 ---------------------------------------------------------------------
      1          8           0        5.439411   -0.237407   -3.248387
      2          8           0       -3.051308   -2.860613    3.135297
      3          8           0       -3.299483   -0.578187    3.093425
      4          8           0       -1.760194    7.079277    1.431360
      5          8           0       -0.434566    6.874488   -0.344818
      6          8           0       -1.765533   -4.006183    0.071741
      7          7           0        2.336228    0.948245    0.463540
      8          7           0        4.445214   -0.627175   -1.224620
      9          7           0       -1.889788    0.653384   -0.418062
     10          7           0       -2.548843   -1.885429   -0.532297
     11          6           0        4.819024   -1.199337    0.086889
     12          6           0        4.396842   -0.293517    1.314283
     13          6           0        2.967326   -0.035833    1.291636
     14          6           0        1.959971   -0.569469    2.066496
     15          6           0        0.791436    0.093873    1.784635
     16          6           0        0.919709    0.991317    0.780246
     17          6           0        6.399683   -1.222287   -0.050043
     18          6           0       -0.611207   -0.163467    2.584380
     19          6           0        6.767347   -0.762114   -1.296196
     20          6           0        0.125689    2.017583    0.042971
     21          6           0       -1.147841    1.938315   -0.351218
     22          6           0        5.492687   -0.475287   -2.104851
     23          6           0       -2.028002    2.946492   -0.977656
     24          6           0        2.164595   -1.679204    3.169139
     25          6           0        7.212071   -1.869743    1.001835
     26          6           0       -3.107953    2.262225   -1.430354
     27          6           0       -1.220616   -1.540568    2.518662
     28          6           0       -3.063647    0.903495   -1.069333
     29          6           0       -1.727483    4.372095   -1.036414
     30          6           0        8.029912   -0.700314   -1.974648
     31          6           0       -1.809663    5.047033    0.360430
     32          6           0       -4.422285    2.948717   -1.984646
     33          6           0       -3.947621   -0.075089   -1.326889
     34          6           0       -2.720285   -1.585578    2.953409
     35          6           0       -3.664741   -1.457838   -1.102598
     36          6           0        9.355107   -0.838568   -1.512325
     37          6           0       -1.372491    6.402989    0.410169
     38          6           0       -4.575705   -2.668257   -1.410807
     39          6           0       -3.955826   -3.797694   -1.053186
     40          6           0       -2.696471   -3.401566   -0.339757
     41          6           0       -5.864272   -2.498956   -2.056119
     42          6           0       -4.364337   -5.242568   -1.064457
     43          6           0       -6.613246   -3.427549   -2.471302
     44          1           0        4.724131   -2.263083    0.429208
     45          1           0        4.924778    0.646201    1.096898
     46          1           0        4.446355   -0.776753    2.352603
     47          1           0        2.723933    1.507736   -0.192931
     48          1           0        3.598963   -0.686973   -1.685055
     49          1           0       -0.615963    0.124855    3.617557
     50          1           0       -1.277618    0.476736    1.975525
     51          1           0        0.584337    2.943895   -0.337510
     52          1           0        3.288310   -1.968998    3.021928
     53          1           0        1.941154   -1.354264    4.245929
     54          1           0        1.655405   -2.588335    2.866554
     55          1           0        6.558057   -2.734858    1.285225
     56          1           0        7.646020   -1.349516    1.836910
     57          1           0        7.949037   -2.355810    0.621866
     58          1           0       -1.158385   -2.100760    1.559612
     59          1           0       -0.665784   -2.336165    3.137417
     60          1           0       -1.684489   -0.354470   -0.214033
     61          1           0       -2.329438    4.950318   -1.753399
     62          1           0       -0.784386    4.471209   -1.495407
     63          1           0        7.933985   -0.530645   -3.025997
     64          1           0       -1.291871    4.223887    1.085497
     65          1           0       -2.718746    4.958976    0.519049
     66          1           0       -4.037941    3.833531   -2.562005
     67          1           0       -5.087589    3.023413   -0.989134
     68          1           0       -5.032980    2.260669   -2.658886
     69          1           0       -4.851472    0.138599   -1.864049
     70          1           0        9.608528   -0.796349   -0.580799
     71          1           0       10.163465   -0.738800   -1.947463
     72          1           0       -4.076987   -2.869926    3.377024
     73          1           0       -6.153115   -1.492069   -2.133420
     74          1           0       -5.357802   -5.389218   -0.679735
     75          1           0       -4.494673   -5.787322   -2.178499
     76          1           0       -3.580257   -5.751580   -0.647230
     77          1           0       -1.091994    7.875980    1.462906
     78          1           0       -7.500405   -3.045050   -2.580305
     79          1           0       -6.307094   -4.475208   -2.609017
 ---------------------------------------------------------------------

 SCF Done:  E(RB3LYP) =  -1947.79004361     A.U. after   16 cycles

 Excitation energies and oscillator strengths:

 Excited State   1:      Singlet-A      2.1173 eV  585.59 nm  f=0.3574  <S**2>=0.000
     155 ->156         0.70092
 This state for optimization and/or second-order correction.
 Total Energy, E(TD-HF/TD-DFT) =  -1947.71223596
 Copying the excited state density for this state as the 1-particle RhoCI density.

 The electronic state is 1-A.
 Alpha  occ. eigenvalues --  -19.20575 -19.18555 -19.12580 -19.11830 -19.11646
 Alpha  occ. eigenvalues --  -19.10817 -14.36135 -14.35344 -14.34838 -14.29299
 Alpha  occ. eigenvalues --  -10.32513 -10.30249 -10.28313 -10.27960 -10.25699
 Alpha  occ. eigenvalues --  -10.24060 -10.23131 -10.23033 -10.22382 -10.22043
 Alpha  occ. eigenvalues --  -10.22020 -10.21999 -10.21508 -10.21462 -10.20997
 Alpha  occ. eigenvalues --  -10.20594 -10.20504 -10.20474 -10.20432 -10.20354
 Alpha  occ. eigenvalues --  -10.20144 -10.20095 -10.20080 -10.19710 -10.19158
 Alpha  occ. eigenvalues --  -10.19087 -10.18100 -10.18098 -10.18052 -10.18036
 Alpha  occ. eigenvalues --  -10.17830 -10.17431 -10.16965  -1.12023  -1.09031
 Alpha  occ. eigenvalues --   -1.05420  -1.04511  -1.01591  -0.97065  -0.96198
 Alpha  occ. eigenvalues --   -0.95588  -0.93784  -0.90681  -0.83982  -0.82297
 Alpha  occ. eigenvalues --   -0.82038  -0.80949  -0.80009  -0.79127  -0.79061
 Alpha  occ. eigenvalues --   -0.77592  -0.76412  -0.74809  -0.74685  -0.72172
 Alpha  occ. eigenvalues --   -0.71915  -0.70801  -0.70426  -0.68622  -0.68278
 Alpha  occ. eigenvalues --   -0.65933  -0.65379  -0.64107  -0.62638  -0.61639
 Alpha  occ. eigenvalues --   -0.60359  -0.58301  -0.58069  -0.57285  -0.56497
 Alpha  occ. eigenvalues --   -0.56095  -0.55824  -0.54773  -0.54276  -0.53412
 Alpha  occ. eigenvalues --   -0.52978  -0.51800  -0.51194  -0.50612  -0.50376
 Alpha  occ. eigenvalues --   -0.49524  -0.48754  -0.48295  -0.47939  -0.47628
 Alpha  occ. eigenvalues --   -0.47444  -0.47185  -0.46656  -0.46426  -0.45616
 Alpha  occ. eigenvalues --   -0.45136  -0.44896  -0.44579  -0.44324  -0.43938
 Alpha  occ. eigenvalues --   -0.43724  -0.43622  -0.43153  -0.42874  -0.42670
 Alpha  occ. eigenvalues --   -0.42569  -0.42304  -0.42080  -0.41629  -0.41109
 Alpha  occ. eigenvalues --   -0.40848  -0.40501  -0.40201  -0.39776  -0.39585
 Alpha  occ. eigenvalues --   -0.39457  -0.39124  -0.38902  -0.38543  -0.38397
 Alpha  occ. eigenvalues --   -0.38246  -0.38069  -0.37687  -0.37200  -0.36408
 Alpha  occ. eigenvalues --   -0.36279  -0.36160  -0.35564  -0.35423  -0.34913
 Alpha  occ. eigenvalues --   -0.33763  -0.32637  -0.32408  -0.31952  -0.31423
 Alpha  occ. eigenvalues --   -0.31128  -0.31014  -0.29168  -0.28167  -0.27739
 Alpha  occ. eigenvalues --   -0.27537  -0.26577  -0.26179  -0.25849  -0.24636
 Alpha  occ. eigenvalues --   -0.24530  -0.24031  -0.23012  -0.22397  -0.18929
 Alpha virt. eigenvalues --   -0.10223  -0.06305  -0.05987  -0.03048   0.00181
 Alpha virt. eigenvalues --    0.01260   0.01442   0.03038   0.03183   0.03554
 Alpha virt. eigenvalues --    0.03817   0.03961   0.05042   0.05349   0.05927

 Mulliken charges:
               1
     1  O   -0.160417
     2  O   -0.200864
     3  O   -0.183009
     4  O   -0.141224
     5  O   -0.327414
     6  O   -0.149503
     7  N   -0.127711
     8  N   -0.161710
     9  N   -0.156990
    10  N   -0.348241
    11  C    0.082114
    12  C    0.227746
    13  C   -0.082510
    14  C   -0.129172
    15  C   -0.117906
    16  C    0.096320
    17  C   -0.222941
    18  C    0.162658
    19  C   -0.019978
    20  C   -0.084839
    21  C    0.103856
    22  C    0.106081
    23  C   -0.070590
    24  C    0.077524
    25  C    0.209776
    26  C   -0.160889
    27  C   -0.098498
    28  C    0.169212
    29  C    0.123644
    30  C   -0.037520
    31  C    0.091920
    32  C    0.035857
    33  C   -0.106342
    34  C    0.126305
    35  C    0.075334
    36  C    0.117902
    37  C    0.145062
    38  C    0.063258
    39  C   -0.212738
    40  C    0.172418
    41  C   -0.024367
    42  C    0.092576
    43  C    0.091486
    44  H    0.023274
    45  H   -0.016839
    46  H    0.028560
    47  H    0.069333
    48  H    0.104003
    49  H   -0.002732
    50  H    0.002802
    51  H   -0.001109
    52  H   -0.009739
    53  H    0.048961
    54  H    0.036312
    55  H   -0.005319
    56  H    0.038329
    57  H   -0.047114
    58  H    0.056554
    59  H    0.012398
    60  H    0.163967
    61  H   -0.006395
    62  H    0.005387
    63  H   -0.000219
    64  H    0.092545
    65  H   -0.060310
    66  H    0.044611
    67  H    0.063258
    68  H    0.032860
    69  H   -0.054752
    70  H   -0.049187
    71  H   -0.060481
    72  H    0.202317
    73  H   -0.037987
    74  H    0.027843
    75  H    0.036783
    76  H    0.005159
    77  H    0.221823
    78  H   -0.027820
    79  H    0.017245
 Sum of Mulliken charges =  -0.00000

 Dipole moment (field-independent basis, Debye):
    X=             -2.3840    Y=              0.4251    Z=              2.9337  Tot=              3.8040
 Quadrupole moment (field-independent basis, Debye-Ang):
   XX=           -215.6917   YY=           -241.8606   ZZ=           -259.7619
   XY=             -2.5227   XZ=             30.5652   YZ=              3.3516

 Normal termination of Gaussian 16 at Sun Sep 29 12:46:58 2019.
