 Gaussian 16, Revision A.03,
 Gaussian 16:  ES64L-G16RevA.03 25-Dec-2016

 --------------------------
 # td=(NStates=1) B3LYP/SVP
 --------------------------

 --
 TD
 --
 Symbolic Z-matrix:
 Charge =  0 Multiplicity = 1

                         Standard orientation:
 ---------------------------------------------------------------------
 Center     Atomic      Atomic             Coordinates (Angstroms)
 Number     Number       Type             X           Y           Z
 ---------------------------------------------------------------------
      1          8           0        5.445223   -0.284849   -3.310852
      2          8           0       -3.135532   -2.753153    3.359552
      3          8           0       -3.394978   -0.620726    2.850596
      4          8           0       -1.442927    7.071360    1.663303
      5          8           0       -0.888958    7.219333   -0.615541
      6          8           0       -1.677330   -3.940534   -0.083607
      7          7           0        2.349868    0.902975    0.545471
      8          7           0        4.399823   -0.549307   -1.229312
      9          7           0       -1.719640    0.628551   -0.614998
     10          7           0       -2.665906   -1.868964   -0.544420
     11          6           0        4.857262   -1.114297    0.131403
     12          6           0        4.430096   -0.340223    1.307346
     13          6           0        2.982213   -0.085817    1.308489
     14          6           0        1.972860   -0.691102    2.064862
     15          6           0        0.706565   -0.133984    1.667882
     16          6           0        0.987697    0.880941    0.683135
     17          6           0        6.361079   -1.361615   -0.090479
     18          6           0       -0.529980   -0.235716    2.471518
     19          6           0        6.707621   -0.938472   -1.356568
     20          6           0        0.203700    1.862161    0.093169
     21          6           0       -1.038700    1.805839   -0.411474
     22          6           0        5.528288   -0.508463   -2.101316
     23          6           0       -1.917996    2.845275   -0.923893
     24          6           0        2.102506   -1.748385    3.124804
     25          6           0        7.113233   -1.929801    0.988755
     26          6           0       -3.103911    2.396242   -1.343675
     27          6           0       -1.220120   -1.705467    2.461414
     28          6           0       -3.080895    0.865195   -1.120604
     29          6           0       -1.491382    4.361661   -0.941707
     30          6           0        8.117711   -0.827687   -2.000060
     31          6           0       -1.499492    5.074002    0.418614
     32          6           0       -4.335115    3.081964   -1.806098
     33          6           0       -3.974291   -0.093382   -1.400762
     34          6           0       -2.641204   -1.571832    2.846502
     35          6           0       -3.844521   -1.528697   -1.037502
     36          6           0        9.229301   -0.752161   -1.447634
     37          6           0       -1.210709    6.601498    0.463292
     38          6           0       -4.645936   -2.589642   -1.389952
     39          6           0       -4.033571   -3.751977   -1.085542
     40          6           0       -2.656545   -3.289985   -0.485143
     41          6           0       -5.946107   -2.485209   -1.969433
     42          6           0       -4.423281   -5.183019   -1.111187
     43          6           0       -6.962348   -3.322921   -2.264266
     44          1           0        4.342831   -2.135201    0.238619
     45          1           0        5.058954    0.814452    1.484957
     46          1           0        4.828340   -1.071134    2.181751
     47          1           0        2.700877    1.524207    0.021753
     48          1           0        3.386245   -0.614095   -1.575691
     49          1           0       -0.286479    0.294494    3.293300
     50          1           0       -1.368731    0.412948    2.071446
     51          1           0        0.829609    2.829246    0.016221
     52          1           0        3.198098   -2.198465    3.406247
     53          1           0        1.643056   -1.452190    4.139342
     54          1           0        1.615491   -2.696855    2.889425
     55          1           0        6.442014   -2.585765    1.645322
     56          1           0        7.465271   -1.240236    1.895331
     57          1           0        7.846639   -2.626946    0.790845
     58          1           0       -1.319956   -2.264128    1.631130
     59          1           0       -0.594358   -2.386335    3.159848
     60          1           0       -1.601953   -0.307326   -0.302657
     61          1           0       -1.974553    5.029948   -1.662423
     62          1           0       -0.392875    4.501707   -1.466165
     63          1           0        8.058743   -1.099732   -3.151978
     64          1           0       -0.868120    4.420131    1.209936
     65          1           0       -2.481439    4.907998    0.669194
     66          1           0       -4.215211    4.125100   -1.665348
     67          1           0       -5.331953    2.758854   -1.253319
     68          1           0       -4.420497    2.803780   -3.057851
     69          1           0       -4.869203    0.238032   -1.748570
     70          1           0        9.261981   -0.493565   -0.361564
     71          1           0       10.349368   -0.591784   -1.783959
     72          1           0       -4.137824   -2.671261    3.405549
     73          1           0       -6.175436   -1.381282   -2.009697
     74          1           0       -5.226612   -5.281641   -0.380055
     75          1           0       -4.621321   -5.244920   -2.219554
     76          1           0       -3.540605   -5.872866   -0.860619
     77          1           0       -1.264639    8.087602    1.662593
     78          1           0       -7.957792   -3.021911   -2.744643
     79          1           0       -6.635144   -4.344625   -2.036842
 ---------------------------------------------------------------------

 SCF Done:  E(RB3LYP) =  -1947.81311630     A.U. after   16 cycles

 Excitation energies and oscillator strengths:

 Excited State   1:      Singlet-A      1.8535 eV  668.92 nm  f=0.3522  <S**2>=0.000
     155 ->156         0.70598
     155 <-156        -0.11826
 This state for optimization and/or second-order correction.
 Total Energy, E(TD-HF/TD-DFT) =  -1947.74500124
 Copying the excited state density for this state as the 1-particle RhoCI density.

 The electronic state is 1-A.
 Alpha  occ. eigenvalues --  -19.21822 -19.15863 -19.13236 -19.12166 -19.11437
 Alpha  occ. eigenvalues --  -19.09375 -14.37111 -14.35300 -14.34768 -14.29504
 Alpha  occ. eigenvalues --  -10.33909 -10.30623 -10.28148 -10.27810 -10.25262
 Alpha  occ. eigenvalues --  -10.24770 -10.24052 -10.23923 -10.23842 -10.23247
 Alpha  occ. eigenvalues --  -10.22750 -10.22391 -10.22312 -10.21472 -10.21450
 Alpha  occ. eigenvalues --  -10.21352 -10.21336 -10.21334 -10.21326 -10.21066
 Alpha  occ. eigenvalues --  -10.20916 -10.20849 -10.20728 -10.20408 -10.20380
 Alpha  occ. eigenvalues --  -10.20341 -10.19824 -10.19382 -10.19322 -10.19297
 Alpha  occ. eigenvalues --  -10.18969 -10.18921 -10.18827  -1.11205  -1.07235
 Alpha  occ. eigenvalues --   -1.01404  -1.00662  -0.99022  -0.98799  -0.97775
 Alpha  occ. eigenvalues --   -0.95993  -0.93547  -0.91182  -0.82224  -0.81968
 Alpha  occ. eigenvalues --   -0.81826  -0.81630  -0.81315  -0.79855  -0.77983
 Alpha  occ. eigenvalues --   -0.77404  -0.76756  -0.76326  -0.75385  -0.72640
 Alpha  occ. eigenvalues --   -0.72078  -0.71507  -0.70892  -0.69609  -0.68088
 Alpha  occ. eigenvalues --   -0.67767  -0.65798  -0.63890  -0.60873  -0.60253
 Alpha  occ. eigenvalues --   -0.59241  -0.58468  -0.58265  -0.57531  -0.56968
 Alpha  occ. eigenvalues --   -0.56042  -0.55877  -0.55245  -0.53721  -0.53243
 Alpha  occ. eigenvalues --   -0.52190  -0.51667  -0.50394  -0.49903  -0.49544
 Alpha  occ. eigenvalues --   -0.49417  -0.48734  -0.48326  -0.47626  -0.47190
 Alpha  occ. eigenvalues --   -0.46843  -0.46554  -0.46287  -0.46174  -0.46081
 Alpha  occ. eigenvalues --   -0.45333  -0.45213  -0.44616  -0.44214  -0.44059
 Alpha  occ. eigenvalues --   -0.43496  -0.43061  -0.42959  -0.42672  -0.42414
 Alpha  occ. eigenvalues --   -0.42108  -0.41747  -0.41667  -0.41469  -0.40758
 Alpha  occ. eigenvalues --   -0.40471  -0.40366  -0.40196  -0.40058  -0.39807
 Alpha  occ. eigenvalues --   -0.39199  -0.39179  -0.39071  -0.38518  -0.38148
 Alpha  occ. eigenvalues --   -0.37903  -0.37684  -0.37516  -0.37231  -0.37087
 Alpha  occ. eigenvalues --   -0.35695  -0.35633  -0.35181  -0.34172  -0.33773
 Alpha  occ. eigenvalues --   -0.32963  -0.32521  -0.32323  -0.31624  -0.31326
 Alpha  occ. eigenvalues --   -0.30932  -0.30486  -0.28818  -0.28651  -0.28172
 Alpha  occ. eigenvalues --   -0.26758  -0.26174  -0.25595  -0.25420  -0.24903
 Alpha  occ. eigenvalues --   -0.24667  -0.24470  -0.24132  -0.22935  -0.18725
 Alpha virt. eigenvalues --   -0.11513  -0.06373  -0.05778  -0.01733  -0.01208
 Alpha virt. eigenvalues --    0.00603   0.01395   0.01727   0.01797   0.02300
 Alpha virt. eigenvalues --    0.03433   0.03554   0.04716   0.04965   0.05142

 Mulliken charges:
               1
     1  O   -0.233963
     2  O   -0.237004
     3  O   -0.234891
     4  O   -0.158243
     5  O   -0.292773
     6  O   -0.212976
     7  N    0.020710
     8  N   -0.292409
     9  N   -0.118918
    10  N   -0.283551
    11  C    0.073211
    12  C    0.066260
    13  C   -0.031374
    14  C   -0.080073
    15  C   -0.087972
    16  C    0.033976
    17  C   -0.095190
    18  C    0.071127
    19  C   -0.075953
    20  C   -0.147555
    21  C    0.171118
    22  C    0.179026
    23  C   -0.054181
    24  C    0.012128
    25  C    0.059456
    26  C   -0.079636
    27  C    0.085144
    28  C    0.107943
    29  C    0.006961
    30  C    0.042660
    31  C    0.000505
    32  C    0.028073
    33  C   -0.036363
    34  C    0.121635
    35  C    0.103810
    36  C   -0.090175
    37  C    0.177094
    38  C    0.074665
    39  C   -0.256659
    40  C    0.169652
    41  C   -0.057455
    42  C    0.087334
    43  C   -0.027536
    44  H    0.036142
    45  H    0.033466
    46  H    0.023152
    47  H    0.025210
    48  H    0.160024
    49  H   -0.010217
    50  H    0.020993
    51  H    0.010669
    52  H    0.012588
    53  H    0.032844
    54  H    0.037054
    55  H    0.006756
    56  H    0.053278
    57  H    0.013969
    58  H    0.003275
    59  H    0.040795
    60  H    0.123198
    61  H    0.013021
    62  H    0.026677
    63  H    0.044086
    64  H    0.056904
    65  H    0.010182
    66  H    0.011521
    67  H    0.060598
    68  H    0.059294
    69  H   -0.078878
    70  H    0.010890
    71  H    0.050546
    72  H    0.188487
    73  H   -0.013541
    74  H    0.053685
    75  H    0.056543
    76  H    0.046961
    77  H    0.220401
    78  H    0.052395
    79  H   -0.000603
 Sum of Mulliken charges =  -0.00000

 Dipole moment (field-independent basis, Debye):
    X=             -0.9677    Y=              1.4693    Z=              4.7512  Tot=              5.0664
 Quadrupole moment (field-independent basis, Debye-Ang):
   XX=           -216.4987   YY=           -237.8054   ZZ=           -267.2186
   XY=             -6.5682   XZ=             34.9828   YZ=             12.3616

 Normal termination of Gaussian 16 at Sun Sep 22 05:04:19 2019.
