 Gaussian 16, Revision A.03,
 Gaussian 16:  ES64L-G16RevA.03 25-Dec-2016

 --------------------------
 # td=(NStates=1) B3LYP/SVP
 --------------------------

 --
 TD
 --
 Symbolic Z-matrix:
 Charge =  0 Multiplicity = 1

                         Standard orientation:
 ---------------------------------------------------------------------
 Center     Atomic      Atomic             Coordinates (Angstroms)
 Number     Number       Type             X           Y           Z
 ---------------------------------------------------------------------
      1          8           0       -3.271976   -0.957344   -2.916186
      2          8           0        3.175946    2.642563    3.557459
      3          8           0        3.767330    0.664718    4.668779
      4          8           0        7.597549   -1.214197   -1.073545
      5          8           0        6.577655   -2.685525   -2.357219
      6          8           0       -2.719628    1.375736    1.642437
      7          7           0       -0.236295   -2.528725    0.545859
      8          7           0       -2.601792   -1.150551   -0.739583
      9          7           0        1.181680    0.169931   -0.806063
     10          7           0       -1.096727    1.460730    0.050019
     11          6           0       -3.392111   -1.469218    0.539889
     12          6           0       -2.594704   -2.629981    1.276605
     13          6           0       -1.145472   -2.246984    1.468302
     14          6           0       -0.460372   -1.717618    2.648589
     15          6           0        0.872497   -1.535873    2.236638
     16          6           0        1.016985   -1.972040    0.945850
     17          6           0       -4.775210   -1.810284    0.036561
     18          6           0        1.970876   -0.927352    3.042043
     19          6           0       -4.818870   -1.715720   -1.284649
     20          6           0        2.139612   -1.862506   -0.017141
     21          6           0        2.136651   -0.788174   -0.816857
     22          6           0       -3.461959   -1.244378   -1.768190
     23          6           0        2.987848   -0.329966   -1.940621
     24          6           0       -1.223833   -1.264787    3.863868
     25          6           0       -5.797732   -2.207247    1.054943
     26          6           0        2.454076    0.850170   -2.451778
     27          6           0        2.016715    0.649082    3.023091
     28          6           0        1.312350    1.195910   -1.726603
     29          6           0        4.226747   -1.088391   -2.377894
     30          6           0       -5.825732   -2.125713   -2.237216
     31          6           0        5.426246   -0.853084   -1.377056
     32          6           0        3.047146    1.654919   -3.619043
     33          6           0        0.427302    2.263248   -1.750688
     34          6           0        3.101818    1.277995    3.829847
     35          6           0       -0.627167    2.398006   -0.848630
     36          6           0       -6.794542   -3.071177   -2.109980
     37          6           0        6.545976   -1.752672   -1.632232
     38          6           0       -1.471278    3.568726   -0.771198
     39          6           0       -2.417699    3.370620    0.285338
     40          6           0       -2.165297    1.986503    0.747607
     41          6           0       -1.281080    4.861521   -1.528725
     42          6           0       -3.498215    4.261796    0.760505
     43          6           0       -2.037813    5.971713   -1.431215
     44          1           0       -3.463802   -0.759463    1.235565
     45          1           0       -2.580837   -3.418746    0.551015
     46          1           0       -3.069558   -2.963927    2.212429
     47          1           0       -0.262523   -2.843304   -0.426559
     48          1           0       -1.984822   -0.409459   -0.847280
     49          1           0        2.258709   -1.252659    4.135227
     50          1           0        2.729376   -1.306730    2.632618
     51          1           0        2.797889   -2.691852   -0.183686
     52          1           0       -1.905305   -1.918037    4.478489
     53          1           0       -0.382494   -0.843070    4.569856
     54          1           0       -1.914166   -0.443160    3.604259
     55          1           0       -5.572850   -1.481818    1.824738
     56          1           0       -5.771756   -3.190563    1.576588
     57          1           0       -6.699767   -2.100799    0.519125
     58          1           0        2.174819    0.823785    1.953464
     59          1           0        1.094542    1.141041    3.242588
     60          1           0        0.289047    0.141288   -0.130834
     61          1           0        4.719756   -0.581836   -3.285239
     62          1           0        3.925438   -2.159638   -2.531791
     63          1           0       -5.820060   -1.865013   -3.397478
     64          1           0        5.119467   -1.205333   -0.272545
     65          1           0        5.703381    0.239578   -1.310768
     66          1           0        3.736771    1.104876   -4.222971
     67          1           0        3.532702    2.578712   -3.114980
     68          1           0        2.423249    2.031362   -4.356067
     69          1           0        0.543149    3.066877   -2.570131
     70          1           0       -7.137753   -3.588499   -1.129965
     71          1           0       -7.385152   -3.351678   -3.026817
     72          1           0        3.965102    2.771975    3.927052
     73          1           0       -0.492615    4.939054   -2.270439
     74          1           0       -4.267228    4.446408    0.031869
     75          1           0       -3.857293    3.720369    1.685301
     76          1           0       -3.307552    5.417128    0.956828
     77          1           0        8.520417   -1.648519   -1.221539
     78          1           0       -1.854456    6.925250   -2.043864
     79          1           0       -2.909447    6.226848   -0.739227
 ---------------------------------------------------------------------

 SCF Done:  E(RB3LYP) =  -1947.89873789     A.U. after   17 cycles

 Excitation energies and oscillator strengths:

 Excited State   1:      Singlet-A      0.8726 eV 1420.82 nm  f=0.0029  <S**2>=0.000
     155 ->156         0.70449
 This state for optimization and/or second-order correction.
 Total Energy, E(TD-HF/TD-DFT) =  -1947.86666960
 Copying the excited state density for this state as the 1-particle RhoCI density.

 The electronic state is 1-A.
 Alpha  occ. eigenvalues --  -19.19079 -19.17918 -19.13534 -19.12923 -19.12038
 Alpha  occ. eigenvalues --  -19.07696 -14.37195 -14.37112 -14.32494 -14.30332
 Alpha  occ. eigenvalues --  -10.32393 -10.32261 -10.27785 -10.26599 -10.25749
 Alpha  occ. eigenvalues --  -10.25250 -10.25133 -10.23221 -10.22929 -10.22876
 Alpha  occ. eigenvalues --  -10.22707 -10.22306 -10.21797 -10.21790 -10.21724
 Alpha  occ. eigenvalues --  -10.21620 -10.21373 -10.21325 -10.21228 -10.20692
 Alpha  occ. eigenvalues --  -10.20460 -10.20394 -10.19743 -10.19513 -10.19434
 Alpha  occ. eigenvalues --  -10.19322 -10.19137 -10.18871 -10.18138 -10.17980
 Alpha  occ. eigenvalues --  -10.17592 -10.17327 -10.16806  -1.11493  -1.10154
 Alpha  occ. eigenvalues --   -1.03229  -1.02220  -1.01536  -1.00998  -1.00040
 Alpha  occ. eigenvalues --   -0.96822  -0.92831  -0.91633  -0.83517  -0.82941
 Alpha  occ. eigenvalues --   -0.81352  -0.80612  -0.80317  -0.78921  -0.78284
 Alpha  occ. eigenvalues --   -0.76811  -0.76035  -0.75582  -0.74433  -0.73244
 Alpha  occ. eigenvalues --   -0.71196  -0.70533  -0.70391  -0.69927  -0.67718
 Alpha  occ. eigenvalues --   -0.67160  -0.66351  -0.63326  -0.61707  -0.60862
 Alpha  occ. eigenvalues --   -0.59399  -0.58693  -0.58428  -0.57506  -0.56760
 Alpha  occ. eigenvalues --   -0.56195  -0.56035  -0.54990  -0.53916  -0.53344
 Alpha  occ. eigenvalues --   -0.51669  -0.51583  -0.51011  -0.50482  -0.49629
 Alpha  occ. eigenvalues --   -0.49425  -0.49064  -0.48592  -0.48503  -0.48206
 Alpha  occ. eigenvalues --   -0.47770  -0.47140  -0.46966  -0.46643  -0.45716
 Alpha  occ. eigenvalues --   -0.45445  -0.45028  -0.44342  -0.44138  -0.43973
 Alpha  occ. eigenvalues --   -0.43416  -0.43214  -0.42879  -0.42698  -0.42551
 Alpha  occ. eigenvalues --   -0.42042  -0.41890  -0.41477  -0.41378  -0.40762
 Alpha  occ. eigenvalues --   -0.40524  -0.40328  -0.40203  -0.39721  -0.39300
 Alpha  occ. eigenvalues --   -0.39220  -0.39097  -0.38760  -0.38312  -0.38259
 Alpha  occ. eigenvalues --   -0.37734  -0.37616  -0.37575  -0.37303  -0.36690
 Alpha  occ. eigenvalues --   -0.36335  -0.35750  -0.35329  -0.34945  -0.34289
 Alpha  occ. eigenvalues --   -0.33563  -0.33447  -0.32869  -0.32621  -0.31983
 Alpha  occ. eigenvalues --   -0.31020  -0.30019  -0.29488  -0.29136  -0.28574
 Alpha  occ. eigenvalues --   -0.28288  -0.26750  -0.25928  -0.25377  -0.23885
 Alpha  occ. eigenvalues --   -0.23385  -0.23169  -0.22680  -0.22384  -0.18887
 Alpha virt. eigenvalues --   -0.13235  -0.07840  -0.03611  -0.01404  -0.00806
 Alpha virt. eigenvalues --    0.00246   0.01930   0.02267   0.02923   0.03229
 Alpha virt. eigenvalues --    0.04261   0.04669   0.05079   0.05413   0.05597

 Mulliken charges:
               1
     1  O   -0.215834
     2  O   -0.141960
     3  O   -0.239056
     4  O   -0.203315
     5  O   -0.192117
     6  O   -0.191686
     7  N   -0.040215
     8  N   -0.170101
     9  N   -0.158784
    10  N   -0.316887
    11  C    0.095348
    12  C    0.237852
    13  C   -0.109528
    14  C   -0.087080
    15  C   -0.070153
    16  C   -0.071141
    17  C   -0.146804
    18  C    0.151116
    19  C   -0.004820
    20  C   -0.133427
    21  C    0.168311
    22  C    0.089062
    23  C   -0.091143
    24  C    0.020718
    25  C    0.114469
    26  C   -0.115495
    27  C    0.024477
    28  C    0.155660
    29  C    0.092840
    30  C   -0.058410
    31  C   -0.081174
    32  C    0.118236
    33  C   -0.148777
    34  C    0.145712
    35  C    0.142550
    36  C   -0.100755
    37  C    0.117248
    38  C    0.027304
    39  C   -0.166062
    40  C    0.158783
    41  C    0.030812
    42  C    0.035595
    43  C   -0.089274
    44  H   -0.001014
    45  H   -0.039205
    46  H   -0.001355
    47  H    0.122201
    48  H    0.113099
    49  H    0.026502
    50  H   -0.090077
    51  H    0.002400
    52  H    0.011798
    53  H    0.018964
    54  H    0.034821
    55  H    0.012928
    56  H    0.040032
    57  H    0.018304
    58  H    0.020765
    59  H    0.042177
    60  H    0.229583
    61  H    0.025064
    62  H    0.050279
    63  H    0.037667
    64  H    0.060653
    65  H    0.056942
    66  H    0.009968
    67  H    0.039798
    68  H    0.007721
    69  H    0.015984
    70  H    0.023688
    71  H    0.030477
    72  H    0.116866
    73  H   -0.010691
    74  H    0.030902
    75  H    0.044221
    76  H    0.043344
    77  H    0.215005
    78  H    0.033698
    79  H    0.024395
 Sum of Mulliken charges =  -0.00000

 Dipole moment (field-independent basis, Debye):
    X=              4.1967    Y=              3.1510    Z=             -1.7911  Tot=              5.5452
 Quadrupole moment (field-independent basis, Debye-Ang):
   XX=           -223.3826   YY=           -235.2136   ZZ=           -272.8538
   XY=              7.5625   XZ=            -22.4231   YZ=            -11.7087

 Normal termination of Gaussian 16 at Wed Jul 24 22:16:27 2019.
