 Gaussian 16, Revision A.03,
 Gaussian 16:  ES64L-G16RevA.03 25-Dec-2016

 --------------------------
 # td=(NStates=1) B3LYP/SVP
 --------------------------

 --
 TD
 --
 Symbolic Z-matrix:
 Charge =  0 Multiplicity = 1

                         Standard orientation:
 ---------------------------------------------------------------------
 Center     Atomic      Atomic             Coordinates (Angstroms)
 Number     Number       Type             X           Y           Z
 ---------------------------------------------------------------------
      1          8           0       -3.306793   -0.801296   -2.906343
      2          8           0        3.393956    2.472661    3.563238
      3          8           0        3.343271    0.481259    4.954787
      4          8           0        7.723589   -1.471086   -0.866452
      5          8           0        6.662063   -2.270559   -2.757184
      6          8           0       -2.720877    1.294035    1.722614
      7          7           0       -0.295535   -2.524768    0.462883
      8          7           0       -2.647395   -1.032018   -0.827054
      9          7           0        1.115889    0.129454   -0.764424
     10          7           0       -1.160787    1.421448    0.013763
     11          6           0       -3.349840   -1.469147    0.446135
     12          6           0       -2.629200   -2.618321    1.118224
     13          6           0       -1.191786   -2.346919    1.436838
     14          6           0       -0.491207   -1.592237    2.544313
     15          6           0        0.876016   -1.435179    2.167480
     16          6           0        1.086845   -2.012624    0.922971
     17          6           0       -4.650467   -1.919253   -0.024668
     18          6           0        1.957283   -0.937613    3.034016
     19          6           0       -4.737101   -1.827528   -1.389084
     20          6           0        2.188213   -1.893332   -0.099806
     21          6           0        2.187614   -0.750467   -0.840862
     22          6           0       -3.479278   -1.180447   -1.832058
     23          6           0        3.029484   -0.299813   -1.807783
     24          6           0       -1.258944   -1.203092    3.710189
     25          6           0       -5.652238   -2.519684    0.894675
     26          6           0        2.565102    0.890278   -2.340052
     27          6           0        2.006985    0.573450    2.856124
     28          6           0        1.328249    1.228693   -1.524434
     29          6           0        4.254305   -0.946661   -2.379984
     30          6           0       -5.767905   -2.029140   -2.380857
     31          6           0        5.421273   -0.801443   -1.331270
     32          6           0        3.156976    1.899048   -3.380116
     33          6           0        0.445601    2.326475   -1.587051
     34          6           0        2.907115    1.060268    3.871452
     35          6           0       -0.625152    2.427290   -0.822662
     36          6           0       -6.954182   -2.757598   -2.113988
     37          6           0        6.694593   -1.607721   -1.790534
     38          6           0       -1.662296    3.588666   -0.695218
     39          6           0       -2.516938    3.294864    0.272273
     40          6           0       -2.192627    1.923478    0.708985
     41          6           0       -1.384573    4.751036   -1.468871
     42          6           0       -3.582412    4.130079    0.860029
     43          6           0       -1.877631    5.977358   -1.320345
     44          1           0       -3.302379   -0.638665    1.032441
     45          1           0       -2.602681   -3.518159    0.521847
     46          1           0       -3.043231   -3.051411    2.153813
     47          1           0       -0.334682   -2.667299   -0.526611
     48          1           0       -2.219593   -0.158182   -0.593420
     49          1           0        1.508033   -1.276233    4.113874
     50          1           0        3.113500   -1.209698    2.826038
     51          1           0        3.074571   -2.642258    0.216514
     52          1           0       -1.989709   -1.899839    4.156726
     53          1           0       -0.658787   -0.881291    4.457034
     54          1           0       -2.023865   -0.410844    3.396211
     55          1           0       -5.373572   -2.279303    2.004258
     56          1           0       -5.880242   -3.578252    0.824333
     57          1           0       -6.658835   -2.286596    0.480816
     58          1           0        2.186373    0.921477    1.799930
     59          1           0        0.976776    0.856842    3.092327
     60          1           0        0.418679    0.063608    0.060226
     61          1           0        4.559935   -0.681714   -3.367501
     62          1           0        4.088447   -2.019034   -2.531453
     63          1           0       -5.660278   -1.341305   -3.183082
     64          1           0        5.341670   -1.305335   -0.309577
     65          1           0        5.540544    0.141036   -0.971750
     66          1           0        3.833950    1.170092   -4.202563
     67          1           0        3.931166    2.732725   -2.782825
     68          1           0        2.462939    2.497113   -4.037821
     69          1           0        0.887515    3.239869   -2.222203
     70          1           0       -6.902993   -3.301041   -1.480727
     71          1           0       -7.512085   -2.955634   -2.942755
     72          1           0        4.065381    2.554402    4.113907
     73          1           0       -0.642931    4.686569   -2.309608
     74          1           0       -4.369427    4.487968    0.204496
     75          1           0       -4.112262    3.622688    1.643259
     76          1           0       -3.201380    5.096373    1.672790
     77          1           0        8.552786   -2.058782   -1.145660
     78          1           0       -1.907759    6.951853   -1.828038
     79          1           0       -2.603698    6.002743   -0.501069
 ---------------------------------------------------------------------

 SCF Done:  E(RB3LYP) =  -1947.67677217     A.U. after   21 cycles

 Excitation energies and oscillator strengths:

 Excited State   1:      Singlet-A      0.7006 eV 1769.62 nm  f=0.0059  <S**2>=0.000
     155 ->156         0.70560
 This state for optimization and/or second-order correction.
 Total Energy, E(TD-HF/TD-DFT) =  -1947.65102469
 Copying the excited state density for this state as the 1-particle RhoCI density.

 The electronic state is 1-A.
 Alpha  occ. eigenvalues --  -19.19991 -19.15698 -19.15118 -19.14544 -19.10530
 Alpha  occ. eigenvalues --  -19.06925 -14.39212 -14.36848 -14.31035 -14.30434
 Alpha  occ. eigenvalues --  -10.33933 -10.33717 -10.28177 -10.27293 -10.26189
 Alpha  occ. eigenvalues --  -10.25956 -10.25209 -10.25000 -10.24491 -10.24360
 Alpha  occ. eigenvalues --  -10.23092 -10.22413 -10.22203 -10.22062 -10.21824
 Alpha  occ. eigenvalues --  -10.21790 -10.21647 -10.21554 -10.21143 -10.20769
 Alpha  occ. eigenvalues --  -10.20716 -10.20403 -10.20337 -10.20275 -10.19921
 Alpha  occ. eigenvalues --  -10.19915 -10.19540 -10.18999 -10.18950 -10.17946
 Alpha  occ. eigenvalues --  -10.17101 -10.16658 -10.15584  -1.10485  -1.04926
 Alpha  occ. eigenvalues --   -1.03753  -1.02704  -1.01486  -0.98836  -0.98004
 Alpha  occ. eigenvalues --   -0.94679  -0.92513  -0.91788  -0.84990  -0.83473
 Alpha  occ. eigenvalues --   -0.82608  -0.81735  -0.80808  -0.79220  -0.78285
 Alpha  occ. eigenvalues --   -0.77642  -0.77435  -0.76003  -0.74772  -0.72944
 Alpha  occ. eigenvalues --   -0.71406  -0.70360  -0.70036  -0.69428  -0.67852
 Alpha  occ. eigenvalues --   -0.66873  -0.66330  -0.63716  -0.61843  -0.61584
 Alpha  occ. eigenvalues --   -0.60493  -0.59511  -0.58789  -0.57911  -0.56867
 Alpha  occ. eigenvalues --   -0.56493  -0.55635  -0.55250  -0.53654  -0.53577
 Alpha  occ. eigenvalues --   -0.52721  -0.52082  -0.51474  -0.50922  -0.49700
 Alpha  occ. eigenvalues --   -0.49363  -0.49085  -0.48844  -0.48551  -0.48299
 Alpha  occ. eigenvalues --   -0.47926  -0.47381  -0.46895  -0.46614  -0.46423
 Alpha  occ. eigenvalues --   -0.45770  -0.45224  -0.44735  -0.44487  -0.44220
 Alpha  occ. eigenvalues --   -0.43952  -0.43465  -0.42210  -0.42086  -0.41959
 Alpha  occ. eigenvalues --   -0.41835  -0.41319  -0.41253  -0.41124  -0.40773
 Alpha  occ. eigenvalues --   -0.40582  -0.40228  -0.40206  -0.39919  -0.39243
 Alpha  occ. eigenvalues --   -0.39095  -0.39055  -0.38641  -0.38137  -0.37699
 Alpha  occ. eigenvalues --   -0.37275  -0.37127  -0.36906  -0.36808  -0.36632
 Alpha  occ. eigenvalues --   -0.36451  -0.35770  -0.35334  -0.35284  -0.34631
 Alpha  occ. eigenvalues --   -0.34387  -0.33597  -0.33435  -0.33213  -0.32675
 Alpha  occ. eigenvalues --   -0.31217  -0.30424  -0.29250  -0.29047  -0.28736
 Alpha  occ. eigenvalues --   -0.28046  -0.27134  -0.25439  -0.24956  -0.24537
 Alpha  occ. eigenvalues --   -0.24265  -0.23014  -0.22679  -0.21890  -0.18499
 Alpha virt. eigenvalues --   -0.13441  -0.08058  -0.04506  -0.04232  -0.02174
 Alpha virt. eigenvalues --   -0.00335   0.00407   0.00960   0.01437   0.02471
 Alpha virt. eigenvalues --    0.02649   0.02799   0.03725   0.04574   0.04837

 Mulliken charges:
               1
     1  O   -0.170641
     2  O   -0.232235
     3  O   -0.275066
     4  O   -0.264614
     5  O   -0.171895
     6  O   -0.298062
     7  N   -0.107731
     8  N   -0.157989
     9  N   -0.095665
    10  N   -0.312623
    11  C    0.146533
    12  C    0.161953
    13  C   -0.065201
    14  C   -0.120496
    15  C   -0.069181
    16  C   -0.116549
    17  C   -0.155223
    18  C   -0.026029
    19  C   -0.072237
    20  C   -0.140410
    21  C    0.170483
    22  C    0.053691
    23  C   -0.066333
    24  C    0.116162
    25  C    0.072356
    26  C   -0.085414
    27  C    0.044681
    28  C    0.073709
    29  C    0.185713
    30  C   -0.060064
    31  C   -0.050215
    32  C   -0.058256
    33  C   -0.120518
    34  C    0.195473
    35  C    0.130162
    36  C    0.203200
    37  C    0.167237
    38  C    0.140316
    39  C   -0.149136
    40  C    0.166596
    41  C   -0.068374
    42  C    0.041900
    43  C   -0.024395
    44  H   -0.005574
    45  H   -0.027368
    46  H    0.022905
    47  H    0.119543
    48  H    0.134495
    49  H    0.073005
    50  H    0.031503
    51  H    0.073858
    52  H   -0.004836
    53  H   -0.039261
    54  H    0.045227
    55  H    0.039795
    56  H    0.022839
    57  H    0.018301
    58  H    0.051660
    59  H    0.066042
    60  H    0.221017
    61  H    0.008196
    62  H    0.011062
    63  H    0.003131
    64  H    0.042459
    65  H    0.000912
    66  H    0.060277
    67  H    0.077142
    68  H    0.064378
    69  H    0.033981
    70  H   -0.151015
    71  H   -0.002362
    72  H    0.125339
    73  H   -0.002809
    74  H    0.038751
    75  H    0.007260
    76  H    0.043801
    77  H    0.222658
    78  H    0.035459
    79  H    0.002613
 Sum of Mulliken charges =  -0.00000

 Dipole moment (field-independent basis, Debye):
    X=              5.3608    Y=              1.3840    Z=             -1.8680  Tot=              5.8432
 Quadrupole moment (field-independent basis, Debye-Ang):
   XX=           -229.3045   YY=           -233.2297   ZZ=           -278.0688
   XY=              0.5518   XZ=            -21.0277   YZ=            -12.8391

 Normal termination of Gaussian 16 at Fri Jul 26 09:21:59 2019.
