 Gaussian 16, Revision A.03,
 Gaussian 16:  ES64L-G16RevA.03 25-Dec-2016

 --------------------------
 # td=(NStates=1) B3LYP/SVP
 --------------------------

 --
 TD
 --
 Symbolic Z-matrix:
 Charge =  0 Multiplicity = 1

                         Standard orientation:
 ---------------------------------------------------------------------
 Center     Atomic      Atomic             Coordinates (Angstroms)
 Number     Number       Type             X           Y           Z
 ---------------------------------------------------------------------
      1          8           0       -3.154667   -1.283967   -2.758652
      2          8           0        2.970953    3.241531    3.295052
      3          8           0        3.744757    1.465589    4.323969
      4          8           0        7.815069   -1.385921   -0.857145
      5          8           0        6.717294   -3.027121   -2.007606
      6          8           0       -2.708655    1.447953    1.437519
      7          7           0       -0.073838   -2.408508    1.063502
      8          7           0       -2.717372   -1.128081   -0.609381
      9          7           0        1.119310    0.077108   -0.710055
     10          7           0       -1.065734    1.480882   -0.252782
     11          6           0       -3.257897   -1.369562    0.719759
     12          6           0       -2.465468   -2.390964    1.584772
     13          6           0       -1.083690   -1.970916    1.874956
     14          6           0       -0.417043   -1.064453    2.745162
     15          6           0        0.874218   -1.064742    2.492470
     16          6           0        1.109815   -1.776135    1.318020
     17          6           0       -4.712473   -1.996137    0.365663
     18          6           0        1.892523   -0.312898    3.243095
     19          6           0       -4.735433   -2.132808   -0.971402
     20          6           0        2.148933   -1.849787    0.317692
     21          6           0        2.200126   -0.877764   -0.693070
     22          6           0       -3.521189   -1.577424   -1.613251
     23          6           0        2.997284   -0.592417   -1.840725
     24          6           0       -1.166535   -0.413915    3.946503
     25          6           0       -5.714520   -2.414840    1.358622
     26          6           0        2.511794    0.440835   -2.530999
     27          6           0        2.035237    1.224959    2.727291
     28          6           0        1.268746    0.843782   -1.840889
     29          6           0        4.205347   -1.399449   -2.028087
     30          6           0       -5.844512   -2.550273   -1.890385
     31          6           0        5.454698   -0.882099   -1.320524
     32          6           0        3.136738    1.042790   -3.832733
     33          6           0        0.413021    1.995782   -2.107680
     34          6           0        3.015446    2.016232    3.527302
     35          6           0       -0.734323    2.321365   -1.194771
     36          6           0       -6.762515   -3.400771   -1.715448
     37          6           0        6.626134   -1.923320   -1.415296
     38          6           0       -1.590736    3.462877   -1.187598
     39          6           0       -2.532086    3.253572   -0.218917
     40          6           0       -2.080565    2.029624    0.429715
     41          6           0       -1.576762    4.488961   -2.306841
     42          6           0       -3.557719    4.159275    0.278156
     43          6           0       -2.457890    5.517097   -2.469970
     44          1           0       -3.434920   -0.605394    1.512343
     45          1           0       -2.697690   -3.302000    1.171797
     46          1           0       -2.768101   -2.382076    2.903792
     47          1           0       -0.300075   -2.458332    0.028129
     48          1           0       -2.028213   -0.215431   -0.842604
     49          1           0        1.497646   -0.194000    4.303308
     50          1           0        2.901821   -0.901110    3.182539
     51          1           0        2.965936   -2.640869    0.356517
     52          1           0       -1.981826   -1.073791    4.266316
     53          1           0       -0.429866   -0.171081    4.614790
     54          1           0       -1.516556    0.447532    3.580220
     55          1           0       -5.753779   -1.669000    2.289818
     56          1           0       -5.563254   -3.324772    1.743693
     57          1           0       -6.595965   -2.340508    0.982698
     58          1           0        2.351658    1.294138    1.760311
     59          1           0        1.079418    1.879313    3.055505
     60          1           0        0.509690    0.441417   -0.107250
     61          1           0        4.335215   -1.475338   -3.189575
     62          1           0        4.016983   -2.566351   -1.883065
     63          1           0       -5.600347   -2.301186   -2.973818
     64          1           0        5.269039   -0.782112   -0.200749
     65          1           0        5.774810    0.062220   -1.677845
     66          1           0        3.969513    0.365710   -4.164567
     67          1           0        3.614605    2.169098   -3.605746
     68          1           0        2.340066    1.090874   -4.691298
     69          1           0        0.622169    2.565795   -3.081190
     70          1           0       -6.909836   -3.685797   -0.627268
     71          1           0       -7.477497   -3.619781   -2.389731
     72          1           0        3.711063    3.634180    3.698920
     73          1           0       -0.983495    4.393571   -3.171301
     74          1           0       -4.595651    3.927936   -0.453579
     75          1           0       -3.908024    3.822641    1.175006
     76          1           0       -3.174579    5.222707    0.219744
     77          1           0        8.427379   -2.321994   -1.061769
     78          1           0       -2.376476    6.009509   -3.317633
     79          1           0       -3.277641    5.871098   -1.814096
 ---------------------------------------------------------------------

 SCF Done:  E(RB3LYP) =  -1947.74681433     A.U. after   21 cycles

 Excitation energies and oscillator strengths:

 Excited State   1:      Singlet-A      0.7929 eV 1563.59 nm  f=0.0025  <S**2>=0.000
     155 ->156         0.70320
 This state for optimization and/or second-order correction.
 Total Energy, E(TD-HF/TD-DFT) =  -1947.71767407
 Copying the excited state density for this state as the 1-particle RhoCI density.

 The electronic state is 1-A.
 Alpha  occ. eigenvalues --  -19.19768 -19.19606 -19.15402 -19.11810 -19.10618
 Alpha  occ. eigenvalues --  -19.07489 -14.37255 -14.35496 -14.32708 -14.30800
 Alpha  occ. eigenvalues --  -10.34667 -10.30610 -10.28000 -10.27487 -10.26232
 Alpha  occ. eigenvalues --  -10.26003 -10.25665 -10.24558 -10.24307 -10.23652
 Alpha  occ. eigenvalues --  -10.23548 -10.23423 -10.22786 -10.22711 -10.21897
 Alpha  occ. eigenvalues --  -10.21468 -10.21341 -10.20896 -10.20856 -10.20413
 Alpha  occ. eigenvalues --  -10.20233 -10.20001 -10.19748 -10.19636 -10.19631
 Alpha  occ. eigenvalues --  -10.19498 -10.18657 -10.17998 -10.17895 -10.16625
 Alpha  occ. eigenvalues --  -10.16098 -10.16010 -10.15650  -1.14755  -1.07700
 Alpha  occ. eigenvalues --   -1.00746  -1.00418  -0.99663  -0.99558  -0.98668
 Alpha  occ. eigenvalues --   -0.97007  -0.94193  -0.89919  -0.85654  -0.81946
 Alpha  occ. eigenvalues --   -0.81480  -0.80528  -0.80397  -0.79525  -0.77850
 Alpha  occ. eigenvalues --   -0.77086  -0.76466  -0.76035  -0.74649  -0.72826
 Alpha  occ. eigenvalues --   -0.71360  -0.71055  -0.70723  -0.70007  -0.67856
 Alpha  occ. eigenvalues --   -0.67533  -0.66045  -0.63016  -0.62005  -0.60872
 Alpha  occ. eigenvalues --   -0.59521  -0.59242  -0.58039  -0.57527  -0.56679
 Alpha  occ. eigenvalues --   -0.55701  -0.55417  -0.54497  -0.54127  -0.53092
 Alpha  occ. eigenvalues --   -0.51975  -0.51259  -0.50879  -0.50763  -0.49788
 Alpha  occ. eigenvalues --   -0.49300  -0.48724  -0.48596  -0.48178  -0.47944
 Alpha  occ. eigenvalues --   -0.47560  -0.47435  -0.47234  -0.46230  -0.46112
 Alpha  occ. eigenvalues --   -0.45764  -0.45212  -0.44806  -0.44360  -0.44034
 Alpha  occ. eigenvalues --   -0.43726  -0.43277  -0.42777  -0.42589  -0.42524
 Alpha  occ. eigenvalues --   -0.42246  -0.42044  -0.41603  -0.41314  -0.41178
 Alpha  occ. eigenvalues --   -0.41039  -0.40444  -0.40234  -0.40168  -0.40003
 Alpha  occ. eigenvalues --   -0.39710  -0.39284  -0.39167  -0.38907  -0.38178
 Alpha  occ. eigenvalues --   -0.37713  -0.37594  -0.36908  -0.36316  -0.36234
 Alpha  occ. eigenvalues --   -0.35426  -0.35167  -0.34821  -0.34302  -0.34076
 Alpha  occ. eigenvalues --   -0.33538  -0.32741  -0.32166  -0.32013  -0.31275
 Alpha  occ. eigenvalues --   -0.30992  -0.30662  -0.30171  -0.29299  -0.28853
 Alpha  occ. eigenvalues --   -0.28437  -0.26336  -0.25693  -0.24158  -0.24112
 Alpha  occ. eigenvalues --   -0.23617  -0.23386  -0.23049  -0.22177  -0.18577
 Alpha virt. eigenvalues --   -0.13158  -0.08357  -0.03519  -0.03387  -0.01953
 Alpha virt. eigenvalues --    0.00981   0.01078   0.01938   0.02322   0.02667
 Alpha virt. eigenvalues --    0.02962   0.03494   0.04209   0.04718   0.04897

 Mulliken charges:
               1
     1  O   -0.263615
     2  O   -0.053671
     3  O   -0.248490
     4  O   -0.296406
     5  O   -0.263091
     6  O   -0.291236
     7  N   -0.053115
     8  N   -0.251954
     9  N   -0.042877
    10  N   -0.244151
    11  C    0.117194
    12  C    0.087711
    13  C   -0.069670
    14  C   -0.168026
    15  C   -0.055279
    16  C   -0.037907
    17  C   -0.198638
    18  C    0.084114
    19  C   -0.081069
    20  C   -0.132754
    21  C    0.125166
    22  C    0.149837
    23  C   -0.022513
    24  C    0.262207
    25  C    0.202323
    26  C   -0.107019
    27  C   -0.005806
    28  C    0.048137
    29  C   -0.026219
    30  C   -0.007286
    31  C    0.061502
    32  C    0.006472
    33  C   -0.070962
    34  C    0.048577
    35  C    0.059900
    36  C    0.014395
    37  C    0.193273
    38  C    0.049419
    39  C   -0.170878
    40  C    0.166084
    41  C   -0.010364
    42  C    0.092471
    43  C    0.010243
    44  H    0.043627
    45  H   -0.046432
    46  H    0.024209
    47  H    0.137657
    48  H    0.208243
    49  H    0.010780
    50  H    0.025631
    51  H    0.026356
    52  H    0.003417
    53  H   -0.051535
    54  H   -0.021496
    55  H    0.019255
    56  H    0.003325
    57  H   -0.023902
    58  H    0.001631
    59  H    0.054925
    60  H    0.110715
    61  H    0.031669
    62  H    0.058522
    63  H    0.014672
    64  H    0.060399
    65  H    0.038145
    66  H    0.032997
    67  H    0.065144
    68  H    0.066578
    69  H    0.015141
    70  H    0.002663
    71  H   -0.011949
    72  H    0.154578
    73  H   -0.018955
    74  H    0.051718
    75  H   -0.001461
    76  H    0.058603
    77  H    0.241877
    78  H   -0.018561
    79  H    0.025788
 Sum of Mulliken charges =  -0.00000

 Dipole moment (field-independent basis, Debye):
    X=              3.0656    Y=              4.4657    Z=             -1.7129  Tot=              5.6810
 Quadrupole moment (field-independent basis, Debye-Ang):
   XX=           -239.0016   YY=           -236.2634   ZZ=           -264.8723
   XY=              5.8013   XZ=            -21.7961   YZ=            -10.9951

 Normal termination of Gaussian 16 at Wed Jul 24 21:49:50 2019.
