 Gaussian 16, Revision A.03,
 Gaussian 16:  ES64L-G16RevA.03 25-Dec-2016

 --------------------------
 # td=(NStates=1) B3LYP/SVP
 --------------------------

 --
 TD
 --
 Symbolic Z-matrix:
 Charge =  0 Multiplicity = 1

                         Standard orientation:
 ---------------------------------------------------------------------
 Center     Atomic      Atomic             Coordinates (Angstroms)
 Number     Number       Type             X           Y           Z
 ---------------------------------------------------------------------
      1          8           0       -3.266960   -0.733754   -3.009656
      2          8           0        2.896625    2.555715    3.751624
      3          8           0        3.734605    0.559173    4.426992
      4          8           0        7.788767   -1.181834   -0.984648
      5          8           0        6.660153   -2.597409   -2.338185
      6          8           0       -2.706705    1.379235    1.691053
      7          7           0       -0.266285   -2.657217    0.497443
      8          7           0       -2.718574   -1.091828   -0.810253
      9          7           0        1.153869    0.255520   -0.724553
     10          7           0       -1.010469    1.425770    0.066198
     11          6           0       -3.314433   -1.453103    0.454115
     12          6           0       -2.638407   -2.626667    1.192007
     13          6           0       -1.111859   -2.333689    1.473398
     14          6           0       -0.495389   -1.667803    2.513922
     15          6           0        0.822273   -1.595886    2.193890
     16          6           0        0.985101   -2.139272    0.843912
     17          6           0       -4.655008   -1.856573    0.058636
     18          6           0        1.908102   -1.021133    3.008500
     19          6           0       -4.802009   -1.819611   -1.350798
     20          6           0        2.109381   -1.914890   -0.086823
     21          6           0        2.068771   -0.761539   -0.900090
     22          6           0       -3.612868   -1.129492   -1.902396
     23          6           0        3.047980   -0.338743   -1.914895
     24          6           0       -1.196941   -1.081470    3.722729
     25          6           0       -5.750654   -2.371877    0.972067
     26          6           0        2.615898    0.952438   -2.411104
     27          6           0        1.900802    0.596860    2.952111
     28          6           0        1.358637    1.222085   -1.697458
     29          6           0        4.245529   -1.084416   -2.222574
     30          6           0       -6.004831   -2.008084   -2.185192
     31          6           0        5.491354   -0.741780   -1.330798
     32          6           0        3.124294    1.735040   -3.524277
     33          6           0        0.473146    2.222314   -1.766478
     34          6           0        2.974982    1.145847    3.790088
     35          6           0       -0.646901    2.399656   -0.850562
     36          6           0       -7.098948   -2.767565   -2.114882
     37          6           0        6.709902   -1.711670   -1.616796
     38          6           0       -1.465472    3.523382   -0.654044
     39          6           0       -2.352789    3.263542    0.372813
     40          6           0       -1.998081    1.931983    0.759346
     41          6           0       -1.300395    4.702673   -1.475473
     42          6           0       -3.304693    4.213582    0.952575
     43          6           0       -2.001359    5.983206   -1.390657
     44          1           0       -3.099698   -0.544219    1.054771
     45          1           0       -2.599401   -3.573642    0.534099
     46          1           0       -2.894570   -2.796695    2.318674
     47          1           0       -0.477789   -2.914192   -0.542403
     48          1           0       -1.973553   -0.394254   -0.508976
     49          1           0        1.607580   -1.321856    4.062366
     50          1           0        2.967224   -1.327122    2.904985
     51          1           0        2.870135   -2.529834   -0.342495
     52          1           0       -1.746323   -1.891783    4.106267
     53          1           0       -0.372134   -0.821552    4.491205
     54          1           0       -1.514904   -0.240406    3.293689
     55          1           0       -5.777185   -1.914746    2.067491
     56          1           0       -5.679200   -3.495823    1.115555
     57          1           0       -6.765918   -2.333125    0.637868
     58          1           0        2.110905    0.822288    1.949463
     59          1           0        1.046998    1.044721    3.250718
     60          1           0        0.169187    0.262412   -0.293067
     61          1           0        4.443554   -1.088482   -3.349237
     62          1           0        4.055020   -2.299553   -2.265054
     63          1           0       -5.839423   -1.313918   -3.116773
     64          1           0        5.247631   -0.759533   -0.326790
     65          1           0        5.954229    0.257839   -1.562873
     66          1           0        3.653094    0.999080   -4.118753
     67          1           0        3.761074    2.549567   -2.915656
     68          1           0        2.408600    2.511055   -4.116352
     69          1           0        0.572487    3.039961   -2.520613
     70          1           0       -7.217259   -3.431310   -1.179165
     71          1           0       -8.099009   -2.694003   -2.870111
     72          1           0        3.581786    2.936382    4.461635
     73          1           0       -0.530060    4.804767   -2.144348
     74          1           0       -4.163628    4.530475    0.221156
     75          1           0       -3.844650    3.741661    1.833766
     76          1           0       -3.071447    5.118157    1.290202
     77          1           0        8.562109   -1.841444   -1.106505
     78          1           0       -1.697991    6.677777   -2.103821
     79          1           0       -3.119812    6.052549   -0.899074
 ---------------------------------------------------------------------

 SCF Done:  E(RB3LYP) =  -1947.81806423     A.U. after   21 cycles

 Excitation energies and oscillator strengths:

 Excited State   1:      Singlet-A      0.6291 eV 1970.81 nm  f=0.0003  <S**2>=0.000
     155 ->156         0.70322
 This state for optimization and/or second-order correction.
 Total Energy, E(TD-HF/TD-DFT) =  -1947.79494511
 Copying the excited state density for this state as the 1-particle RhoCI density.

 The electronic state is 1-A.
 Alpha  occ. eigenvalues --  -19.19904 -19.16394 -19.15135 -19.12796 -19.11499
 Alpha  occ. eigenvalues --  -19.08113 -14.37299 -14.36752 -14.31899 -14.31501
 Alpha  occ. eigenvalues --  -10.33322 -10.30488 -10.27530 -10.26893 -10.26215
 Alpha  occ. eigenvalues --  -10.26013 -10.25342 -10.23686 -10.23527 -10.23465
 Alpha  occ. eigenvalues --  -10.23257 -10.22162 -10.22074 -10.21922 -10.21696
 Alpha  occ. eigenvalues --  -10.21670 -10.21264 -10.21086 -10.21022 -10.20947
 Alpha  occ. eigenvalues --  -10.20622 -10.20417 -10.19935 -10.19863 -10.19568
 Alpha  occ. eigenvalues --  -10.19500 -10.19459 -10.19373 -10.18979 -10.17987
 Alpha  occ. eigenvalues --  -10.16817 -10.16654 -10.15838  -1.12448  -1.09039
 Alpha  occ. eigenvalues --   -1.04290  -1.01242  -0.99876  -0.99342  -0.98836
 Alpha  occ. eigenvalues --   -0.96682  -0.94383  -0.91659  -0.83913  -0.82656
 Alpha  occ. eigenvalues --   -0.81848  -0.80465  -0.79307  -0.78731  -0.77949
 Alpha  occ. eigenvalues --   -0.76618  -0.75964  -0.75235  -0.73761  -0.72796
 Alpha  occ. eigenvalues --   -0.71590  -0.70566  -0.69441  -0.69239  -0.67682
 Alpha  occ. eigenvalues --   -0.66977  -0.65804  -0.63055  -0.61608  -0.60882
 Alpha  occ. eigenvalues --   -0.59980  -0.59418  -0.57292  -0.56906  -0.56042
 Alpha  occ. eigenvalues --   -0.55471  -0.54953  -0.54138  -0.53864  -0.53024
 Alpha  occ. eigenvalues --   -0.52186  -0.51418  -0.50688  -0.50547  -0.50082
 Alpha  occ. eigenvalues --   -0.49602  -0.49141  -0.49050  -0.48230  -0.47889
 Alpha  occ. eigenvalues --   -0.47576  -0.47019  -0.46734  -0.46244  -0.45805
 Alpha  occ. eigenvalues --   -0.45541  -0.45011  -0.44759  -0.44514  -0.44434
 Alpha  occ. eigenvalues --   -0.43898  -0.43244  -0.43156  -0.42189  -0.41972
 Alpha  occ. eigenvalues --   -0.41658  -0.41273  -0.40954  -0.40833  -0.40674
 Alpha  occ. eigenvalues --   -0.40206  -0.40183  -0.39954  -0.39822  -0.39670
 Alpha  occ. eigenvalues --   -0.39597  -0.39342  -0.38857  -0.38548  -0.38285
 Alpha  occ. eigenvalues --   -0.37686  -0.37638  -0.36960  -0.36692  -0.36044
 Alpha  occ. eigenvalues --   -0.35646  -0.35489  -0.35411  -0.35187  -0.34565
 Alpha  occ. eigenvalues --   -0.34046  -0.33256  -0.32907  -0.31756  -0.31534
 Alpha  occ. eigenvalues --   -0.31186  -0.30240  -0.29782  -0.29652  -0.28449
 Alpha  occ. eigenvalues --   -0.28103  -0.26380  -0.25840  -0.23795  -0.23786
 Alpha  occ. eigenvalues --   -0.23309  -0.23044  -0.22462  -0.22286  -0.18573
 Alpha virt. eigenvalues --   -0.13698  -0.08460  -0.04594  -0.03751   0.00549
 Alpha virt. eigenvalues --    0.01818   0.02012   0.02382   0.02572   0.02649
 Alpha virt. eigenvalues --    0.03406   0.03742   0.04270   0.04876   0.05137

 Mulliken charges:
               1
     1  O   -0.238635
     2  O   -0.294196
     3  O   -0.155850
     4  O   -0.221016
     5  O   -0.137013
     6  O   -0.286497
     7  N   -0.062570
     8  N   -0.274927
     9  N   -0.124074
    10  N   -0.275972
    11  C    0.096554
    12  C    0.162541
    13  C   -0.193364
    14  C   -0.170067
    15  C   -0.058124
    16  C   -0.009539
    17  C   -0.116135
    18  C    0.051708
    19  C   -0.095918
    20  C   -0.008196
    21  C    0.063791
    22  C    0.180605
    23  C   -0.037947
    24  C    0.211258
    25  C    0.045873
    26  C   -0.084873
    27  C    0.074268
    28  C    0.153212
    29  C   -0.038528
    30  C   -0.007395
    31  C    0.025546
    32  C    0.020811
    33  C   -0.107784
    34  C    0.110653
    35  C    0.079479
    36  C   -0.109104
    37  C    0.116284
    38  C    0.099171
    39  C   -0.100939
    40  C    0.139513
    41  C   -0.061493
    42  C    0.087369
    43  C   -0.039494
    44  H    0.048785
    45  H   -0.007625
    46  H    0.025198
    47  H    0.158629
    48  H    0.155341
    49  H    0.011751
    50  H    0.005544
    51  H   -0.057130
    52  H    0.011093
    53  H   -0.010125
    54  H    0.010248
    55  H    0.036787
    56  H    0.033621
    57  H    0.013454
    58  H    0.018120
    59  H    0.004882
    60  H    0.215125
    61  H    0.025154
    62  H    0.049910
    63  H    0.034108
    64  H    0.021373
    65  H    0.046955
    66  H    0.043473
    67  H    0.055505
    68  H    0.063614
    69  H   -0.012811
    70  H    0.023499
    71  H    0.059932
    72  H    0.205375
    73  H   -0.033957
    74  H    0.035186
    75  H    0.030150
    76  H   -0.003756
    77  H    0.202167
    78  H    0.014420
    79  H    0.057020
 Sum of Mulliken charges =  -0.00000

 Dipole moment (field-independent basis, Debye):
    X=              5.0490    Y=              2.7936    Z=             -1.0566  Tot=              5.8663
 Quadrupole moment (field-independent basis, Debye-Ang):
   XX=           -227.5095   YY=           -234.7680   ZZ=           -265.5269
   XY=              2.6251   XZ=            -22.3016   YZ=             -9.1979

 Normal termination of Gaussian 16 at Sun Jul 28 11:00:23 2019.
