 Gaussian 16, Revision A.03,
 Gaussian 16:  ES64L-G16RevA.03 25-Dec-2016

 --------------------------
 # td=(NStates=1) B3LYP/SVP
 --------------------------

 --
 TD
 --
 Symbolic Z-matrix:
 Charge =  0 Multiplicity = 1

                         Standard orientation:
 ---------------------------------------------------------------------
 Center     Atomic      Atomic             Coordinates (Angstroms)
 Number     Number       Type             X           Y           Z
 ---------------------------------------------------------------------
      1          8           0        5.279456    0.133542   -3.202989
      2          8           0       -3.123834   -3.033806    3.244233
      3          8           0       -3.263359   -0.846415    3.334495
      4          8           0       -1.785759    7.150156    1.497592
      5          8           0       -0.810996    6.960325   -0.536267
      6          8           0       -1.525333   -3.976298   -0.063103
      7          7           0        2.269632    0.998162    0.710542
      8          7           0        4.358523   -0.472120   -1.164512
      9          7           0       -1.810805    0.637915   -0.389215
     10          7           0       -2.396789   -1.867813   -0.659718
     11          6           0        4.755248   -1.149295    0.024527
     12          6           0        4.288340   -0.248773    1.240515
     13          6           0        2.835221   -0.063835    1.374880
     14          6           0        1.925084   -0.688243    2.198998
     15          6           0        0.696858   -0.031277    1.882367
     16          6           0        0.931620    0.954122    0.901905
     17          6           0        6.297919   -1.208374   -0.137443
     18          6           0       -0.660916   -0.207253    2.579717
     19          6           0        6.647176   -0.797005   -1.423680
     20          6           0        0.233486    2.007056    0.168988
     21          6           0       -0.995086    1.892520   -0.474623
     22          6           0        5.359974   -0.332823   -2.068255
     23          6           0       -1.933341    2.851271   -0.865721
     24          6           0        2.163222   -1.649410    3.234807
     25          6           0        7.077463   -1.842293    0.998782
     26          6           0       -3.051329    2.267094   -1.414789
     27          6           0       -1.247379   -1.675999    2.570034
     28          6           0       -2.952670    0.852963   -1.000427
     29          6           0       -1.619197    4.344035   -0.902991
     30          6           0        7.875435   -0.710800   -2.097957
     31          6           0       -1.954378    5.001153    0.391331
     32          6           0       -4.415102    2.922169   -1.966020
     33          6           0       -3.894333   -0.195040   -1.510449
     34          6           0       -2.619953   -1.760725    3.056627
     35          6           0       -3.531688   -1.524103   -1.223183
     36          6           0        9.124790   -0.723766   -1.585710
     37          6           0       -1.322274    6.437327    0.396373
     38          6           0       -4.466435   -2.665521   -1.547805
     39          6           0       -3.709540   -3.786536   -1.126069
     40          6           0       -2.462834   -3.250311   -0.485206
     41          6           0       -5.761560   -2.443064   -2.159695
     42          6           0       -3.968542   -5.237049   -1.303172
     43          6           0       -6.660123   -3.399411   -2.503484
     44          1           0        4.371029   -2.032760    0.148444
     45          1           0        4.819943    0.779698    1.135562
     46          1           0        4.500587   -0.986211    2.130948
     47          1           0        2.673687    1.549025   -0.129410
     48          1           0        3.352776   -0.412575   -1.454973
     49          1           0       -0.589563    0.063962    3.659366
     50          1           0       -1.403187    0.179207    2.107743
     51          1           0        0.752095    2.690678    0.000871
     52          1           0        3.121501   -1.461089    3.904621
     53          1           0        1.461921   -1.347494    3.923424
     54          1           0        2.011512   -2.701760    3.022861
     55          1           0        6.600031   -3.007820    1.190505
     56          1           0        6.997247   -1.106659    1.905303
     57          1           0        8.054135   -2.248223    0.513104
     58          1           0       -1.035054   -2.147182    1.529935
     59          1           0       -0.778021   -2.600207    3.091845
     60          1           0       -1.304688   -0.252301   -0.171843
     61          1           0       -2.250323    4.853388   -1.594141
     62          1           0       -0.460267    4.429490   -1.052842
     63          1           0        7.802141   -0.498469   -3.082839
     64          1           0       -1.589307    4.389292    1.233528
     65          1           0       -3.060839    5.031468    0.714166
     66          1           0       -4.340171    3.988491   -1.966323
     67          1           0       -5.265437    2.678383   -1.200963
     68          1           0       -4.556415    2.387196   -2.941198
     69          1           0       -4.749531   -0.005314   -2.220924
     70          1           0        9.331397   -0.943048   -0.604015
     71          1           0       10.199090   -0.456766   -2.008693
     72          1           0       -4.076828   -2.782675    3.535355
     73          1           0       -5.795062   -1.482492   -2.192492
     74          1           0       -5.006494   -5.441509   -0.738935
     75          1           0       -4.121543   -5.506482   -2.264019
     76          1           0       -3.143458   -5.714727   -0.826723
     77          1           0       -1.567079    8.032065    1.429804
     78          1           0       -7.516027   -3.242924   -3.112366
     79          1           0       -6.456075   -4.479508   -2.625095
 ---------------------------------------------------------------------

 SCF Done:  E(RB3LYP) =  -1947.78437174     A.U. after   17 cycles

 Excitation energies and oscillator strengths:

 Excited State   1:      Singlet-A      2.0791 eV  596.33 nm  f=0.2809  <S**2>=0.000
     154 ->156         0.33147
     155 ->156         0.61558
 This state for optimization and/or second-order correction.
 Total Energy, E(TD-HF/TD-DFT) =  -1947.70796571
 Copying the excited state density for this state as the 1-particle RhoCI density.

 The electronic state is 1-A.
 Alpha  occ. eigenvalues --  -19.17906 -19.15777 -19.14792 -19.11360 -19.09700
 Alpha  occ. eigenvalues --  -19.09692 -14.39312 -14.37557 -14.36083 -14.28277
 Alpha  occ. eigenvalues --  -10.33496 -10.29647 -10.28552 -10.25973 -10.25899
 Alpha  occ. eigenvalues --  -10.24935 -10.24010 -10.23847 -10.23490 -10.23259
 Alpha  occ. eigenvalues --  -10.22774 -10.22727 -10.22285 -10.22249 -10.22220
 Alpha  occ. eigenvalues --  -10.21788 -10.21783 -10.21506 -10.21491 -10.20876
 Alpha  occ. eigenvalues --  -10.20509 -10.20017 -10.19849 -10.19756 -10.19663
 Alpha  occ. eigenvalues --  -10.19481 -10.19393 -10.19327 -10.19294 -10.19205
 Alpha  occ. eigenvalues --  -10.19160 -10.19102 -10.17687  -1.10687  -1.09443
 Alpha  occ. eigenvalues --   -1.02851  -1.02175  -1.00299  -0.99253  -0.99035
 Alpha  occ. eigenvalues --   -0.98259  -0.94828  -0.91482  -0.84009  -0.83008
 Alpha  occ. eigenvalues --   -0.82349  -0.81847  -0.80047  -0.79401  -0.78335
 Alpha  occ. eigenvalues --   -0.77689  -0.76600  -0.75956  -0.74400  -0.73106
 Alpha  occ. eigenvalues --   -0.72106  -0.71110  -0.69870  -0.68921  -0.68535
 Alpha  occ. eigenvalues --   -0.67544  -0.66502  -0.63657  -0.62555  -0.61834
 Alpha  occ. eigenvalues --   -0.60869  -0.59331  -0.58263  -0.58037  -0.57464
 Alpha  occ. eigenvalues --   -0.56912  -0.55539  -0.54696  -0.54210  -0.53983
 Alpha  occ. eigenvalues --   -0.53187  -0.52390  -0.52151  -0.51181  -0.50208
 Alpha  occ. eigenvalues --   -0.49512  -0.48968  -0.48693  -0.48534  -0.48076
 Alpha  occ. eigenvalues --   -0.47749  -0.46976  -0.46715  -0.46508  -0.45924
 Alpha  occ. eigenvalues --   -0.45563  -0.45281  -0.44956  -0.44553  -0.44278
 Alpha  occ. eigenvalues --   -0.43947  -0.43643  -0.43368  -0.43177  -0.42812
 Alpha  occ. eigenvalues --   -0.42598  -0.42461  -0.42209  -0.41676  -0.41444
 Alpha  occ. eigenvalues --   -0.41198  -0.40797  -0.40519  -0.40301  -0.40063
 Alpha  occ. eigenvalues --   -0.39728  -0.39506  -0.38777  -0.38661  -0.38455
 Alpha  occ. eigenvalues --   -0.38162  -0.37809  -0.37384  -0.37293  -0.36861
 Alpha  occ. eigenvalues --   -0.36629  -0.35838  -0.34952  -0.34761  -0.34279
 Alpha  occ. eigenvalues --   -0.33882  -0.33703  -0.33373  -0.32315  -0.32177
 Alpha  occ. eigenvalues --   -0.31242  -0.31046  -0.30041  -0.28952  -0.27334
 Alpha  occ. eigenvalues --   -0.27175  -0.26925  -0.26388  -0.25962  -0.25240
 Alpha  occ. eigenvalues --   -0.23968  -0.23530  -0.23254  -0.21429  -0.19636
 Alpha virt. eigenvalues --   -0.11084  -0.07047  -0.06687  -0.01976  -0.01036
 Alpha virt. eigenvalues --    0.00244   0.00936   0.02011   0.02332   0.02565
 Alpha virt. eigenvalues --    0.03127   0.03543   0.04575   0.05055   0.05625

 Mulliken charges:
               1
     1  O   -0.236851
     2  O   -0.240778
     3  O   -0.186302
     4  O   -0.184759
     5  O   -0.184161
     6  O   -0.261729
     7  N   -0.095037
     8  N   -0.191787
     9  N   -0.101693
    10  N   -0.256114
    11  C    0.167503
    12  C    0.112503
    13  C   -0.097728
    14  C   -0.080112
    15  C   -0.149683
    16  C    0.049411
    17  C   -0.166386
    18  C    0.239976
    19  C    0.006097
    20  C    0.083724
    21  C    0.109277
    22  C    0.135668
    23  C   -0.083357
    24  C    0.111732
    25  C   -0.008858
    26  C   -0.166515
    27  C   -0.141660
    28  C    0.123961
    29  C    0.138730
    30  C    0.032440
    31  C   -0.078109
    32  C    0.071951
    33  C   -0.160068
    34  C    0.134486
    35  C    0.063658
    36  C   -0.043915
    37  C    0.161155
    38  C   -0.011139
    39  C   -0.231752
    40  C    0.177137
    41  C    0.139100
    42  C    0.137423
    43  C   -0.012963
    44  H   -0.040274
    45  H    0.018550
    46  H    0.008605
    47  H    0.154335
    48  H    0.140640
    49  H    0.023646
    50  H   -0.057451
    51  H   -0.179508
    52  H    0.026669
    53  H   -0.015144
    54  H    0.043550
    55  H    0.047556
    56  H    0.080767
    57  H    0.053693
    58  H    0.087479
    59  H    0.030411
    60  H    0.179124
    61  H    0.004029
    62  H    0.043675
    63  H   -0.036105
    64  H    0.033895
    65  H    0.054839
    66  H    0.014541
    67  H    0.055278
    68  H    0.057450
    69  H    0.021987
    70  H   -0.019534
    71  H    0.048251
    72  H    0.190462
    73  H   -0.127435
    74  H    0.034327
    75  H    0.004447
    76  H    0.019244
    77  H    0.146647
    78  H    0.007019
    79  H    0.019861
 Sum of Mulliken charges =  -0.00000

 Dipole moment (field-independent basis, Debye):
    X=              0.9121    Y=              3.4001    Z=              3.0298  Tot=              4.6445
 Quadrupole moment (field-independent basis, Debye-Ang):
   XX=           -225.8761   YY=           -248.7501   ZZ=           -264.5055
   XY=            -15.6452   XZ=             34.1057   YZ=              6.1305

 Normal termination of Gaussian 16 at Thu Oct  3 11:35:03 2019.
