 Gaussian 16, Revision A.03,
 Gaussian 16:  ES64L-G16RevA.03 25-Dec-2016

 --------------------------
 # td=(NStates=1) B3LYP/SVP
 --------------------------

 --
 TD
 --
 Symbolic Z-matrix:
 Charge =  0 Multiplicity = 1

                         Standard orientation:
 ---------------------------------------------------------------------
 Center     Atomic      Atomic             Coordinates (Angstroms)
 Number     Number       Type             X           Y           Z
 ---------------------------------------------------------------------
      1          8           0        5.142144   -0.503642   -3.357966
      2          8           0       -3.058666   -2.856050    3.093536
      3          8           0       -3.261531   -0.549520    3.071339
      4          8           0       -1.396094    7.058289    1.396697
      5          8           0       -0.639261    7.007092   -0.775816
      6          8           0       -1.726460   -3.887805    0.240769
      7          7           0        2.324879    1.114258    0.560554
      8          7           0        4.213043   -0.781386   -1.259423
      9          7           0       -1.955659    0.741288   -0.294807
     10          7           0       -2.548295   -1.880387   -0.604486
     11          6           0        4.675538   -1.273548    0.047619
     12          6           0        4.423365   -0.246998    1.141221
     13          6           0        3.007935    0.115265    1.274305
     14          6           0        2.077831   -0.432864    2.213240
     15          6           0        0.779118    0.167569    1.905102
     16          6           0        0.970012    1.029038    0.799488
     17          6           0        6.223581   -1.356370   -0.105018
     18          6           0       -0.573719   -0.129990    2.620666
     19          6           0        6.529551   -1.161070   -1.412707
     20          6           0        0.078846    1.915538    0.119602
     21          6           0       -1.166364    1.811803   -0.376197
     22          6           0        5.247634   -0.736837   -2.175749
     23          6           0       -2.013963    2.919233   -0.917311
     24          6           0        2.337135   -1.421437    3.286400
     25          6           0        7.239498   -1.753986    1.009397
     26          6           0       -3.210121    2.243608   -1.258278
     27          6           0       -1.163032   -1.560287    2.601402
     28          6           0       -3.160295    0.910680   -0.918037
     29          6           0       -1.526096    4.323008   -1.038862
     30          6           0        7.823054   -0.841837   -2.013085
     31          6           0       -1.643696    5.005543    0.293379
     32          6           0       -4.433050    2.929861   -1.835660
     33          6           0       -4.009280   -0.149865   -1.339820
     34          6           0       -2.605333   -1.566339    2.957341
     35          6           0       -3.732224   -1.480571   -1.089144
     36          6           0        9.119656   -0.770450   -1.529829
     37          6           0       -1.177755    6.484203    0.150540
     38          6           0       -4.481543   -2.685349   -1.297206
     39          6           0       -3.790322   -3.807430   -0.886870
     40          6           0       -2.548319   -3.290195   -0.428559
     41          6           0       -5.771316   -2.514314   -2.041288
     42          6           0       -4.224516   -5.241507   -0.962266
     43          6           0       -6.613603   -3.623733   -2.541765
     44          1           0        4.226866   -2.247251    0.219689
     45          1           0        5.081098    0.652814    0.988102
     46          1           0        4.721876   -0.782104    2.010966
     47          1           0        2.815837    1.644640   -0.177809
     48          1           0        3.102087   -0.792381   -1.613330
     49          1           0       -0.373766    0.329151    3.610754
     50          1           0       -1.441395    0.499205    2.296985
     51          1           0        0.480766    2.849393   -0.279390
     52          1           0        3.396587   -1.226904    3.500034
     53          1           0        1.737198   -1.050087    4.171901
     54          1           0        2.126854   -2.387092    3.031015
     55          1           0        6.983843   -2.517972    1.717587
     56          1           0        7.724739   -0.914860    1.549592
     57          1           0        8.137500   -2.085806    0.322535
     58          1           0       -1.210915   -1.790188    1.407132
     59          1           0       -0.473573   -2.215658    3.145811
     60          1           0       -1.650524   -0.223486   -0.079400
     61          1           0       -2.043039    4.934315   -1.765660
     62          1           0       -0.429116    4.267484   -1.451986
     63          1           0        7.608412   -1.102371   -3.213859
     64          1           0       -1.030766    4.552512    0.940198
     65          1           0       -2.702589    5.198341    0.658322
     66          1           0       -4.227791    3.955229   -2.216143
     67          1           0       -5.141889    3.001101   -1.127772
     68          1           0       -4.773564    2.303880   -2.714819
     69          1           0       -4.823353    0.118795   -2.025485
     70          1           0        9.171612   -0.605338   -0.399249
     71          1           0        9.866208   -0.449601   -2.199172
     72          1           0       -4.121899   -2.850040    3.248479
     73          1           0       -6.118583   -1.405011   -2.038170
     74          1           0       -5.146987   -5.374476   -0.302434
     75          1           0       -4.262671   -5.629561   -1.993049
     76          1           0       -3.421670   -5.928805   -0.541815
     77          1           0       -0.954922    7.933426    1.161885
     78          1           0       -7.546665   -3.433065   -3.055581
     79          1           0       -6.133862   -4.593786   -2.459529
 ---------------------------------------------------------------------

 SCF Done:  E(RB3LYP) =  -1947.90998360     A.U. after   19 cycles

 Excitation energies and oscillator strengths:

 Excited State   1:      Singlet-A      1.8551 eV  668.34 nm  f=0.3349  <S**2>=0.000
     154 ->156         0.18628
     155 ->156         0.67797
     155 <-156        -0.11761
 This state for optimization and/or second-order correction.
 Total Energy, E(TD-HF/TD-DFT) =  -1947.84180929
 Copying the excited state density for this state as the 1-particle RhoCI density.

 The electronic state is 1-A.
 Alpha  occ. eigenvalues --  -19.19358 -19.17413 -19.15309 -19.11550 -19.10209
 Alpha  occ. eigenvalues --  -19.09860 -14.38803 -14.36425 -14.35854 -14.27709
 Alpha  occ. eigenvalues --  -10.33214 -10.30809 -10.28839 -10.25318 -10.25216
 Alpha  occ. eigenvalues --  -10.24119 -10.23475 -10.23370 -10.23331 -10.23114
 Alpha  occ. eigenvalues --  -10.22097 -10.21982 -10.21876 -10.21776 -10.21711
 Alpha  occ. eigenvalues --  -10.21708 -10.21670 -10.21355 -10.21177 -10.20778
 Alpha  occ. eigenvalues --  -10.20641 -10.20549 -10.20427 -10.19880 -10.19819
 Alpha  occ. eigenvalues --  -10.19548 -10.19520 -10.19470 -10.19318 -10.19249
 Alpha  occ. eigenvalues --  -10.19226 -10.18965 -10.18838  -1.10669  -1.06381
 Alpha  occ. eigenvalues --   -1.02696  -1.02564  -1.01117  -0.99428  -0.98635
 Alpha  occ. eigenvalues --   -0.97793  -0.93348  -0.91892  -0.83241  -0.82333
 Alpha  occ. eigenvalues --   -0.81626  -0.81019  -0.79954  -0.78898  -0.78019
 Alpha  occ. eigenvalues --   -0.76759  -0.76142  -0.74899  -0.73646  -0.72233
 Alpha  occ. eigenvalues --   -0.71507  -0.71057  -0.69722  -0.68659  -0.68417
 Alpha  occ. eigenvalues --   -0.66500  -0.66033  -0.64390  -0.61044  -0.60872
 Alpha  occ. eigenvalues --   -0.58834  -0.58000  -0.57680  -0.57352  -0.56623
 Alpha  occ. eigenvalues --   -0.56150  -0.55437  -0.55009  -0.53861  -0.52826
 Alpha  occ. eigenvalues --   -0.51759  -0.51658  -0.51006  -0.50502  -0.50190
 Alpha  occ. eigenvalues --   -0.49761  -0.49261  -0.48160  -0.47843  -0.47030
 Alpha  occ. eigenvalues --   -0.46727  -0.46589  -0.46311  -0.45968  -0.45755
 Alpha  occ. eigenvalues --   -0.45484  -0.45145  -0.44505  -0.44143  -0.43757
 Alpha  occ. eigenvalues --   -0.43556  -0.43463  -0.43109  -0.43076  -0.42657
 Alpha  occ. eigenvalues --   -0.42425  -0.42374  -0.41543  -0.41286  -0.41076
 Alpha  occ. eigenvalues --   -0.40920  -0.40881  -0.40423  -0.40308  -0.40076
 Alpha  occ. eigenvalues --   -0.39823  -0.39605  -0.39253  -0.38995  -0.38668
 Alpha  occ. eigenvalues --   -0.38349  -0.38252  -0.37659  -0.37504  -0.37408
 Alpha  occ. eigenvalues --   -0.36684  -0.35878  -0.35381  -0.34675  -0.34081
 Alpha  occ. eigenvalues --   -0.34034  -0.33412  -0.32756  -0.32242  -0.31037
 Alpha  occ. eigenvalues --   -0.30953  -0.30705  -0.30066  -0.27704  -0.26912
 Alpha  occ. eigenvalues --   -0.26728  -0.26215  -0.25798  -0.25386  -0.24775
 Alpha  occ. eigenvalues --   -0.24484  -0.23702  -0.23144  -0.21505  -0.18694
 Alpha virt. eigenvalues --   -0.11187  -0.06976  -0.06516  -0.01205  -0.00720
 Alpha virt. eigenvalues --    0.00242   0.00805   0.01584   0.02647   0.03244
 Alpha virt. eigenvalues --    0.03440   0.03847   0.04341   0.04686   0.04845

 Mulliken charges:
               1
     1  O   -0.211207
     2  O   -0.248238
     3  O   -0.235766
     4  O   -0.217336
     5  O   -0.197194
     6  O   -0.202998
     7  N   -0.090137
     8  N   -0.281675
     9  N   -0.026883
    10  N   -0.332097
    11  C    0.083419
    12  C    0.230759
    13  C   -0.082981
    14  C   -0.187656
    15  C   -0.073064
    16  C    0.080242
    17  C   -0.164540
    18  C    0.033537
    19  C   -0.078402
    20  C   -0.058469
    21  C    0.005838
    22  C    0.157893
    23  C   -0.040639
    24  C    0.149808
    25  C    0.040837
    26  C   -0.183295
    27  C   -0.029408
    28  C    0.124087
    29  C    0.061506
    30  C   -0.067216
    31  C    0.053872
    32  C    0.141366
    33  C   -0.124126
    34  C    0.167344
    35  C    0.103170
    36  C   -0.015973
    37  C    0.127554
    38  C    0.037911
    39  C   -0.179939
    40  C    0.140474
    41  C   -0.093570
    42  C    0.068494
    43  C   -0.006937
    44  H    0.025763
    45  H    0.004233
    46  H   -0.026587
    47  H    0.126195
    48  H    0.192193
    49  H    0.005250
    50  H    0.019374
    51  H   -0.036444
    52  H    0.001257
    53  H    0.026735
    54  H    0.027489
    55  H    0.031654
    56  H    0.041643
    57  H    0.050120
    58  H    0.115701
    59  H    0.027629
    60  H    0.147068
    61  H    0.000743
    62  H    0.046545
    63  H    0.054772
    64  H    0.007004
    65  H    0.056865
    66  H    0.008099
    67  H    0.004521
    68  H    0.030357
    69  H   -0.015361
    70  H    0.028591
    71  H    0.031335
    72  H    0.221855
    73  H    0.024905
    74  H    0.044545
    75  H    0.041436
    76  H    0.019774
    77  H    0.179812
    78  H    0.033390
    79  H    0.023176
 Sum of Mulliken charges =  -0.00000

 Dipole moment (field-independent basis, Debye):
    X=              0.7567    Y=              2.7148    Z=              2.8709  Tot=              4.0230
 Quadrupole moment (field-independent basis, Debye-Ang):
   XX=           -223.2483   YY=           -244.2270   ZZ=           -266.9270
   XY=             -2.2894   XZ=             32.9872   YZ=              0.0454

 Normal termination of Gaussian 16 at Thu Sep 19 20:10:53 2019.
