 Gaussian 16, Revision A.03,
 Gaussian 16:  ES64L-G16RevA.03 25-Dec-2016

 --------------------------
 # td=(NStates=1) B3LYP/SVP
 --------------------------

 --
 TD
 --
 Symbolic Z-matrix:
 Charge =  0 Multiplicity = 1

                         Standard orientation:
 ---------------------------------------------------------------------
 Center     Atomic      Atomic             Coordinates (Angstroms)
 Number     Number       Type             X           Y           Z
 ---------------------------------------------------------------------
      1          8           0       -3.284988   -1.190100   -2.950701
      2          8           0        3.078215    2.694246    3.301021
      3          8           0        3.653492    1.036745    4.535153
      4          8           0        7.623353   -1.312293   -0.843043
      5          8           0        6.663855   -3.008513   -2.049074
      6          8           0       -2.552931    1.486754    1.569521
      7          7           0       -0.299988   -2.497117    0.621258
      8          7           0       -2.723472   -1.079834   -0.747694
      9          7           0        1.139528    0.150130   -0.747683
     10          7           0       -1.036990    1.545556   -0.154611
     11          6           0       -3.329582   -1.344790    0.497231
     12          6           0       -2.669036   -2.543212    1.435176
     13          6           0       -1.248987   -2.235001    1.543323
     14          6           0       -0.478113   -1.642468    2.748617
     15          6           0        0.859541   -1.478207    2.373329
     16          6           0        0.968222   -2.042348    1.053368
     17          6           0       -4.829017   -1.810528    0.036548
     18          6           0        1.894906   -0.794936    2.961967
     19          6           0       -4.774632   -1.901326   -1.256129
     20          6           0        2.104859   -2.010552    0.121917
     21          6           0        2.076923   -0.878427   -0.796660
     22          6           0       -3.487148   -1.435687   -1.769285
     23          6           0        3.081256   -0.468985   -1.874188
     24          6           0       -1.187183   -1.101209    3.832569
     25          6           0       -5.747719   -2.136777    1.205569
     26          6           0        2.560831    0.703641   -2.441155
     27          6           0        1.875412    0.770860    2.922595
     28          6           0        1.451484    1.056309   -1.661378
     29          6           0        4.255497   -1.257643   -2.281300
     30          6           0       -5.871056   -2.284947   -2.269668
     31          6           0        5.373248   -0.922985   -1.372914
     32          6           0        3.144116    1.514267   -3.576838
     33          6           0        0.538748    2.202634   -1.768796
     34          6           0        2.999520    1.526334    3.657427
     35          6           0       -0.583695    2.343076   -1.049575
     36          6           0       -7.173351   -2.829472   -1.978008
     37          6           0        6.638291   -1.850045   -1.488455
     38          6           0       -1.391805    3.687042   -0.908126
     39          6           0       -2.250742    3.414478    0.195942
     40          6           0       -1.897970    2.083148    0.665331
     41          6           0       -1.231101    4.888694   -1.778468
     42          6           0       -3.409259    4.253639    0.848212
     43          6           0       -1.869827    5.974523   -1.767197
     44          1           0       -3.531100   -0.412573    1.062931
     45          1           0       -2.958104   -3.337814    1.076225
     46          1           0       -3.176301   -2.550500    2.422490
     47          1           0       -0.473324   -3.000669   -0.234622
     48          1           0       -1.988426   -0.338250   -1.031505
     49          1           0        1.801444   -0.940190    4.105396
     50          1           0        2.809253   -1.321847    2.665162
     51          1           0        2.762079   -2.765287    0.111928
     52          1           0       -2.136295   -1.631145    4.281354
     53          1           0       -0.608502   -0.882575    4.683113
     54          1           0       -1.705709   -0.130957    3.578054
     55          1           0       -5.476099   -1.835569    2.098875
     56          1           0       -6.018030   -3.305381    1.394144
     57          1           0       -6.744583   -1.730839    0.890454
     58          1           0        2.089654    1.154507    1.886616
     59          1           0        0.761698    1.123973    2.841329
     60          1           0        0.291731    0.201878   -0.185685
     61          1           0        4.470992   -0.982638   -3.221564
     62          1           0        4.129059   -2.266451   -2.395060
     63          1           0       -5.841810   -2.016725   -3.314393
     64          1           0        4.905356   -0.932223   -0.310655
     65          1           0        5.722966    0.148797   -1.616330
     66          1           0        3.869693    0.884241   -4.119333
     67          1           0        3.400996    2.378196   -3.235203
     68          1           0        2.392589    1.707653   -4.171803
     69          1           0        0.686654    2.916740   -2.607248
     70          1           0       -7.379700   -3.124626   -0.848765
     71          1           0       -7.753035   -3.068841   -2.891361
     72          1           0        3.717166    3.240988    3.826923
     73          1           0       -0.455165    4.586527   -2.742425
     74          1           0       -4.302535    4.530890   -0.000492
     75          1           0       -3.805589    3.699036    1.790300
     76          1           0       -3.270864    5.306372    1.179982
     77          1           0        8.432058   -1.842200   -1.190729
     78          1           0       -1.614173    6.781427   -2.560823
     79          1           0       -2.361361    6.575624   -0.885074
 ---------------------------------------------------------------------

 SCF Done:  E(RB3LYP) =  -1947.73474018     A.U. after   20 cycles

 Excitation energies and oscillator strengths:

 Excited State   1:      Singlet-A      0.6042 eV 2051.94 nm  f=0.0052  <S**2>=0.000
     155 ->156         0.70552
 This state for optimization and/or second-order correction.
 Total Energy, E(TD-HF/TD-DFT) =  -1947.71253518
 Copying the excited state density for this state as the 1-particle RhoCI density.

 The electronic state is 1-A.
 Alpha  occ. eigenvalues --  -19.22189 -19.19798 -19.14179 -19.10531 -19.10132
 Alpha  occ. eigenvalues --  -19.07092 -14.38730 -14.38022 -14.33432 -14.29568
 Alpha  occ. eigenvalues --  -10.34582 -10.31195 -10.27270 -10.27220 -10.26530
 Alpha  occ. eigenvalues --  -10.25338 -10.24174 -10.24138 -10.23634 -10.23608
 Alpha  occ. eigenvalues --  -10.23018 -10.22284 -10.21838 -10.21572 -10.21281
 Alpha  occ. eigenvalues --  -10.21074 -10.20902 -10.20763 -10.20731 -10.20322
 Alpha  occ. eigenvalues --  -10.20258 -10.20241 -10.20099 -10.19948 -10.19908
 Alpha  occ. eigenvalues --  -10.19557 -10.19477 -10.18623 -10.18623 -10.18181
 Alpha  occ. eigenvalues --  -10.17362 -10.17114 -10.16709  -1.14582  -1.12969
 Alpha  occ. eigenvalues --   -1.01724  -1.00741  -1.00627  -1.00556  -0.99288
 Alpha  occ. eigenvalues --   -0.96404  -0.94332  -0.92424  -0.85759  -0.82801
 Alpha  occ. eigenvalues --   -0.81696  -0.80332  -0.80135  -0.79830  -0.78466
 Alpha  occ. eigenvalues --   -0.76374  -0.75642  -0.74916  -0.74809  -0.73011
 Alpha  occ. eigenvalues --   -0.71863  -0.71104  -0.70079  -0.69447  -0.67859
 Alpha  occ. eigenvalues --   -0.67086  -0.65626  -0.63667  -0.62736  -0.62129
 Alpha  occ. eigenvalues --   -0.61321  -0.59736  -0.59412  -0.58370  -0.57496
 Alpha  occ. eigenvalues --   -0.56815  -0.56595  -0.55544  -0.52723  -0.52636
 Alpha  occ. eigenvalues --   -0.52290  -0.51528  -0.51497  -0.50950  -0.50507
 Alpha  occ. eigenvalues --   -0.50429  -0.49178  -0.49003  -0.48929  -0.48621
 Alpha  occ. eigenvalues --   -0.48319  -0.47875  -0.47640  -0.46215  -0.46159
 Alpha  occ. eigenvalues --   -0.45650  -0.45271  -0.45107  -0.44738  -0.44669
 Alpha  occ. eigenvalues --   -0.44294  -0.44073  -0.43926  -0.43426  -0.42396
 Alpha  occ. eigenvalues --   -0.42190  -0.42002  -0.41609  -0.41447  -0.41367
 Alpha  occ. eigenvalues --   -0.40718  -0.40545  -0.39889  -0.39076  -0.39045
 Alpha  occ. eigenvalues --   -0.38788  -0.38397  -0.38115  -0.37984  -0.37761
 Alpha  occ. eigenvalues --   -0.37635  -0.37298  -0.37034  -0.36608  -0.36120
 Alpha  occ. eigenvalues --   -0.35717  -0.35473  -0.34964  -0.34273  -0.33658
 Alpha  occ. eigenvalues --   -0.33156  -0.33018  -0.32009  -0.31862  -0.31288
 Alpha  occ. eigenvalues --   -0.30767  -0.29621  -0.29230  -0.28897  -0.28031
 Alpha  occ. eigenvalues --   -0.27216  -0.26793  -0.24841  -0.24216  -0.23345
 Alpha  occ. eigenvalues --   -0.23280  -0.22984  -0.22427  -0.22317  -0.17804
 Alpha virt. eigenvalues --   -0.13051  -0.07566  -0.03635  -0.03150  -0.00684
 Alpha virt. eigenvalues --    0.01134   0.01401   0.02029   0.02283   0.02530
 Alpha virt. eigenvalues --    0.02919   0.03202   0.03608   0.04702   0.04812

 Mulliken charges:
               1
     1  O   -0.257827
     2  O   -0.068679
     3  O   -0.231814
     4  O   -0.136117
     5  O   -0.295833
     6  O   -0.267393
     7  N   -0.041081
     8  N   -0.153809
     9  N   -0.020883
    10  N   -0.206698
    11  C    0.006311
    12  C    0.341598
    13  C   -0.093909
    14  C   -0.073647
    15  C   -0.047534
    16  C   -0.060691
    17  C   -0.177899
    18  C    0.106297
    19  C   -0.007788
    20  C   -0.009155
    21  C    0.083755
    22  C    0.076755
    23  C   -0.158786
    24  C    0.038665
    25  C    0.102900
    26  C   -0.187798
    27  C   -0.087272
    28  C    0.070376
    29  C    0.281236
    30  C   -0.036284
    31  C   -0.093739
    32  C    0.321697
    33  C   -0.097282
    34  C    0.084274
    35  C    0.084843
    36  C   -0.075802
    37  C    0.163720
    38  C   -0.015159
    39  C   -0.142631
    40  C    0.126176
    41  C    0.019215
    42  C   -0.012537
    43  C   -0.106644
    44  H    0.060472
    45  H   -0.120788
    46  H   -0.009445
    47  H    0.112539
    48  H    0.167308
    49  H    0.017305
    50  H   -0.003128
    51  H   -0.024408
    52  H   -0.001274
    53  H   -0.018819
    54  H    0.037186
    55  H   -0.022117
    56  H    0.040065
    57  H    0.040731
    58  H    0.003564
    59  H    0.071696
    60  H    0.168980
    61  H   -0.053687
    62  H   -0.004653
    63  H    0.009641
    64  H    0.073655
    65  H    0.046009
    66  H    0.020797
    67  H   -0.023949
    68  H   -0.028799
    69  H   -0.019311
    70  H    0.032138
    71  H    0.036487
    72  H    0.196231
    73  H    0.029418
    74  H    0.043910
    75  H    0.054738
    76  H    0.026079
    77  H    0.214550
    78  H    0.031733
    79  H    0.052019
 Sum of Mulliken charges =  -0.00000

 Dipole moment (field-independent basis, Debye):
    X=              5.9263    Y=              3.4574    Z=             -1.4713  Tot=              7.0171
 Quadrupole moment (field-independent basis, Debye-Ang):
   XX=           -229.7761   YY=           -236.3208   ZZ=           -269.4400
   XY=             14.4490   XZ=            -28.9146   YZ=             -6.7140

 Normal termination of Gaussian 16 at Sun Jul 28 09:51:59 2019.
