 Gaussian 16, Revision A.03,
 Gaussian 16:  ES64L-G16RevA.03 25-Dec-2016

 --------------------------
 # td=(NStates=1) B3LYP/SVP
 --------------------------

 --
 TD
 --
 Symbolic Z-matrix:
 Charge =  0 Multiplicity = 1

                         Standard orientation:
 ---------------------------------------------------------------------
 Center     Atomic      Atomic             Coordinates (Angstroms)
 Number     Number       Type             X           Y           Z
 ---------------------------------------------------------------------
      1          8           0       -3.453575   -1.562358   -2.864949
      2          8           0        3.189614    3.373476    2.743152
      3          8           0        3.869246    1.755618    4.193273
      4          8           0        7.701752   -1.679193   -0.840263
      5          8           0        6.594110   -3.291846   -1.850461
      6          8           0       -2.706984    1.615702    1.359569
      7          7           0       -0.184081   -2.361702    1.111219
      8          7           0       -2.598425   -1.345430   -0.574201
      9          7           0        1.155220    0.028303   -0.744213
     10          7           0       -1.128738    1.388577   -0.324992
     11          6           0       -3.344232   -1.311938    0.686557
     12          6           0       -2.605491   -2.256891    1.732826
     13          6           0       -1.167854   -1.878411    1.933281
     14          6           0       -0.547332   -1.034763    2.945060
     15          6           0        0.781819   -0.927380    2.639805
     16          6           0        0.981960   -1.747625    1.467083
     17          6           0       -4.753051   -1.849260    0.402243
     18          6           0        1.792390   -0.126228    3.321321
     19          6           0       -4.829714   -2.158520   -0.959539
     20          6           0        2.097806   -1.834687    0.526548
     21          6           0        2.118253   -0.956584   -0.544672
     22          6           0       -3.582415   -1.590578   -1.602209
     23          6           0        3.009016   -0.839031   -1.575209
     24          6           0       -1.246409   -0.332819    3.972599
     25          6           0       -5.803444   -1.978287    1.409291
     26          6           0        2.567615    0.320560   -2.358250
     27          6           0        2.038613    1.296585    2.643564
     28          6           0        1.419304    0.824397   -1.774060
     29          6           0        4.150319   -1.625529   -1.954094
     30          6           0       -5.935640   -2.520637   -1.933853
     31          6           0        5.395336   -1.274454   -1.194141
     32          6           0        3.101236    0.884196   -3.665706
     33          6           0        0.571109    1.933618   -2.137507
     34          6           0        3.094665    2.159860    3.270521
     35          6           0       -0.642923    2.148574   -1.344762
     36          6           0       -6.860676   -3.319260   -1.483429
     37          6           0        6.563197   -2.139884   -1.368235
     38          6           0       -1.449129    3.470412   -1.430889
     39          6           0       -2.299954    3.390479   -0.400716
     40          6           0       -2.219003    2.036293    0.335901
     41          6           0       -1.203796    4.508433   -2.433513
     42          6           0       -3.468349    4.265626    0.049953
     43          6           0       -1.848066    5.735759   -2.519236
     44          1           0       -3.392982   -0.347834    1.074231
     45          1           0       -2.810795   -3.143494    1.422388
     46          1           0       -3.245457   -2.419906    2.644086
     47          1           0       -0.319959   -2.864685    0.288986
     48          1           0       -1.939386   -0.437368   -0.734099
     49          1           0        1.889631    0.057363    4.516638
     50          1           0        2.908090   -0.498311    3.307367
     51          1           0        2.944559   -2.543374    0.401100
     52          1           0       -2.084484   -0.987517    4.289945
     53          1           0       -0.588012    0.103885    4.650221
     54          1           0       -1.958329    0.349686    3.251646
     55          1           0       -5.733867   -1.141372    2.282807
     56          1           0       -5.766248   -2.884866    1.823065
     57          1           0       -6.677943   -2.160125    0.983739
     58          1           0        2.243915    1.353832    1.563119
     59          1           0        1.120818    2.126730    2.595559
     60          1           0        0.203475    0.073774   -0.142569
     61          1           0        4.432548   -1.315243   -3.026402
     62          1           0        4.168217   -2.710875   -1.963814
     63          1           0       -5.629536   -2.357936   -2.857273
     64          1           0        5.372599   -1.205282   -0.078103
     65          1           0        5.763778   -0.221725   -1.263817
     66          1           0        3.664573   -0.126308   -4.293913
     67          1           0        3.754506    1.804251   -3.591850
     68          1           0        2.233756    1.274813   -4.389213
     69          1           0        0.689343    2.699026   -2.847515
     70          1           0       -7.029262   -3.762069   -0.598419
     71          1           0       -7.624518   -3.776226   -2.035924
     72          1           0        3.857576    3.757134    3.402037
     73          1           0       -0.374417    4.232387   -3.194272
     74          1           0       -3.954853    4.995982   -0.685286
     75          1           0       -4.315905    3.536088    0.640640
     76          1           0       -3.313662    5.156358    0.886713
     77          1           0        8.402126   -2.254132   -1.171325
     78          1           0       -1.579625    6.594390   -3.321819
     79          1           0       -2.822353    5.751374   -1.965133
 ---------------------------------------------------------------------

 SCF Done:  E(RB3LYP) =  -1947.76484985     A.U. after   19 cycles

 Excitation energies and oscillator strengths:

 Excited State   1:      Singlet-A      0.7456 eV 1662.81 nm  f=0.0004  <S**2>=0.000
     155 ->156         0.70344
 This state for optimization and/or second-order correction.
 Total Energy, E(TD-HF/TD-DFT) =  -1947.73744836
 Copying the excited state density for this state as the 1-particle RhoCI density.

 The electronic state is 1-A.
 Alpha  occ. eigenvalues --  -19.19659 -19.19051 -19.13670 -19.12938 -19.12093
 Alpha  occ. eigenvalues --  -19.08518 -14.37882 -14.37472 -14.33367 -14.31544
 Alpha  occ. eigenvalues --  -10.33117 -10.32111 -10.29531 -10.26874 -10.26506
 Alpha  occ. eigenvalues --  -10.26137 -10.25073 -10.24366 -10.24015 -10.23146
 Alpha  occ. eigenvalues --  -10.22941 -10.22861 -10.22771 -10.22587 -10.22390
 Alpha  occ. eigenvalues --  -10.22343 -10.22054 -10.21779 -10.21758 -10.21639
 Alpha  occ. eigenvalues --  -10.21570 -10.21485 -10.21271 -10.20729 -10.20689
 Alpha  occ. eigenvalues --  -10.18636 -10.18475 -10.18453 -10.18107 -10.18065
 Alpha  occ. eigenvalues --  -10.17458 -10.17067 -10.16945  -1.11060  -1.10314
 Alpha  occ. eigenvalues --   -1.04628  -1.00952  -0.99402  -0.98065  -0.97985
 Alpha  occ. eigenvalues --   -0.97648  -0.92610  -0.90192  -0.85270  -0.82704
 Alpha  occ. eigenvalues --   -0.81443  -0.81040  -0.80410  -0.79720  -0.78321
 Alpha  occ. eigenvalues --   -0.76944  -0.76623  -0.75654  -0.74546  -0.73389
 Alpha  occ. eigenvalues --   -0.71455  -0.70435  -0.70222  -0.69245  -0.68096
 Alpha  occ. eigenvalues --   -0.67540  -0.65673  -0.63246  -0.61552  -0.61210
 Alpha  occ. eigenvalues --   -0.60561  -0.59631  -0.59382  -0.58096  -0.56848
 Alpha  occ. eigenvalues --   -0.56390  -0.55642  -0.54255  -0.53779  -0.53284
 Alpha  occ. eigenvalues --   -0.52909  -0.52038  -0.51855  -0.50503  -0.49392
 Alpha  occ. eigenvalues --   -0.49205  -0.49134  -0.48769  -0.48442  -0.48201
 Alpha  occ. eigenvalues --   -0.47559  -0.47294  -0.47179  -0.46678  -0.46022
 Alpha  occ. eigenvalues --   -0.45465  -0.45255  -0.45134  -0.44542  -0.43987
 Alpha  occ. eigenvalues --   -0.43737  -0.43627  -0.43242  -0.43031  -0.42809
 Alpha  occ. eigenvalues --   -0.42742  -0.42275  -0.42188  -0.41739  -0.41130
 Alpha  occ. eigenvalues --   -0.41043  -0.40308  -0.39842  -0.39579  -0.39367
 Alpha  occ. eigenvalues --   -0.39220  -0.38739  -0.38182  -0.37966  -0.37925
 Alpha  occ. eigenvalues --   -0.37439  -0.37225  -0.37073  -0.36592  -0.36135
 Alpha  occ. eigenvalues --   -0.35990  -0.35846  -0.35584  -0.35193  -0.34807
 Alpha  occ. eigenvalues --   -0.34676  -0.32555  -0.32471  -0.32208  -0.31498
 Alpha  occ. eigenvalues --   -0.31030  -0.30150  -0.29828  -0.29549  -0.28653
 Alpha  occ. eigenvalues --   -0.27555  -0.26456  -0.26301  -0.24997  -0.24067
 Alpha  occ. eigenvalues --   -0.23706  -0.23220  -0.22483  -0.22268  -0.18752
 Alpha virt. eigenvalues --   -0.13252  -0.08696  -0.03836  -0.02792  -0.01557
 Alpha virt. eigenvalues --   -0.00458   0.00686   0.01421   0.01680   0.03239
 Alpha virt. eigenvalues --    0.03714   0.03924   0.04425   0.04869   0.05228

 Mulliken charges:
               1
     1  O   -0.292220
     2  O   -0.168969
     3  O   -0.306087
     4  O   -0.164162
     5  O   -0.272341
     6  O   -0.184188
     7  N    0.007853
     8  N   -0.293369
     9  N   -0.127167
    10  N   -0.367078
    11  C    0.097685
    12  C    0.246465
    13  C   -0.072293
    14  C   -0.150271
    15  C    0.049729
    16  C   -0.016157
    17  C   -0.229870
    18  C   -0.022450
    19  C   -0.102042
    20  C   -0.052804
    21  C    0.035347
    22  C    0.175456
    23  C   -0.008643
    24  C    0.127576
    25  C    0.235878
    26  C   -0.111072
    27  C   -0.053612
    28  C    0.169682
    29  C    0.126662
    30  C    0.138066
    31  C   -0.020838
    32  C   -0.045250
    33  C   -0.050206
    34  C    0.137295
    35  C    0.067286
    36  C    0.027310
    37  C    0.110402
    38  C    0.060327
    39  C   -0.164601
    40  C    0.213538
    41  C   -0.041200
    42  C   -0.072560
    43  C   -0.058442
    44  H    0.013583
    45  H   -0.106023
    46  H   -0.014385
    47  H    0.099753
    48  H    0.186530
    49  H    0.051886
    50  H    0.020987
    51  H    0.000694
    52  H   -0.008747
    53  H    0.003506
    54  H    0.058082
    55  H    0.051869
    56  H   -0.024803
    57  H   -0.048183
    58  H    0.033924
    59  H    0.051995
    60  H    0.234328
    61  H    0.013775
    62  H    0.034632
    63  H   -0.037615
    64  H    0.044781
    65  H    0.025191
    66  H    0.065214
    67  H    0.054666
    68  H    0.056768
    69  H   -0.054271
    70  H   -0.031265
    71  H   -0.013242
    72  H    0.195552
    73  H    0.020099
    74  H    0.041444
    75  H    0.068633
    76  H    0.048272
    77  H    0.184147
    78  H    0.066539
    79  H    0.033016
 Sum of Mulliken charges =  -0.00000

 Dipole moment (field-independent basis, Debye):
    X=              2.5856    Y=              3.1413    Z=             -0.8174  Tot=              4.1498
 Quadrupole moment (field-independent basis, Debye-Ang):
   XX=           -236.8288   YY=           -238.5499   ZZ=           -269.0220
   XY=              9.2017   XZ=            -27.0246   YZ=            -17.2432

 Normal termination of Gaussian 16 at Mon Jul 29 10:28:25 2019.
