 Gaussian 16, Revision A.03,
 Gaussian 16:  ES64L-G16RevA.03 25-Dec-2016

 --------------------------
 # td=(NStates=1) B3LYP/SVP
 --------------------------

 --
 TD
 --
 Symbolic Z-matrix:
 Charge =  0 Multiplicity = 1

                         Standard orientation:
 ---------------------------------------------------------------------
 Center     Atomic      Atomic             Coordinates (Angstroms)
 Number     Number       Type             X           Y           Z
 ---------------------------------------------------------------------
      1          8           0       -3.299585   -0.698486   -3.044456
      2          8           0        3.000081    2.172894    3.843612
      3          8           0        3.810569    0.146578    4.470511
      4          8           0        7.789921   -1.215805   -1.101788
      5          8           0        6.705377   -2.511617   -2.618996
      6          8           0       -2.614744    1.307997    1.658991
      7          7           0       -0.330165   -2.649023    0.291282
      8          7           0       -2.731377   -1.117896   -0.910030
      9          7           0        1.198200    0.234686   -0.651390
     10          7           0       -0.947179    1.619185    0.142224
     11          6           0       -3.361515   -1.472665    0.318354
     12          6           0       -2.694747   -2.711432    1.011520
     13          6           0       -1.279728   -2.466267    1.256498
     14          6           0       -0.646783   -1.900583    2.473516
     15          6           0        0.627734   -1.761308    2.089729
     16          6           0        0.819586   -2.176250    0.833918
     17          6           0       -4.861038   -1.836702   -0.070144
     18          6           0        1.790940   -1.192556    3.064765
     19          6           0       -4.955356   -1.657954   -1.417457
     20          6           0        2.037885   -1.894907    0.016017
     21          6           0        2.185462   -0.723547   -0.771530
     22          6           0       -3.683312   -1.145573   -1.985584
     23          6           0        3.042778   -0.336558   -1.851082
     24          6           0       -1.385447   -1.385949    3.716278
     25          6           0       -5.878959   -2.266129    0.888266
     26          6           0        2.683724    0.984526   -2.303063
     27          6           0        1.959598    0.339535    2.895033
     28          6           0        1.477386    1.314186   -1.469052
     29          6           0        4.259361   -1.107204   -2.213210
     30          6           0       -5.998135   -1.823970   -2.339113
     31          6           0        5.444458   -0.805663   -1.299012
     32          6           0        3.318129    1.864553   -3.327368
     33          6           0        0.581641    2.436562   -1.588712
     34          6           0        3.040341    0.809290    3.864923
     35          6           0       -0.464654    2.545074   -0.601749
     36          6           0       -7.105131   -2.670218   -2.383813
     37          6           0        6.675379   -1.554297   -1.774122
     38          6           0       -1.365674    3.826801   -0.461935
     39          6           0       -2.282286    3.499089    0.410436
     40          6           0       -1.994036    2.083154    0.867313
     41          6           0       -1.203733    5.040361   -1.281429
     42          6           0       -3.299865    4.260533    1.234331
     43          6           0       -1.808105    6.302257   -1.155794
     44          1           0       -3.293234   -0.788045    1.108459
     45          1           0       -2.745874   -3.505229    0.116310
     46          1           0       -3.223497   -2.914777    1.897384
     47          1           0       -0.483761   -3.021088   -0.633895
     48          1           0       -2.148531   -0.315619   -1.104546
     49          1           0        1.608023   -1.618000    4.048045
     50          1           0        2.719772   -1.745856    2.521792
     51          1           0        2.878583   -2.718860   -0.164526
     52          1           0       -2.199903   -2.143571    3.898174
     53          1           0       -0.541616   -1.224307    4.420239
     54          1           0       -2.006286   -0.476649    3.490424
     55          1           0       -5.866568   -1.719153    1.865074
     56          1           0       -5.868895   -3.368823    1.185846
     57          1           0       -6.842359   -2.070632    0.317419
     58          1           0        2.463794    0.410800    1.775792
     59          1           0        1.155287    0.723174    3.004983
     60          1           0        0.370930    0.435021   -0.031176
     61          1           0        4.439529   -0.801998   -3.317923
     62          1           0        3.992530   -2.213563   -2.327811
     63          1           0       -5.733469   -1.194409   -3.369705
     64          1           0        5.193357   -1.106786   -0.115490
     65          1           0        5.636343    0.418462   -1.420551
     66          1           0        4.173120    1.248862   -3.743117
     67          1           0        3.770656    2.920343   -2.884512
     68          1           0        2.612108    2.082577   -4.080990
     69          1           0        0.809535    3.203113   -2.167948
     70          1           0       -7.392079   -3.331223   -1.398342
     71          1           0       -7.864239   -2.655898   -3.316438
     72          1           0        3.707305    2.579529    4.334887
     73          1           0       -0.622874    4.940402   -2.063180
     74          1           0       -3.800320    4.948776    0.726923
     75          1           0       -3.948618    3.602222    1.736563
     76          1           0       -2.678469    5.023212    1.805810
     77          1           0        8.312716   -1.791634   -1.435423
     78          1           0       -1.522824    6.908649   -1.922368
     79          1           0       -2.574863    6.562680   -0.404149
 ---------------------------------------------------------------------

 SCF Done:  E(RB3LYP) =  -1947.79629836     A.U. after   17 cycles

 Excitation energies and oscillator strengths:

 Excited State   1:      Singlet-A      0.9493 eV 1306.03 nm  f=0.0001  <S**2>=0.000
     155 ->156         0.70404
 This state for optimization and/or second-order correction.
 Total Energy, E(TD-HF/TD-DFT) =  -1947.76141151
 Copying the excited state density for this state as the 1-particle RhoCI density.

 The electronic state is 1-A.
 Alpha  occ. eigenvalues --  -19.19608 -19.17272 -19.14263 -19.12836 -19.11750
 Alpha  occ. eigenvalues --  -19.09511 -14.37151 -14.36879 -14.32032 -14.30698
 Alpha  occ. eigenvalues --  -10.34391 -10.31542 -10.28110 -10.27106 -10.26608
 Alpha  occ. eigenvalues --  -10.25582 -10.25556 -10.25124 -10.23616 -10.23598
 Alpha  occ. eigenvalues --  -10.23124 -10.22923 -10.22597 -10.21505 -10.21417
 Alpha  occ. eigenvalues --  -10.21253 -10.20778 -10.20766 -10.20670 -10.20518
 Alpha  occ. eigenvalues --  -10.20349 -10.20305 -10.20122 -10.19969 -10.19854
 Alpha  occ. eigenvalues --  -10.19781 -10.19263 -10.19233 -10.19223 -10.18636
 Alpha  occ. eigenvalues --  -10.18415 -10.16297 -10.15966  -1.13886  -1.09297
 Alpha  occ. eigenvalues --   -1.02012  -1.01505  -1.01299  -1.00032  -0.98783
 Alpha  occ. eigenvalues --   -0.97542  -0.94434  -0.91205  -0.83757  -0.81736
 Alpha  occ. eigenvalues --   -0.81324  -0.81219  -0.80207  -0.78699  -0.78032
 Alpha  occ. eigenvalues --   -0.76799  -0.76633  -0.75317  -0.74289  -0.73192
 Alpha  occ. eigenvalues --   -0.71102  -0.70022  -0.69880  -0.69601  -0.67451
 Alpha  occ. eigenvalues --   -0.66468  -0.65568  -0.63214  -0.61926  -0.61086
 Alpha  occ. eigenvalues --   -0.60202  -0.59795  -0.58828  -0.56897  -0.56374
 Alpha  occ. eigenvalues --   -0.56210  -0.56080  -0.55354  -0.53748  -0.53425
 Alpha  occ. eigenvalues --   -0.51339  -0.50970  -0.50749  -0.50625  -0.50523
 Alpha  occ. eigenvalues --   -0.50034  -0.48918  -0.48446  -0.47925  -0.47496
 Alpha  occ. eigenvalues --   -0.47395  -0.47137  -0.46268  -0.45893  -0.45534
 Alpha  occ. eigenvalues --   -0.45230  -0.44663  -0.44312  -0.44012  -0.43764
 Alpha  occ. eigenvalues --   -0.43428  -0.43254  -0.43091  -0.42942  -0.42206
 Alpha  occ. eigenvalues --   -0.41900  -0.41853  -0.41689  -0.41419  -0.41381
 Alpha  occ. eigenvalues --   -0.40949  -0.40776  -0.40133  -0.40079  -0.39837
 Alpha  occ. eigenvalues --   -0.39619  -0.39512  -0.39110  -0.38834  -0.38232
 Alpha  occ. eigenvalues --   -0.37837  -0.37715  -0.37457  -0.36729  -0.36464
 Alpha  occ. eigenvalues --   -0.36185  -0.35526  -0.35425  -0.34840  -0.34380
 Alpha  occ. eigenvalues --   -0.33724  -0.33193  -0.32726  -0.32313  -0.31617
 Alpha  occ. eigenvalues --   -0.30485  -0.30149  -0.29640  -0.28797  -0.28333
 Alpha  occ. eigenvalues --   -0.28103  -0.26699  -0.26024  -0.25114  -0.24515
 Alpha  occ. eigenvalues --   -0.24159  -0.23856  -0.22833  -0.21728  -0.18198
 Alpha virt. eigenvalues --   -0.12096  -0.07772  -0.05457  -0.03723  -0.02311
 Alpha virt. eigenvalues --    0.00632   0.01343   0.01509   0.02066   0.02892
 Alpha virt. eigenvalues --    0.03989   0.04400   0.04758   0.05514   0.05788

 Mulliken charges:
               1
     1  O   -0.218823
     2  O   -0.194634
     3  O   -0.182421
     4  O   -0.067074
     5  O   -0.286234
     6  O   -0.244754
     7  N   -0.008921
     8  N   -0.208644
     9  N   -0.115228
    10  N   -0.213319
    11  C    0.094695
    12  C    0.183446
    13  C   -0.129698
    14  C   -0.129769
    15  C   -0.096851
    16  C   -0.002238
    17  C   -0.114671
    18  C    0.029671
    19  C   -0.038205
    20  C   -0.160992
    21  C    0.122458
    22  C    0.136287
    23  C   -0.092151
    24  C    0.092385
    25  C    0.030673
    26  C   -0.121972
    27  C    0.107520
    28  C    0.070494
    29  C    0.045094
    30  C   -0.067904
    31  C   -0.077541
    32  C    0.064347
    33  C    0.010445
    34  C    0.126072
    35  C    0.046659
    36  C   -0.116789
    37  C    0.167647
    38  C    0.055971
    39  C   -0.244315
    40  C    0.157219
    41  C   -0.000829
    42  C    0.198327
    43  C    0.028823
    44  H    0.010062
    45  H   -0.017553
    46  H   -0.035228
    47  H    0.116967
    48  H    0.130955
    49  H    0.026765
    50  H    0.014284
    51  H    0.033285
    52  H    0.005250
    53  H    0.015989
    54  H    0.050487
    55  H    0.035801
    56  H    0.051515
    57  H    0.040668
    58  H    0.074541
    59  H   -0.064546
    60  H    0.191336
    61  H    0.033558
    62  H    0.042509
    63  H    0.049253
    64  H    0.100070
    65  H    0.074108
    66  H    0.024983
    67  H    0.062260
    68  H    0.036786
    69  H   -0.084264
    70  H    0.043543
    71  H    0.058718
    72  H    0.163763
    73  H   -0.066836
    74  H   -0.038724
    75  H    0.026278
    76  H    0.027536
    77  H    0.100634
    78  H    0.004017
    79  H    0.026973
 Sum of Mulliken charges =  -0.00000

 Dipole moment (field-independent basis, Debye):
    X=              2.4531    Y=              3.7445    Z=             -0.3458  Tot=              4.4898
 Quadrupole moment (field-independent basis, Debye-Ang):
   XX=           -237.5557   YY=           -234.2313   ZZ=           -268.9859
   XY=             14.5457   XZ=            -18.3355   YZ=             -5.8363

 Normal termination of Gaussian 16 at Mon Jul 29 01:47:28 2019.
