 Gaussian 16, Revision A.03,
 Gaussian 16:  ES64L-G16RevA.03 25-Dec-2016

 --------------------------
 # td=(NStates=1) B3LYP/SVP
 --------------------------

 --
 TD
 --
 Symbolic Z-matrix:
 Charge =  0 Multiplicity = 1

                         Standard orientation:
 ---------------------------------------------------------------------
 Center     Atomic      Atomic             Coordinates (Angstroms)
 Number     Number       Type             X           Y           Z
 ---------------------------------------------------------------------
      1          8           0        5.387011   -0.001455   -3.229936
      2          8           0       -3.364590   -2.792645    3.181182
      3          8           0       -3.442189   -0.522723    2.977123
      4          8           0       -1.532818    7.178753    1.418906
      5          8           0       -0.409972    7.029336   -0.479016
      6          8           0       -1.720652   -4.000486    0.082940
      7          7           0        2.373069    0.956854    0.735080
      8          7           0        4.343464   -0.561201   -1.259801
      9          7           0       -1.875195    0.700567   -0.383850
     10          7           0       -2.470464   -1.902420   -0.622989
     11          6           0        4.706484   -1.276113    0.058392
     12          6           0        4.373874   -0.408541    1.356553
     13          6           0        2.859917   -0.015432    1.351047
     14          6           0        1.916298   -0.660806    2.191692
     15          6           0        0.658646   -0.029203    1.879580
     16          6           0        0.953816    1.009393    0.973245
     17          6           0        6.210755   -1.408269   -0.197069
     18          6           0       -0.644900   -0.194386    2.677829
     19          6           0        6.578026   -0.889937   -1.434731
     20          6           0        0.255931    1.992198    0.193095
     21          6           0       -1.067520    1.818157   -0.319873
     22          6           0        5.384045   -0.432631   -2.087790
     23          6           0       -1.890693    2.877459   -0.869895
     24          6           0        2.029635   -1.806984    3.243031
     25          6           0        7.080435   -2.054499    0.940814
     26          6           0       -3.041811    2.361868   -1.320222
     27          6           0       -1.267075   -1.584076    2.488787
     28          6           0       -2.947630    0.923618   -1.084751
     29          6           0       -1.418183    4.294433   -1.000322
     30          6           0        7.885493   -0.780866   -2.036970
     31          6           0       -1.651176    5.105407    0.298894
     32          6           0       -4.240628    3.003396   -2.012588
     33          6           0       -3.802800   -0.079818   -1.335970
     34          6           0       -2.797883   -1.565775    2.852694
     35          6           0       -3.612354   -1.441491   -1.174420
     36          6           0        9.084344   -1.098974   -1.400920
     37          6           0       -1.248038    6.606192    0.350315
     38          6           0       -4.440450   -2.598083   -1.614114
     39          6           0       -3.836769   -3.649539   -1.085887
     40          6           0       -2.595476   -3.321523   -0.450463
     41          6           0       -5.741766   -2.504806   -2.166341
     42          6           0       -4.332177   -5.163822   -1.067434
     43          6           0       -6.649879   -3.462361   -2.535767
     44          1           0        4.264836   -2.210616    0.278734
     45          1           0        4.941439    0.523783    1.434101
     46          1           0        4.624051   -1.071747    2.110607
     47          1           0        2.861613    1.413183    0.038213
     48          1           0        3.418107   -0.588936   -1.585444
     49          1           0       -0.236396   -0.069549    3.727083
     50          1           0       -1.488752    0.687482    2.427549
     51          1           0        0.645525    2.777529   -0.282789
     52          1           0        3.204224   -1.919294    3.007945
     53          1           0        1.882737   -1.487423    4.338568
     54          1           0        1.264820   -2.558405    2.986892
     55          1           0        6.242362   -2.532091    1.681118
     56          1           0        7.871335   -1.360546    1.612604
     57          1           0        7.646400   -2.844783    0.451444
     58          1           0       -1.364704   -1.788851    1.397567
     59          1           0       -0.934990   -2.402915    3.134308
     60          1           0       -1.585785   -0.332300   -0.234124
     61          1           0       -1.998749    4.800786   -1.781579
     62          1           0       -0.303632    4.419636   -1.151662
     63          1           0        7.766437   -0.356304   -2.881925
     64          1           0       -1.283778    4.647403    1.191724
     65          1           0       -2.776232    4.964394    0.521183
     66          1           0       -3.918408    4.046154   -2.488317
     67          1           0       -5.119465    2.920234   -1.422601
     68          1           0       -4.357776    2.385094   -2.920601
     69          1           0       -4.662737    0.159543   -1.885238
     70          1           0        9.431712   -1.335875   -0.440130
     71          1           0        9.908647   -0.853690   -2.077910
     72          1           0       -4.231564   -2.648016    3.107434
     73          1           0       -5.857252   -1.549486   -2.518704
     74          1           0       -5.086149   -5.544829   -0.391735
     75          1           0       -4.774401   -5.419946   -2.113281
     76          1           0       -3.301803   -5.937048   -0.772352
     77          1           0       -1.046890    7.943597    1.461214
     78          1           0       -7.727513   -3.200270   -2.704447
     79          1           0       -6.350637   -4.543858   -2.106779
 ---------------------------------------------------------------------

 SCF Done:  E(RB3LYP) =  -1947.82003528     A.U. after   17 cycles

 Excitation energies and oscillator strengths:

 Excited State   1:      Singlet-A      1.9764 eV  627.31 nm  f=0.4424  <S**2>=0.000
     154 ->156         0.13155
     155 ->156         0.69398
     155 <-156        -0.12325
 This state for optimization and/or second-order correction.
 Total Energy, E(TD-HF/TD-DFT) =  -1947.74740209
 Copying the excited state density for this state as the 1-particle RhoCI density.

 The electronic state is 1-A.
 Alpha  occ. eigenvalues --  -19.21124 -19.16577 -19.12064 -19.11856 -19.10181
 Alpha  occ. eigenvalues --  -19.09654 -14.39297 -14.36276 -14.36243 -14.28364
 Alpha  occ. eigenvalues --  -10.32912 -10.31341 -10.28031 -10.26398 -10.25943
 Alpha  occ. eigenvalues --  -10.24286 -10.23966 -10.23912 -10.23836 -10.23397
 Alpha  occ. eigenvalues --  -10.23148 -10.22820 -10.22743 -10.21985 -10.21786
 Alpha  occ. eigenvalues --  -10.21271 -10.21233 -10.21109 -10.21060 -10.20921
 Alpha  occ. eigenvalues --  -10.20614 -10.20450 -10.20401 -10.20361 -10.20229
 Alpha  occ. eigenvalues --  -10.19922 -10.19887 -10.19764 -10.19676 -10.19633
 Alpha  occ. eigenvalues --  -10.19604 -10.19526 -10.17765  -1.16229  -1.08554
 Alpha  occ. eigenvalues --   -1.02923  -1.02205  -1.00587  -1.00013  -0.99709
 Alpha  occ. eigenvalues --   -0.99214  -0.94081  -0.91873  -0.83366  -0.82455
 Alpha  occ. eigenvalues --   -0.82326  -0.81343  -0.80589  -0.80017  -0.77889
 Alpha  occ. eigenvalues --   -0.77734  -0.76506  -0.75363  -0.74038  -0.72665
 Alpha  occ. eigenvalues --   -0.71737  -0.71143  -0.70110  -0.69433  -0.68713
 Alpha  occ. eigenvalues --   -0.67447  -0.66618  -0.64933  -0.63318  -0.63287
 Alpha  occ. eigenvalues --   -0.61568  -0.59941  -0.58890  -0.58538  -0.57928
 Alpha  occ. eigenvalues --   -0.56819  -0.56164  -0.55871  -0.54779  -0.54453
 Alpha  occ. eigenvalues --   -0.52692  -0.52504  -0.51461  -0.51094  -0.50140
 Alpha  occ. eigenvalues --   -0.50090  -0.49320  -0.49148  -0.48554  -0.47745
 Alpha  occ. eigenvalues --   -0.47287  -0.47132  -0.46730  -0.46364  -0.46134
 Alpha  occ. eigenvalues --   -0.45759  -0.45127  -0.44694  -0.44376  -0.44013
 Alpha  occ. eigenvalues --   -0.43742  -0.43635  -0.43083  -0.42875  -0.42590
 Alpha  occ. eigenvalues --   -0.42553  -0.42241  -0.42013  -0.41579  -0.41424
 Alpha  occ. eigenvalues --   -0.41226  -0.40935  -0.40729  -0.39745  -0.39649
 Alpha  occ. eigenvalues --   -0.39413  -0.39049  -0.38955  -0.38647  -0.38405
 Alpha  occ. eigenvalues --   -0.38117  -0.37901  -0.37542  -0.37448  -0.36163
 Alpha  occ. eigenvalues --   -0.35613  -0.35464  -0.35255  -0.34988  -0.34938
 Alpha  occ. eigenvalues --   -0.34404  -0.32931  -0.32686  -0.32386  -0.32010
 Alpha  occ. eigenvalues --   -0.31383  -0.31142  -0.29136  -0.27869  -0.27519
 Alpha  occ. eigenvalues --   -0.27141  -0.26698  -0.26443  -0.25868  -0.25492
 Alpha  occ. eigenvalues --   -0.24371  -0.23814  -0.23727  -0.22416  -0.18661
 Alpha virt. eigenvalues --   -0.10972  -0.07197  -0.06785  -0.01113  -0.00778
 Alpha virt. eigenvalues --    0.00130   0.00676   0.01293   0.02144   0.03325
 Alpha virt. eigenvalues --    0.03944   0.04460   0.05048   0.05499   0.05955

 Mulliken charges:
               1
     1  O   -0.234712
     2  O   -0.151392
     3  O   -0.248434
     4  O   -0.015787
     5  O   -0.290762
     6  O   -0.209729
     7  N    0.062680
     8  N   -0.169501
     9  N   -0.042482
    10  N   -0.360170
    11  C    0.087171
    12  C    0.243501
    13  C   -0.198254
    14  C   -0.154955
    15  C   -0.076963
    16  C    0.095496
    17  C   -0.160343
    18  C    0.009847
    19  C   -0.049504
    20  C    0.007681
    21  C    0.019596
    22  C    0.122182
    23  C   -0.097634
    24  C    0.042236
    25  C   -0.016009
    26  C   -0.129156
    27  C    0.002286
    28  C    0.076665
    29  C    0.128961
    30  C    0.106814
    31  C   -0.063733
    32  C    0.114935
    33  C   -0.077721
    34  C    0.115249
    35  C    0.068621
    36  C   -0.005498
    37  C    0.116971
    38  C    0.079785
    39  C   -0.155160
    40  C    0.161264
    41  C   -0.009798
    42  C   -0.034709
    43  C   -0.051498
    44  H    0.019300
    45  H    0.002586
    46  H   -0.030349
    47  H    0.092341
    48  H    0.114497
    49  H    0.022278
    50  H    0.077370
    51  H   -0.075699
    52  H    0.015281
    53  H    0.042397
    54  H    0.063906
    55  H    0.034925
    56  H    0.076434
    57  H    0.052273
    58  H    0.092410
    59  H    0.040560
    60  H    0.177968
    61  H    0.006409
    62  H    0.030130
    63  H   -0.078909
    64  H    0.026962
    65  H    0.024771
    66  H    0.034554
    67  H    0.033698
    68  H    0.024785
    69  H   -0.073340
    70  H    0.011641
    71  H    0.023967
    72  H    0.128189
    73  H   -0.035594
    74  H    0.038793
    75  H    0.046546
    76  H    0.058259
    77  H    0.146933
    78  H    0.044214
    79  H    0.031476
 Sum of Mulliken charges =  -0.00000

 Dipole moment (field-independent basis, Debye):
    X=              1.0618    Y=              2.8591    Z=              3.9892  Tot=              5.0215
 Quadrupole moment (field-independent basis, Debye-Ang):
   XX=           -220.9253   YY=           -250.8848   ZZ=           -266.6635
   XY=            -13.1981   XZ=             33.9424   YZ=              7.2935

 Normal termination of Gaussian 16 at Tue Sep 17 14:08:54 2019.
