 Gaussian 16, Revision A.03,
 Gaussian 16:  ES64L-G16RevA.03 25-Dec-2016

 --------------------------
 # td=(NStates=1) B3LYP/SVP
 --------------------------

 --
 TD
 --
 Symbolic Z-matrix:
 Charge =  0 Multiplicity = 1

                         Standard orientation:
 ---------------------------------------------------------------------
 Center     Atomic      Atomic             Coordinates (Angstroms)
 Number     Number       Type             X           Y           Z
 ---------------------------------------------------------------------
      1          8           0        5.413062   -0.070045   -3.230706
      2          8           0       -2.828880   -3.190600    3.249108
      3          8           0       -3.338714   -1.020454    3.034043
      4          8           0       -1.644899    7.181924    1.644762
      5          8           0       -0.615747    6.986845   -0.373412
      6          8           0       -1.656446   -3.898153   -0.174907
      7          7           0        2.303896    0.941017    0.518678
      8          7           0        4.468542   -0.533203   -1.258531
      9          7           0       -1.831560    0.651645   -0.398122
     10          7           0       -2.578214   -1.782829   -0.691844
     11          6           0        4.765774   -1.127328   -0.057800
     12          6           0        4.366550   -0.290060    1.205546
     13          6           0        2.874586   -0.081861    1.266722
     14          6           0        1.865112   -0.668119    2.060171
     15          6           0        0.620639   -0.078886    1.714588
     16          6           0        0.945665    0.903796    0.784788
     17          6           0        6.231681   -1.277532   -0.095509
     18          6           0       -0.617968   -0.287188    2.514266
     19          6           0        6.703757   -0.820673   -1.312478
     20          6           0        0.111322    2.017090    0.249049
     21          6           0       -1.206864    1.866385   -0.262336
     22          6           0        5.598382   -0.405026   -2.114125
     23          6           0       -1.918446    2.884654   -0.865200
     24          6           0        2.125552   -1.878577    2.918457
     25          6           0        7.020483   -1.993133    0.996832
     26          6           0       -3.124991    2.337754   -1.326480
     27          6           0       -1.087926   -1.819672    2.625141
     28          6           0       -3.097371    1.017935   -1.034824
     29          6           0       -1.520777    4.323363   -0.882660
     30          6           0        8.064392   -0.563621   -1.963716
     31          6           0       -1.667506    5.010383    0.488269
     32          6           0       -4.219662    3.091947   -1.900805
     33          6           0       -3.995263    0.000068   -1.427094
     34          6           0       -2.432428   -1.889188    2.993664
     35          6           0       -3.757389   -1.394609   -1.136293
     36          6           0        9.242631   -0.913937   -1.353343
     37          6           0       -1.243384    6.503029    0.493105
     38          6           0       -4.682645   -2.507215   -1.350707
     39          6           0       -3.895178   -3.610624   -1.179226
     40          6           0       -2.573484   -3.198094   -0.629423
     41          6           0       -6.034052   -2.325003   -1.938221
     42          6           0       -4.191176   -5.045662   -1.468175
     43          6           0       -6.928962   -3.349362   -2.177664
     44          1           0        4.251081   -2.251669   -0.030285
     45          1           0        4.625949    0.840501    0.955586
     46          1           0        4.758998   -0.591550    2.236921
     47          1           0        2.811262    1.577423   -0.022883
     48          1           0        3.598600   -0.724182   -2.007974
     49          1           0       -0.533970    0.218067    3.523035
     50          1           0       -1.556064    0.333907    2.323714
     51          1           0        0.519255    2.801316   -0.154629
     52          1           0        3.234332   -2.167759    3.128065
     53          1           0        1.544968   -1.887217    3.860530
     54          1           0        2.057875   -2.998593    2.567942
     55          1           0        6.203610   -2.318258    1.674141
     56          1           0        7.417445   -1.160952    1.508700
     57          1           0        7.755452   -2.755442    0.540575
     58          1           0       -1.126289   -2.238693    1.582159
     59          1           0       -0.558882   -2.505138    3.188863
     60          1           0       -1.493975   -0.399060   -0.218012
     61          1           0       -2.211203    4.831065   -1.655502
     62          1           0       -0.625318    4.463657   -1.199327
     63          1           0        8.059157    0.162756   -2.771399
     64          1           0       -1.051254    4.495764    1.296193
     65          1           0       -2.549703    5.056070    0.884218
     66          1           0       -3.861876    4.142292   -2.445848
     67          1           0       -5.178346    3.400105   -1.129255
     68          1           0       -4.581684    2.401929   -2.661951
     69          1           0       -4.893575    0.203661   -1.830372
     70          1           0        9.271497   -1.484736   -0.325274
     71          1           0       10.091560   -0.586724   -1.914139
     72          1           0       -3.798744   -3.081641    3.233266
     73          1           0       -6.423078   -1.437845   -2.302149
     74          1           0       -5.049076   -5.294369   -0.719057
     75          1           0       -4.701672   -5.082387   -2.572719
     76          1           0       -3.308045   -5.853140   -1.159907
     77          1           0       -1.135400    8.082286    1.641593
     78          1           0       -7.803626   -3.137059   -2.576071
     79          1           0       -6.971237   -4.493130   -1.838224
 ---------------------------------------------------------------------

 SCF Done:  E(RB3LYP) =  -1947.80340963     A.U. after   18 cycles

 Excitation energies and oscillator strengths:

 Excited State   1:      Singlet-A      1.9063 eV  650.40 nm  f=0.4481  <S**2>=0.000
     154 ->156         0.10607
     155 ->156         0.70088
     155 <-156        -0.14829
 This state for optimization and/or second-order correction.
 Total Energy, E(TD-HF/TD-DFT) =  -1947.73335484
 Copying the excited state density for this state as the 1-particle RhoCI density.

 The electronic state is 1-A.
 Alpha  occ. eigenvalues --  -19.18567 -19.15707 -19.13814 -19.10846 -19.10759
 Alpha  occ. eigenvalues --  -19.10609 -14.38451 -14.35028 -14.34449 -14.28345
 Alpha  occ. eigenvalues --  -10.32452 -10.30249 -10.27639 -10.26494 -10.25926
 Alpha  occ. eigenvalues --  -10.23709 -10.23603 -10.23471 -10.23343 -10.23010
 Alpha  occ. eigenvalues --  -10.22940 -10.22634 -10.22105 -10.22052 -10.21243
 Alpha  occ. eigenvalues --  -10.21000 -10.20889 -10.20804 -10.20788 -10.20777
 Alpha  occ. eigenvalues --  -10.20629 -10.20599 -10.20259 -10.20246 -10.20218
 Alpha  occ. eigenvalues --  -10.19974 -10.19800 -10.19730 -10.19690 -10.19615
 Alpha  occ. eigenvalues --  -10.19559 -10.18954 -10.18386  -1.09612  -1.06804
 Alpha  occ. eigenvalues --   -1.05029  -1.01242  -1.00392  -0.98792  -0.96403
 Alpha  occ. eigenvalues --   -0.96271  -0.95211  -0.92142  -0.82787  -0.82089
 Alpha  occ. eigenvalues --   -0.81563  -0.81383  -0.79821  -0.79696  -0.78116
 Alpha  occ. eigenvalues --   -0.77605  -0.76888  -0.75489  -0.74192  -0.72776
 Alpha  occ. eigenvalues --   -0.71950  -0.71155  -0.69066  -0.68788  -0.68640
 Alpha  occ. eigenvalues --   -0.68076  -0.65417  -0.63431  -0.60587  -0.60151
 Alpha  occ. eigenvalues --   -0.58983  -0.58827  -0.58557  -0.56868  -0.56308
 Alpha  occ. eigenvalues --   -0.55880  -0.55625  -0.55169  -0.54010  -0.53426
 Alpha  occ. eigenvalues --   -0.51990  -0.51405  -0.51040  -0.50529  -0.50154
 Alpha  occ. eigenvalues --   -0.49305  -0.48506  -0.48094  -0.47769  -0.47592
 Alpha  occ. eigenvalues --   -0.47042  -0.46745  -0.46586  -0.46312  -0.45682
 Alpha  occ. eigenvalues --   -0.45459  -0.44782  -0.44259  -0.44189  -0.43530
 Alpha  occ. eigenvalues --   -0.43200  -0.43007  -0.42850  -0.42603  -0.42326
 Alpha  occ. eigenvalues --   -0.42038  -0.41973  -0.41375  -0.41310  -0.41076
 Alpha  occ. eigenvalues --   -0.40821  -0.40260  -0.40059  -0.39809  -0.39531
 Alpha  occ. eigenvalues --   -0.39514  -0.39068  -0.38716  -0.38572  -0.38520
 Alpha  occ. eigenvalues --   -0.38451  -0.38042  -0.37807  -0.36873  -0.36745
 Alpha  occ. eigenvalues --   -0.35800  -0.35698  -0.35569  -0.35272  -0.34942
 Alpha  occ. eigenvalues --   -0.34561  -0.33894  -0.33336  -0.32453  -0.31545
 Alpha  occ. eigenvalues --   -0.30489  -0.29752  -0.28946  -0.28282  -0.27357
 Alpha  occ. eigenvalues --   -0.26544  -0.26245  -0.26000  -0.25061  -0.24923
 Alpha  occ. eigenvalues --   -0.24555  -0.23867  -0.23683  -0.21971  -0.18440
 Alpha virt. eigenvalues --   -0.11332  -0.06867  -0.06696  -0.00865   0.00017
 Alpha virt. eigenvalues --    0.00226   0.00689   0.00795   0.02218   0.03050
 Alpha virt. eigenvalues --    0.03339   0.03396   0.03799   0.04505   0.04807

 Mulliken charges:
               1
     1  O   -0.182432
     2  O   -0.211237
     3  O   -0.284637
     4  O   -0.255967
     5  O   -0.181271
     6  O   -0.224742
     7  N   -0.052477
     8  N   -0.262262
     9  N   -0.177914
    10  N   -0.297367
    11  C    0.071683
    12  C    0.105078
    13  C   -0.064497
    14  C   -0.070186
    15  C   -0.033792
    16  C    0.038500
    17  C   -0.230557
    18  C    0.000413
    19  C   -0.059114
    20  C    0.034346
    21  C    0.063677
    22  C    0.105792
    23  C   -0.098758
    24  C   -0.001621
    25  C    0.132236
    26  C   -0.075042
    27  C    0.099855
    28  C    0.180096
    29  C    0.232671
    30  C   -0.005278
    31  C    0.054235
    32  C   -0.026754
    33  C   -0.068993
    34  C    0.101959
    35  C    0.053538
    36  C   -0.029265
    37  C    0.118671
    38  C    0.093957
    39  C   -0.193301
    40  C    0.183173
    41  C   -0.009274
    42  C   -0.020216
    43  C   -0.036160
    44  H    0.051127
    45  H    0.007358
    46  H    0.039494
    47  H    0.104888
    48  H    0.177439
    49  H    0.020202
    50  H    0.035070
    51  H   -0.091002
    52  H   -0.006385
    53  H    0.030154
    54  H    0.035326
    55  H    0.011999
    56  H    0.024133
    57  H    0.083628
    58  H    0.081494
    59  H    0.003216
    60  H    0.214381
    61  H    0.006887
    62  H   -0.051998
    63  H    0.022798
    64  H    0.045844
    65  H   -0.030796
    66  H    0.046563
    67  H    0.064745
    68  H    0.030401
    69  H   -0.089465
    70  H    0.042390
    71  H    0.023699
    72  H    0.173738
    73  H   -0.022684
    74  H    0.043789
    75  H    0.058415
    76  H    0.067403
    77  H    0.209584
    78  H   -0.023668
    79  H    0.043072
 Sum of Mulliken charges =  -0.00000

 Dipole moment (field-independent basis, Debye):
    X=              2.2593    Y=              2.3278    Z=              2.4007  Tot=              4.0357
 Quadrupole moment (field-independent basis, Debye-Ang):
   XX=           -216.7615   YY=           -245.7140   ZZ=           -265.0637
   XY=             -7.2369   XZ=             33.0998   YZ=              3.7002

 Normal termination of Gaussian 16 at Mon Sep 23 22:48:06 2019.
