 Gaussian 16, Revision A.03,
 Gaussian 16:  ES64L-G16RevA.03 25-Dec-2016

 --------------------------
 # td=(NStates=1) B3LYP/SVP
 --------------------------

 --
 TD
 --
 Symbolic Z-matrix:
 Charge =  0 Multiplicity = 1

                         Standard orientation:
 ---------------------------------------------------------------------
 Center     Atomic      Atomic             Coordinates (Angstroms)
 Number     Number       Type             X           Y           Z
 ---------------------------------------------------------------------
      1          8           0       -3.160901   -1.500304   -2.713538
      2          8           0        3.296414    3.402342    2.454603
      3          8           0        3.617012    2.088967    4.335905
      4          8           0        7.695942   -1.739231   -0.673479
      5          8           0        6.686375   -3.305603   -1.888766
      6          8           0       -2.615328    1.877003    1.264847
      7          7           0       -0.327583   -2.276237    1.277630
      8          7           0       -2.684624   -1.276226   -0.481863
      9          7           0        1.111733   -0.127902   -0.764785
     10          7           0       -0.963797    1.426188   -0.436348
     11          6           0       -3.433314   -1.178801    0.781985
     12          6           0       -2.712332   -2.090690    1.846511
     13          6           0       -1.290949   -1.693267    2.044801
     14          6           0       -0.617197   -0.648138    2.895496
     15          6           0        0.793623   -0.807578    2.650231
     16          6           0        0.871790   -1.625993    1.512029
     17          6           0       -4.818626   -1.830548    0.384647
     18          6           0        1.893264    0.031373    3.338398
     19          6           0       -4.857927   -2.168758   -0.919498
     20          6           0        2.027796   -1.785831    0.629481
     21          6           0        2.123505   -1.035794   -0.513905
     22          6           0       -3.542117   -1.654489   -1.518726
     23          6           0        3.023633   -0.853196   -1.617447
     24          6           0       -1.317398    0.202046    3.895856
     25          6           0       -5.979997   -1.915719    1.416090
     26          6           0        2.542159    0.113640   -2.430932
     27          6           0        1.958941    1.469571    2.670302
     28          6           0        1.348198    0.697822   -1.869661
     29          6           0        4.129732   -1.791576   -1.702925
     30          6           0       -5.770659   -2.847333   -1.644671
     31          6           0        5.377645   -1.473615   -0.887203
     32          6           0        3.161644    0.671349   -3.662290
     33          6           0        0.581795    1.693096   -2.219673
     34          6           0        2.998316    2.345817    3.352781
     35          6           0       -0.578982    2.140450   -1.535489
     36          6           0       -6.838390   -3.666338   -1.164703
     37          6           0        6.698035   -2.277906   -1.185046
     38          6           0       -1.454411    3.290530   -1.647555
     39          6           0       -2.302086    3.343485   -0.626557
     40          6           0       -2.023685    2.152938    0.145490
     41          6           0       -1.141393    4.226199   -2.765921
     42          6           0       -3.453807    4.353091   -0.330071
     43          6           0       -1.780511    5.361523   -2.886844
     44          1           0       -3.314132   -0.040294    1.163234
     45          1           0       -2.448918   -3.135388    1.555829
     46          1           0       -3.300233   -2.116198    2.780818
     47          1           0       -0.502879   -2.893443    0.348824
     48          1           0       -2.106671   -0.490668   -0.581015
     49          1           0        1.686676    0.083730    4.359343
     50          1           0        2.932774   -0.602083    3.049847
     51          1           0        2.737142   -2.519984    0.866875
     52          1           0       -1.925750   -0.277047    4.637081
     53          1           0       -0.580673    0.604255    4.752397
     54          1           0       -1.857685    0.998111    3.372700
     55          1           0       -5.935287   -1.186897    2.171340
     56          1           0       -6.133781   -3.000315    1.925178
     57          1           0       -6.808324   -1.882316    0.815046
     58          1           0        2.212770    1.392026    1.599102
     59          1           0        1.007597    1.920884    2.631401
     60          1           0        0.024233    0.135438   -0.174744
     61          1           0        4.707723   -1.805234   -2.710649
     62          1           0        3.775909   -2.934258   -1.448904
     63          1           0       -5.881621   -2.671335   -2.731978
     64          1           0        5.321080   -1.735674    0.390060
     65          1           0        5.680756   -0.462028   -1.162155
     66          1           0        4.071025   -0.004526   -3.857557
     67          1           0        3.435653    1.755935   -3.416692
     68          1           0        2.483545    0.618171   -4.435996
     69          1           0        0.840718    2.258155   -3.178293
     70          1           0       -7.020161   -4.084523   -0.203950
     71          1           0       -7.343786   -4.159748   -2.002348
     72          1           0        3.996060    3.806615    2.954008
     73          1           0       -0.391517    3.712555   -3.498939
     74          1           0       -4.149529    4.650280   -1.301054
     75          1           0       -4.149944    4.041795    0.453088
     76          1           0       -3.083097    5.335747   -0.179844
     77          1           0        8.492076   -2.273742   -0.864536
     78          1           0       -1.727110    6.068733   -3.898792
     79          1           0       -2.548603    5.602981   -2.187615
 ---------------------------------------------------------------------

 SCF Done:  E(RB3LYP) =  -1947.82725247     A.U. after   20 cycles

 Excitation energies and oscillator strengths:

 Excited State   1:      Singlet-A      0.6348 eV 1953.14 nm  f=0.0016  <S**2>=0.000
     155 ->156         0.70498
 This state for optimization and/or second-order correction.
 Total Energy, E(TD-HF/TD-DFT) =  -1947.80392426
 Copying the excited state density for this state as the 1-particle RhoCI density.

 The electronic state is 1-A.
 Alpha  occ. eigenvalues --  -19.21769 -19.16937 -19.13663 -19.12697 -19.12204
 Alpha  occ. eigenvalues --  -19.08415 -14.37555 -14.35495 -14.32368 -14.32344
 Alpha  occ. eigenvalues --  -10.32904 -10.31680 -10.29114 -10.27442 -10.25702
 Alpha  occ. eigenvalues --  -10.24960 -10.24128 -10.23334 -10.22939 -10.22556
 Alpha  occ. eigenvalues --  -10.21969 -10.21791 -10.21743 -10.21597 -10.21592
 Alpha  occ. eigenvalues --  -10.21555 -10.21502 -10.21490 -10.21439 -10.21266
 Alpha  occ. eigenvalues --  -10.21083 -10.20375 -10.20288 -10.20140 -10.19818
 Alpha  occ. eigenvalues --  -10.19607 -10.19349 -10.19285 -10.19254 -10.19042
 Alpha  occ. eigenvalues --  -10.17479 -10.17313 -10.17261  -1.15238  -1.08719
 Alpha  occ. eigenvalues --   -1.01059  -1.00639  -1.00025  -0.98812  -0.97892
 Alpha  occ. eigenvalues --   -0.95720  -0.94175  -0.90804  -0.83702  -0.82768
 Alpha  occ. eigenvalues --   -0.82163  -0.81790  -0.79302  -0.78773  -0.77626
 Alpha  occ. eigenvalues --   -0.76527  -0.75494  -0.74849  -0.74073  -0.73155
 Alpha  occ. eigenvalues --   -0.71467  -0.70290  -0.69604  -0.69020  -0.68204
 Alpha  occ. eigenvalues --   -0.65920  -0.65349  -0.63556  -0.62298  -0.61154
 Alpha  occ. eigenvalues --   -0.60488  -0.59196  -0.57119  -0.56821  -0.56036
 Alpha  occ. eigenvalues --   -0.55903  -0.55218  -0.53886  -0.53029  -0.52893
 Alpha  occ. eigenvalues --   -0.51729  -0.51102  -0.50787  -0.50374  -0.49651
 Alpha  occ. eigenvalues --   -0.48927  -0.48834  -0.48314  -0.47938  -0.47893
 Alpha  occ. eigenvalues --   -0.47598  -0.47437  -0.46597  -0.46293  -0.45737
 Alpha  occ. eigenvalues --   -0.45229  -0.44827  -0.44458  -0.43856  -0.43694
 Alpha  occ. eigenvalues --   -0.43283  -0.42979  -0.42850  -0.42534  -0.42243
 Alpha  occ. eigenvalues --   -0.42047  -0.41780  -0.41337  -0.41080  -0.40729
 Alpha  occ. eigenvalues --   -0.40367  -0.40097  -0.39988  -0.39730  -0.39322
 Alpha  occ. eigenvalues --   -0.39018  -0.38637  -0.38247  -0.37928  -0.37667
 Alpha  occ. eigenvalues --   -0.37621  -0.36912  -0.36779  -0.36712  -0.36031
 Alpha  occ. eigenvalues --   -0.35876  -0.35545  -0.35100  -0.34797  -0.34128
 Alpha  occ. eigenvalues --   -0.33910  -0.33712  -0.32736  -0.32695  -0.32461
 Alpha  occ. eigenvalues --   -0.30794  -0.30362  -0.29615  -0.29084  -0.28689
 Alpha  occ. eigenvalues --   -0.27522  -0.26496  -0.26288  -0.25019  -0.24412
 Alpha  occ. eigenvalues --   -0.23617  -0.22764  -0.22408  -0.22293  -0.17984
 Alpha virt. eigenvalues --   -0.13195  -0.07424  -0.05641  -0.01415   0.00057
 Alpha virt. eigenvalues --    0.00139   0.00905   0.01897   0.02377   0.03193
 Alpha virt. eigenvalues --    0.03349   0.04089   0.04478   0.04805   0.05002

 Mulliken charges:
               1
     1  O   -0.275547
     2  O   -0.216888
     3  O   -0.191343
     4  O   -0.068255
     5  O   -0.276322
     6  O   -0.278738
     7  N   -0.098863
     8  N   -0.183219
     9  N   -0.254694
    10  N   -0.358792
    11  C   -0.027384
    12  C    0.192061
    13  C   -0.115994
    14  C   -0.118118
    15  C   -0.088467
    16  C   -0.020096
    17  C   -0.162031
    18  C    0.109958
    19  C    0.063375
    20  C   -0.126920
    21  C    0.155347
    22  C    0.155101
    23  C    0.014727
    24  C    0.043694
    25  C    0.110833
    26  C   -0.145907
    27  C    0.010437
    28  C    0.175654
    29  C    0.005219
    30  C   -0.101788
    31  C   -0.066222
    32  C    0.128799
    33  C   -0.134894
    34  C    0.157808
    35  C    0.101776
    36  C   -0.042393
    37  C    0.082061
    38  C    0.053742
    39  C   -0.150284
    40  C    0.199899
    41  C    0.002533
    42  C    0.068140
    43  C   -0.030689
    44  H    0.104363
    45  H   -0.014647
    46  H   -0.002367
    47  H    0.173887
    48  H    0.115113
    49  H    0.004254
    50  H    0.020227
    51  H   -0.016891
    52  H   -0.001963
    53  H   -0.006549
    54  H    0.050913
    55  H    0.019103
    56  H    0.041575
    57  H    0.003006
    58  H    0.035028
    59  H    0.029538
    60  H    0.302312
    61  H    0.027725
    62  H    0.058814
    63  H    0.023861
    64  H    0.064405
    65  H    0.029116
    66  H    0.024272
    67  H    0.047250
    68  H    0.014716
    69  H   -0.007993
    70  H    0.011747
    71  H    0.024473
    72  H    0.149983
    73  H    0.022973
    74  H    0.042510
    75  H    0.038911
    76  H    0.026279
    77  H    0.193031
    78  H    0.057046
    79  H   -0.003338
 Sum of Mulliken charges =  -0.00000

 Dipole moment (field-independent basis, Debye):
    X=              2.8774    Y=              2.8027    Z=             -1.3193  Tot=              4.2279
 Quadrupole moment (field-independent basis, Debye-Ang):
   XX=           -219.1272   YY=           -241.0504   ZZ=           -268.3227
   XY=              0.7587   XZ=            -16.5089   YZ=            -21.1233

 Normal termination of Gaussian 16 at Tue Jul 30 11:04:21 2019.
