 Gaussian 16, Revision A.03,
 Gaussian 16:  ES64L-G16RevA.03 25-Dec-2016

 --------------------------
 # td=(NStates=1) B3LYP/SVP
 --------------------------

 --
 TD
 --
 Symbolic Z-matrix:
 Charge =  0 Multiplicity = 1

                         Standard orientation:
 ---------------------------------------------------------------------
 Center     Atomic      Atomic             Coordinates (Angstroms)
 Number     Number       Type             X           Y           Z
 ---------------------------------------------------------------------
      1          8           0        5.353168   -0.024256   -3.296146
      2          8           0       -3.180226   -2.954621    3.007910
      3          8           0       -3.354359   -0.751194    2.940596
      4          8           0       -1.632925    7.267591    1.602495
      5          8           0       -0.730995    7.074017   -0.535717
      6          8           0       -1.643897   -4.019021   -0.080787
      7          7           0        2.351721    0.881219    0.582333
      8          7           0        4.404496   -0.395050   -1.155737
      9          7           0       -1.837648    0.703352   -0.352024
     10          7           0       -2.573972   -1.771415   -0.611620
     11          6           0        4.735376   -1.151023    0.006884
     12          6           0        4.357013   -0.408201    1.321494
     13          6           0        2.962139   -0.119850    1.335614
     14          6           0        1.860433   -0.803915    2.027420
     15          6           0        0.700030   -0.120092    1.726268
     16          6           0        0.904775    0.932139    0.811891
     17          6           0        6.395141   -1.325408   -0.140091
     18          6           0       -0.584416   -0.364875    2.485505
     19          6           0        6.783231   -0.716490   -1.261938
     20          6           0        0.146094    2.022533    0.255116
     21          6           0       -1.120505    1.898294   -0.307593
     22          6           0        5.546009   -0.358667   -2.079727
     23          6           0       -1.859623    2.869110   -0.870710
     24          6           0        2.075519   -1.876643    3.163241
     25          6           0        7.093558   -2.090208    0.873386
     26          6           0       -3.093390    2.400949   -1.305687
     27          6           0       -1.213932   -1.758626    2.555838
     28          6           0       -3.108442    0.980335   -0.846452
     29          6           0       -1.643905    4.334349   -0.883798
     30          6           0        8.108112   -0.718562   -2.022318
     31          6           0       -1.783991    5.066842    0.591950
     32          6           0       -4.220475    2.991739   -2.059240
     33          6           0       -3.962738   -0.070630   -1.366200
     34          6           0       -2.670061   -1.777969    2.929149
     35          6           0       -3.780623   -1.435069   -1.096462
     36          6           0        9.240620   -0.619312   -1.431169
     37          6           0       -1.237776    6.509663    0.444881
     38          6           0       -4.576378   -2.593510   -1.463425
     39          6           0       -3.980997   -3.726823   -1.011050
     40          6           0       -2.532262   -3.273295   -0.480031
     41          6           0       -5.834525   -2.484552   -2.100241
     42          6           0       -4.228707   -5.132026   -1.148587
     43          6           0       -6.627426   -3.438840   -2.578340
     44          1           0        4.215254   -2.148224   -0.013220
     45          1           0        4.933176    0.626169    1.214211
     46          1           0        4.732261   -1.188213    2.137237
     47          1           0        2.938683    1.528035    0.033509
     48          1           0        3.397122   -0.618054   -1.284389
     49          1           0       -0.469115   -0.032476    3.445698
     50          1           0       -1.197213    0.292629    2.227054
     51          1           0        0.659990    2.938728    0.067325
     52          1           0        3.183396   -2.063620    3.260636
     53          1           0        1.788094   -1.532423    4.083962
     54          1           0        1.653696   -2.888149    2.903268
     55          1           0        6.570609   -2.951320    1.377758
     56          1           0        7.273115   -1.432042    1.699703
     57          1           0        7.831579   -2.699950    0.372180
     58          1           0       -0.952042   -2.272450    1.446092
     59          1           0       -0.645433   -2.397973    3.208522
     60          1           0       -1.522406   -0.260771   -0.212111
     61          1           0       -2.118115    4.802938   -1.545233
     62          1           0       -0.512952    4.616532   -1.034040
     63          1           0        7.908510   -0.350276   -3.033365
     64          1           0       -1.279827    4.580797    1.428805
     65          1           0       -2.755220    5.230358    0.966064
     66          1           0       -3.892392    4.057400   -2.487485
     67          1           0       -5.245248    3.184662   -1.515936
     68          1           0       -4.424848    2.573513   -3.114683
     69          1           0       -4.805242    0.220182   -1.883372
     70          1           0        9.541109   -0.732839   -0.246827
     71          1           0       10.274083   -0.748121   -2.088945
     72          1           0       -4.070663   -2.947754    3.531246
     73          1           0       -6.139568   -1.463720   -2.232891
     74          1           0       -5.316856   -5.372129   -0.678072
     75          1           0       -4.473533   -5.742081   -2.027575
     76          1           0       -3.613844   -5.787104   -0.644052
     77          1           0       -1.503659    8.299533    1.485812
     78          1           0       -7.762708   -3.354825   -3.018650
     79          1           0       -6.185362   -4.482025   -2.629182
 ---------------------------------------------------------------------

 SCF Done:  E(RB3LYP) =  -1947.79007524     A.U. after   17 cycles

 Excitation energies and oscillator strengths:

 Excited State   1:      Singlet-A      1.9431 eV  638.09 nm  f=0.4377  <S**2>=0.000
     154 ->156         0.14433
     155 ->156         0.68952
     155 <-156        -0.12920
 This state for optimization and/or second-order correction.
 Total Energy, E(TD-HF/TD-DFT) =  -1947.71866913
 Copying the excited state density for this state as the 1-particle RhoCI density.

 The electronic state is 1-A.
 Alpha  occ. eigenvalues --  -19.18083 -19.17641 -19.14140 -19.11681 -19.11477
 Alpha  occ. eigenvalues --  -19.10030 -14.38717 -14.35518 -14.35065 -14.28610
 Alpha  occ. eigenvalues --  -10.33403 -10.30702 -10.30319 -10.27497 -10.25012
 Alpha  occ. eigenvalues --  -10.24329 -10.23915 -10.23651 -10.23261 -10.23208
 Alpha  occ. eigenvalues --  -10.23128 -10.22160 -10.22042 -10.22016 -10.21939
 Alpha  occ. eigenvalues --  -10.21925 -10.21915 -10.21223 -10.20903 -10.20803
 Alpha  occ. eigenvalues --  -10.20522 -10.19989 -10.19973 -10.19921 -10.19654
 Alpha  occ. eigenvalues --  -10.19555 -10.19339 -10.19066 -10.18996 -10.18896
 Alpha  occ. eigenvalues --  -10.18679 -10.18232 -10.15968  -1.09657  -1.06076
 Alpha  occ. eigenvalues --   -1.00906  -1.00094  -0.98447  -0.97774  -0.97364
 Alpha  occ. eigenvalues --   -0.96512  -0.92865  -0.90252  -0.83144  -0.82666
 Alpha  occ. eigenvalues --   -0.81740  -0.80664  -0.80296  -0.78995  -0.77795
 Alpha  occ. eigenvalues --   -0.76963  -0.75927  -0.75854  -0.74185  -0.72897
 Alpha  occ. eigenvalues --   -0.71979  -0.70957  -0.69616  -0.68584  -0.67968
 Alpha  occ. eigenvalues --   -0.67630  -0.65092  -0.62827  -0.60369  -0.60325
 Alpha  occ. eigenvalues --   -0.59579  -0.58662  -0.58353  -0.57226  -0.57088
 Alpha  occ. eigenvalues --   -0.56435  -0.56043  -0.54780  -0.53014  -0.52553
 Alpha  occ. eigenvalues --   -0.52074  -0.51061  -0.50759  -0.49727  -0.49600
 Alpha  occ. eigenvalues --   -0.48813  -0.48250  -0.47814  -0.47368  -0.47211
 Alpha  occ. eigenvalues --   -0.46898  -0.46713  -0.46155  -0.46123  -0.45748
 Alpha  occ. eigenvalues --   -0.44951  -0.44885  -0.44579  -0.44316  -0.44074
 Alpha  occ. eigenvalues --   -0.43036  -0.42942  -0.42892  -0.42562  -0.42059
 Alpha  occ. eigenvalues --   -0.41664  -0.41564  -0.41536  -0.41268  -0.40863
 Alpha  occ. eigenvalues --   -0.40617  -0.40447  -0.39812  -0.39614  -0.39334
 Alpha  occ. eigenvalues --   -0.39121  -0.38763  -0.38660  -0.38578  -0.38276
 Alpha  occ. eigenvalues --   -0.37859  -0.37271  -0.36824  -0.36781  -0.36268
 Alpha  occ. eigenvalues --   -0.36083  -0.36034  -0.34809  -0.34195  -0.34006
 Alpha  occ. eigenvalues --   -0.33716  -0.32798  -0.32363  -0.32020  -0.31829
 Alpha  occ. eigenvalues --   -0.30625  -0.30086  -0.28787  -0.28326  -0.27904
 Alpha  occ. eigenvalues --   -0.26974  -0.26140  -0.25899  -0.25712  -0.25375
 Alpha  occ. eigenvalues --   -0.24946  -0.23353  -0.22757  -0.21373  -0.18272
 Alpha virt. eigenvalues --   -0.10764  -0.06490  -0.06007  -0.01933  -0.00720
 Alpha virt. eigenvalues --   -0.00695   0.00417   0.00808   0.02824   0.03178
 Alpha virt. eigenvalues --    0.03756   0.04177   0.04632   0.04965   0.05146

 Mulliken charges:
               1
     1  O   -0.260987
     2  O   -0.153666
     3  O   -0.262236
     4  O   -0.300806
     5  O   -0.235845
     6  O   -0.210436
     7  N   -0.147099
     8  N   -0.231687
     9  N   -0.094839
    10  N   -0.371580
    11  C   -0.006696
    12  C    0.159303
    13  C   -0.077662
    14  C   -0.135534
    15  C   -0.127386
    16  C    0.096667
    17  C   -0.170365
    18  C    0.312781
    19  C   -0.076492
    20  C   -0.074551
    21  C    0.104574
    22  C    0.212282
    23  C   -0.040352
    24  C    0.117458
    25  C    0.103840
    26  C   -0.106187
    27  C   -0.078610
    28  C    0.127705
    29  C    0.166757
    30  C    0.068636
    31  C    0.020105
    32  C   -0.003685
    33  C   -0.070413
    34  C    0.128023
    35  C    0.133501
    36  C   -0.116953
    37  C    0.178820
    38  C    0.089270
    39  C   -0.151468
    40  C    0.209200
    41  C   -0.005086
    42  C    0.059300
    43  C   -0.086806
    44  H    0.025472
    45  H    0.014283
    46  H    0.028076
    47  H    0.128342
    48  H    0.148016
    49  H   -0.038686
    50  H   -0.114412
    51  H   -0.025917
    52  H   -0.016963
    53  H    0.008802
    54  H    0.046192
    55  H    0.016220
    56  H    0.042025
    57  H    0.034492
    58  H    0.109455
    59  H    0.001444
    60  H    0.154956
    61  H   -0.072985
    62  H    0.025763
    63  H    0.038112
    64  H    0.044013
    65  H    0.028950
    66  H    0.016719
    67  H    0.061226
    68  H    0.046790
    69  H   -0.059128
    70  H    0.058055
    71  H    0.050129
    72  H    0.216203
    73  H   -0.032898
    74  H    0.012998
    75  H    0.030563
    76  H   -0.005995
    77  H    0.218748
    78  H    0.053246
    79  H    0.016901
 Sum of Mulliken charges =  -0.00000

 Dipole moment (field-independent basis, Debye):
    X=              1.5612    Y=              0.4094    Z=              4.6379  Tot=              4.9108
 Quadrupole moment (field-independent basis, Debye-Ang):
   XX=           -214.0313   YY=           -240.9644   ZZ=           -258.7502
   XY=            -12.6552   XZ=             28.8388   YZ=             -0.9534

 Normal termination of Gaussian 16 at Tue Oct  8 20:04:48 2019.
