 Gaussian 16, Revision A.03,
 Gaussian 16:  ES64L-G16RevA.03 25-Dec-2016

 --------------------------
 # td=(NStates=1) B3LYP/SVP
 --------------------------

 --
 TD
 --
 Symbolic Z-matrix:
 Charge =  0 Multiplicity = 1

                         Standard orientation:
 ---------------------------------------------------------------------
 Center     Atomic      Atomic             Coordinates (Angstroms)
 Number     Number       Type             X           Y           Z
 ---------------------------------------------------------------------
      1          8           0       -3.432431   -0.780792   -2.931585
      2          8           0        2.972666    2.893728    3.271639
      3          8           0        3.116865    1.218326    4.843229
      4          8           0        7.657881   -1.813689   -0.537975
      5          8           0        6.709778   -2.939154   -2.120549
      6          8           0       -2.510441    1.501222    1.580450
      7          7           0       -0.271573   -2.441791    0.666520
      8          7           0       -2.671722   -1.203348   -0.759827
      9          7           0        1.163700    0.152690   -0.824769
     10          7           0       -0.991734    1.519805   -0.290730
     11          6           0       -3.290157   -1.458934    0.444962
     12          6           0       -2.613120   -2.483396    1.368925
     13          6           0       -1.144041   -2.236596    1.612006
     14          6           0       -0.611373   -1.481200    2.634747
     15          6           0        0.743500   -1.357900    2.370896
     16          6           0        0.996502   -1.956323    1.028416
     17          6           0       -4.674200   -1.872150    0.115232
     18          6           0        1.673307   -0.526143    3.130769
     19          6           0       -4.836003   -1.947080   -1.241669
     20          6           0        2.004220   -1.838422    0.121369
     21          6           0        2.143373   -0.816224   -0.842239
     22          6           0       -3.579539   -1.223095   -1.767159
     23          6           0        3.100899   -0.429342   -1.813302
     24          6           0       -1.259164   -0.888200    3.816886
     25          6           0       -5.743806   -2.133658    1.237984
     26          6           0        2.649912    0.729727   -2.449261
     27          6           0        1.844139    0.951054    2.642379
     28          6           0        1.435932    1.103179   -1.778877
     29          6           0        4.258003   -1.374418   -2.170317
     30          6           0       -5.990190   -2.353340   -2.099186
     31          6           0        5.456734   -1.078823   -1.173909
     32          6           0        3.298478    1.409372   -3.672649
     33          6           0        0.422688    2.144293   -1.957912
     34          6           0        2.706302    1.645869    3.722664
     35          6           0       -0.567733    2.355725   -1.156908
     36          6           0       -6.859191   -3.336861   -1.802081
     37          6           0        6.645573   -2.032540   -1.292380
     38          6           0       -1.397578    3.539135   -1.074794
     39          6           0       -2.238286    3.345944    0.033994
     40          6           0       -2.017073    1.970229    0.524007
     41          6           0       -1.134792    4.810073   -1.949688
     42          6           0       -3.125846    4.304866    0.721887
     43          6           0       -1.743892    5.973374   -1.870336
     44          1           0       -3.357322   -0.584116    1.037029
     45          1           0       -2.761260   -3.501521    0.987802
     46          1           0       -3.148091   -2.556353    2.346793
     47          1           0       -0.404180   -2.939079   -0.173373
     48          1           0       -2.097056   -0.364315   -1.064068
     49          1           0        1.474057   -0.611393    4.130313
     50          1           0        2.683416   -0.992682    3.067704
     51          1           0        2.757940   -2.810894    0.104926
     52          1           0       -2.250271   -1.604377    4.063862
     53          1           0       -0.603077   -0.788510    4.613826
     54          1           0       -1.560360    0.061266    3.573355
     55          1           0       -5.700292   -1.463742    2.084408
     56          1           0       -5.448817   -3.229673    1.510645
     57          1           0       -6.831339   -2.091126    0.690596
     58          1           0        2.695863    0.876941    1.639394
     59          1           0        0.923141    1.559804    2.268554
     60          1           0        0.255666    0.197442   -0.068879
     61          1           0        4.759763   -1.274202   -3.136890
     62          1           0        3.940857   -2.402004   -1.886343
     63          1           0       -6.062065   -1.871795   -3.075547
     64          1           0        5.136846   -1.331078   -0.145039
     65          1           0        5.747275   -0.017414   -1.130606
     66          1           0        4.077531    0.828963   -4.151575
     67          1           0        3.795304    2.351525   -3.471599
     68          1           0        2.465843    1.606935   -4.337992
     69          1           0        0.782191    3.108741   -2.592983
     70          1           0       -7.012475   -4.069988   -0.918022
     71          1           0       -7.645430   -3.670050   -2.666820
     72          1           0        3.505037    3.310385    4.048967
     73          1           0       -0.316152    4.798806   -2.609248
     74          1           0       -3.676694    4.881192   -0.088423
     75          1           0       -3.797828    3.557129    1.312363
     76          1           0       -2.535571    5.144720    1.309776
     77          1           0        8.433701   -2.469235   -0.482743
     78          1           0       -1.583134    6.778781   -2.561961
     79          1           0       -2.679725    6.003123   -1.094966
 ---------------------------------------------------------------------

 SCF Done:  E(RB3LYP) =  -1947.83652279     A.U. after   20 cycles

 Excitation energies and oscillator strengths:

 Excited State   1:      Singlet-A      0.9355 eV 1325.33 nm  f=0.0003  <S**2>=0.000
     155 ->156         0.70238
 This state for optimization and/or second-order correction.
 Total Energy, E(TD-HF/TD-DFT) =  -1947.80214391
 Copying the excited state density for this state as the 1-particle RhoCI density.

 The electronic state is 1-A.
 Alpha  occ. eigenvalues --  -19.19693 -19.19155 -19.13201 -19.12140 -19.11706
 Alpha  occ. eigenvalues --  -19.08217 -14.37813 -14.37659 -14.33553 -14.29374
 Alpha  occ. eigenvalues --  -10.32869 -10.32800 -10.27880 -10.27465 -10.26802
 Alpha  occ. eigenvalues --  -10.25793 -10.24566 -10.23716 -10.23523 -10.23388
 Alpha  occ. eigenvalues --  -10.22759 -10.22651 -10.22607 -10.21618 -10.21586
 Alpha  occ. eigenvalues --  -10.21248 -10.20969 -10.20845 -10.20790 -10.20663
 Alpha  occ. eigenvalues --  -10.20429 -10.20420 -10.20236 -10.20156 -10.19993
 Alpha  occ. eigenvalues --  -10.19935 -10.19813 -10.19802 -10.18962 -10.18490
 Alpha  occ. eigenvalues --  -10.18122 -10.17496 -10.16489  -1.11793  -1.08587
 Alpha  occ. eigenvalues --   -1.01394  -1.00223  -0.99891  -0.99532  -0.98776
 Alpha  occ. eigenvalues --   -0.98447  -0.95106  -0.93478  -0.83351  -0.82885
 Alpha  occ. eigenvalues --   -0.81490  -0.80217  -0.79833  -0.79337  -0.78923
 Alpha  occ. eigenvalues --   -0.77148  -0.76397  -0.75513  -0.74382  -0.73474
 Alpha  occ. eigenvalues --   -0.71113  -0.69939  -0.69862  -0.68952  -0.68589
 Alpha  occ. eigenvalues --   -0.67936  -0.66358  -0.63794  -0.63032  -0.60580
 Alpha  occ. eigenvalues --   -0.58773  -0.58591  -0.58311  -0.57695  -0.56847
 Alpha  occ. eigenvalues --   -0.56393  -0.55450  -0.54789  -0.54271  -0.53665
 Alpha  occ. eigenvalues --   -0.52825  -0.51441  -0.51299  -0.50811  -0.50054
 Alpha  occ. eigenvalues --   -0.49338  -0.48504  -0.48348  -0.47840  -0.47760
 Alpha  occ. eigenvalues --   -0.47387  -0.46750  -0.46496  -0.46237  -0.45648
 Alpha  occ. eigenvalues --   -0.45156  -0.44531  -0.44338  -0.44124  -0.43855
 Alpha  occ. eigenvalues --   -0.43652  -0.42879  -0.42694  -0.42333  -0.42204
 Alpha  occ. eigenvalues --   -0.41778  -0.41439  -0.41178  -0.41080  -0.40871
 Alpha  occ. eigenvalues --   -0.40519  -0.40284  -0.40037  -0.39930  -0.39653
 Alpha  occ. eigenvalues --   -0.39293  -0.39162  -0.38971  -0.38833  -0.38275
 Alpha  occ. eigenvalues --   -0.37863  -0.37699  -0.37138  -0.36708  -0.36628
 Alpha  occ. eigenvalues --   -0.36323  -0.36277  -0.35507  -0.34940  -0.34409
 Alpha  occ. eigenvalues --   -0.33867  -0.33019  -0.32409  -0.32165  -0.31871
 Alpha  occ. eigenvalues --   -0.30959  -0.29911  -0.29083  -0.28424  -0.27968
 Alpha  occ. eigenvalues --   -0.27865  -0.27204  -0.25250  -0.24846  -0.23895
 Alpha  occ. eigenvalues --   -0.23639  -0.23262  -0.22597  -0.22122  -0.19756
 Alpha virt. eigenvalues --   -0.13284  -0.07755  -0.03423  -0.01849  -0.00307
 Alpha virt. eigenvalues --    0.00087   0.00208   0.01590   0.02150   0.02510
 Alpha virt. eigenvalues --    0.03326   0.04056   0.04245   0.04495   0.04940

 Mulliken charges:
               1
     1  O   -0.281296
     2  O   -0.201909
     3  O   -0.278842
     4  O   -0.159298
     5  O   -0.258887
     6  O   -0.253982
     7  N    0.015213
     8  N   -0.151081
     9  N   -0.179226
    10  N   -0.305049
    11  C    0.168875
    12  C    0.174175
    13  C   -0.120690
    14  C   -0.149109
    15  C   -0.094543
    16  C   -0.027191
    17  C   -0.218386
    18  C    0.166840
    19  C   -0.039912
    20  C   -0.159220
    21  C    0.120484
    22  C    0.092112
    23  C   -0.077822
    24  C    0.182964
    25  C    0.025574
    26  C   -0.131710
    27  C   -0.130179
    28  C    0.083796
    29  C    0.144796
    30  C    0.025561
    31  C   -0.057373
    32  C    0.129973
    33  C   -0.137554
    34  C    0.187680
    35  C    0.124481
    36  C   -0.115943
    37  C    0.109029
    38  C    0.059161
    39  C   -0.222316
    40  C    0.202390
    41  C    0.015911
    42  C    0.016868
    43  C   -0.048226
    44  H    0.007372
    45  H   -0.034465
    46  H   -0.012905
    47  H    0.100401
    48  H    0.154467
    49  H   -0.016347
    50  H   -0.008664
    51  H    0.045065
    52  H    0.017872
    53  H   -0.017009
    54  H    0.000078
    55  H    0.038280
    56  H    0.051028
    57  H    0.060296
    58  H    0.069584
    59  H    0.095763
    60  H    0.270150
    61  H    0.031567
    62  H    0.027774
    63  H    0.021726
    64  H    0.033140
    65  H    0.041507
    66  H    0.014007
    67  H    0.027441
    68  H    0.035311
    69  H    0.019513
    70  H    0.041830
    71  H    0.034644
    72  H    0.201507
    73  H   -0.033750
    74  H    0.044846
    75  H    0.054927
    76  H    0.058272
    77  H    0.226691
    78  H    0.021523
    79  H    0.030419
 Sum of Mulliken charges =  -0.00000

 Dipole moment (field-independent basis, Debye):
    X=              5.2310    Y=              1.4641    Z=              0.0419  Tot=              5.4322
 Quadrupole moment (field-independent basis, Debye-Ang):
   XX=           -229.5311   YY=           -235.9026   ZZ=           -275.8828
   XY=             10.7670   XZ=            -15.2893   YZ=            -12.9812

 Normal termination of Gaussian 16 at Wed Jul 31 04:21:25 2019.
