 Gaussian 16, Revision A.03,
 Gaussian 16:  ES64L-G16RevA.03 25-Dec-2016

 --------------------------
 # td=(NStates=1) B3LYP/SVP
 --------------------------

 --
 TD
 --
 Symbolic Z-matrix:
 Charge =  0 Multiplicity = 1

                         Standard orientation:
 ---------------------------------------------------------------------
 Center     Atomic      Atomic             Coordinates (Angstroms)
 Number     Number       Type             X           Y           Z
 ---------------------------------------------------------------------
      1          8           0       -3.121571   -1.500662   -2.796605
      2          8           0        2.988310    3.288028    2.941283
      3          8           0        3.846523    1.552237    4.149031
      4          8           0        7.706920   -1.618869   -0.692116
      5          8           0        6.544364   -3.185878   -1.753268
      6          8           0       -2.724999    1.752811    1.346720
      7          7           0       -0.265345   -2.423646    1.007249
      8          7           0       -2.654708   -1.180967   -0.595660
      9          7           0        1.032237    0.072677   -0.756785
     10          7           0       -1.115870    1.564160   -0.239721
     11          6           0       -3.358659   -1.243668    0.616755
     12          6           0       -2.680091   -2.178458    1.737028
     13          6           0       -1.220786   -1.962547    1.886492
     14          6           0       -0.549000   -1.206067    2.908159
     15          6           0        0.812322   -1.156107    2.505374
     16          6           0        0.969993   -1.852327    1.317375
     17          6           0       -4.723075   -1.876886    0.248404
     18          6           0        1.911982   -0.354187    3.083863
     19          6           0       -4.740927   -2.182371   -1.049715
     20          6           0        2.029306   -1.859721    0.311573
     21          6           0        2.037220   -0.905576   -0.662566
     22          6           0       -3.482806   -1.594974   -1.597634
     23          6           0        3.081795   -0.728133   -1.767523
     24          6           0       -1.264567   -0.466841    3.965454
     25          6           0       -5.757196   -2.148507    1.332090
     26          6           0        2.591749    0.410748   -2.412802
     27          6           0        1.808403    1.098654    2.727966
     28          6           0        1.479122    0.968039   -1.711583
     29          6           0        4.262169   -1.595342   -2.021412
     30          6           0       -5.713545   -2.808972   -2.074980
     31          6           0        5.368269   -1.094234   -1.160340
     32          6           0        3.295652    0.991717   -3.586324
     33          6           0        0.581177    2.029096   -1.956029
     34          6           0        2.954616    1.999730    3.369585
     35          6           0       -0.619696    2.293486   -1.267292
     36          6           0       -6.688802   -3.566606   -1.649435
     37          6           0        6.579000   -2.058443   -1.336971
     38          6           0       -1.493067    3.495365   -1.414533
     39          6           0       -2.471671    3.464161   -0.372938
     40          6           0       -2.164878    2.181863    0.382540
     41          6           0       -1.159774    4.652512   -2.179931
     42          6           0       -3.486104    4.351497    0.238091
     43          6           0       -1.997112    5.758684   -2.449892
     44          1           0       -3.617331   -0.450531    1.153099
     45          1           0       -2.893428   -3.197257    1.300057
     46          1           0       -3.326991   -2.145925    2.637617
     47          1           0       -0.670836   -2.631741   -0.125382
     48          1           0       -1.917567   -0.363977   -0.844901
     49          1           0        1.945424   -0.294110    4.128237
     50          1           0        2.873668   -0.820268    2.937324
     51          1           0        2.540814   -2.579297    0.482245
     52          1           0       -2.009150   -1.084288    4.461952
     53          1           0       -0.521092    0.013459    4.710402
     54          1           0       -1.889040    0.339053    3.432743
     55          1           0       -5.774981   -1.498003    2.299220
     56          1           0       -5.749138   -3.223725    1.720424
     57          1           0       -6.766687   -2.055855    0.810502
     58          1           0        1.694444    1.467362    1.833530
     59          1           0        0.764046    1.669840    3.326164
     60          1           0        0.204711    0.217969   -0.090271
     61          1           0        4.457447   -1.309893   -2.924576
     62          1           0        4.034558   -2.565205   -1.820485
     63          1           0       -5.358440   -2.606277   -2.992899
     64          1           0        5.300538   -1.171743   -0.089779
     65          1           0        5.701394   -0.213012   -1.469214
     66          1           0        4.224403    0.565929   -3.797525
     67          1           0        3.541340    2.109356   -3.669489
     68          1           0        2.533096    0.811211   -4.368578
     69          1           0        0.763452    2.790599   -2.785119
     70          1           0       -6.959861   -3.875503   -0.731975
     71          1           0       -7.229498   -3.802623   -2.554906
     72          1           0        3.951393    3.698251    3.281254
     73          1           0       -0.061293    4.679520   -2.731046
     74          1           0       -4.475702    4.523645   -0.357405
     75          1           0       -3.789133    4.021171    1.279617
     76          1           0       -3.146053    5.395434    0.447658
     77          1           0        8.402469   -2.314066   -0.774245
     78          1           0       -1.616056    6.497710   -3.171333
     79          1           0       -3.197585    5.742347   -2.161964
 ---------------------------------------------------------------------

 SCF Done:  E(RB3LYP) =  -1947.78543567     A.U. after   19 cycles

 Excitation energies and oscillator strengths:

 Excited State   1:      Singlet-A      0.9318 eV 1330.54 nm  f=0.0009  <S**2>=0.000
     155 ->156         0.70393
 This state for optimization and/or second-order correction.
 Total Energy, E(TD-HF/TD-DFT) =  -1947.75119146
 Copying the excited state density for this state as the 1-particle RhoCI density.

 The electronic state is 1-A.
 Alpha  occ. eigenvalues --  -19.18951 -19.18942 -19.14221 -19.11947 -19.11742
 Alpha  occ. eigenvalues --  -19.07572 -14.38184 -14.36959 -14.33814 -14.30411
 Alpha  occ. eigenvalues --  -10.33344 -10.31973 -10.27531 -10.27490 -10.26206
 Alpha  occ. eigenvalues --  -10.25963 -10.25532 -10.24081 -10.23450 -10.22611
 Alpha  occ. eigenvalues --  -10.22166 -10.22019 -10.21925 -10.21788 -10.21558
 Alpha  occ. eigenvalues --  -10.21523 -10.21267 -10.21078 -10.21016 -10.20963
 Alpha  occ. eigenvalues --  -10.20625 -10.20516 -10.20465 -10.19955 -10.19849
 Alpha  occ. eigenvalues --  -10.19485 -10.18727 -10.18480 -10.18022 -10.17855
 Alpha  occ. eigenvalues --  -10.17541 -10.16966 -10.16544  -1.10512  -1.06870
 Alpha  occ. eigenvalues --   -1.04296  -1.01446  -0.99432  -0.99282  -0.96962
 Alpha  occ. eigenvalues --   -0.94924  -0.93289  -0.91814  -0.86384  -0.82650
 Alpha  occ. eigenvalues --   -0.80940  -0.80560  -0.80366  -0.80168  -0.78080
 Alpha  occ. eigenvalues --   -0.76758  -0.75610  -0.74896  -0.74294  -0.73732
 Alpha  occ. eigenvalues --   -0.71352  -0.70824  -0.69809  -0.69446  -0.67603
 Alpha  occ. eigenvalues --   -0.65885  -0.65323  -0.63062  -0.61385  -0.60637
 Alpha  occ. eigenvalues --   -0.60030  -0.59438  -0.58578  -0.57770  -0.57372
 Alpha  occ. eigenvalues --   -0.56172  -0.55490  -0.54464  -0.53916  -0.53145
 Alpha  occ. eigenvalues --   -0.52607  -0.52326  -0.51680  -0.50840  -0.50294
 Alpha  occ. eigenvalues --   -0.49802  -0.49097  -0.48590  -0.48145  -0.47365
 Alpha  occ. eigenvalues --   -0.47280  -0.46827  -0.46680  -0.46108  -0.45604
 Alpha  occ. eigenvalues --   -0.45400  -0.45104  -0.44765  -0.44436  -0.43781
 Alpha  occ. eigenvalues --   -0.43653  -0.43219  -0.43123  -0.43105  -0.42814
 Alpha  occ. eigenvalues --   -0.42447  -0.41998  -0.41510  -0.41245  -0.40853
 Alpha  occ. eigenvalues --   -0.40461  -0.40337  -0.40170  -0.40153  -0.40071
 Alpha  occ. eigenvalues --   -0.39745  -0.39469  -0.39127  -0.38527  -0.38376
 Alpha  occ. eigenvalues --   -0.38148  -0.38126  -0.36933  -0.36832  -0.36490
 Alpha  occ. eigenvalues --   -0.36045  -0.35977  -0.35527  -0.34849  -0.34438
 Alpha  occ. eigenvalues --   -0.33911  -0.33615  -0.32064  -0.31659  -0.31044
 Alpha  occ. eigenvalues --   -0.30813  -0.30448  -0.29675  -0.29185  -0.28378
 Alpha  occ. eigenvalues --   -0.27488  -0.26816  -0.25649  -0.24714  -0.23841
 Alpha  occ. eigenvalues --   -0.23129  -0.22908  -0.22761  -0.22120  -0.18600
 Alpha virt. eigenvalues --   -0.12727  -0.07902  -0.03551  -0.02234  -0.01172
 Alpha virt. eigenvalues --   -0.00530   0.00934   0.01754   0.02451   0.02599
 Alpha virt. eigenvalues --    0.02971   0.03936   0.04055   0.04741   0.04959

 Mulliken charges:
               1
     1  O   -0.290645
     2  O   -0.246633
     3  O   -0.291397
     4  O   -0.212702
     5  O   -0.215359
     6  O   -0.170751
     7  N   -0.158326
     8  N   -0.199943
     9  N   -0.144304
    10  N   -0.319951
    11  C    0.167284
    12  C    0.144928
    13  C   -0.068300
    14  C   -0.119870
    15  C   -0.094335
    16  C   -0.072178
    17  C   -0.215090
    18  C    0.225738
    19  C   -0.062968
    20  C    0.010576
    21  C    0.186783
    22  C    0.108637
    23  C   -0.144788
    24  C    0.067034
    25  C    0.001605
    26  C   -0.125527
    27  C   -0.019523
    28  C    0.188740
    29  C    0.372526
    30  C    0.072507
    31  C    0.052338
    32  C    0.076666
    33  C   -0.125901
    34  C    0.156839
    35  C    0.095812
    36  C    0.068600
    37  C    0.107312
    38  C    0.062456
    39  C   -0.149929
    40  C    0.138622
    41  C   -0.109738
    42  C    0.019830
    43  C   -0.069690
    44  H   -0.026466
    45  H   -0.022573
    46  H   -0.006273
    47  H    0.194295
    48  H    0.188159
    49  H   -0.026634
    50  H   -0.009407
    51  H   -0.128760
    52  H    0.000376
    53  H    0.018805
    54  H    0.048407
    55  H    0.043398
    56  H    0.044672
    57  H    0.040342
    58  H   -0.037052
    59  H    0.061644
    60  H    0.219088
    61  H   -0.061680
    62  H   -0.000990
    63  H   -0.036357
    64  H    0.054028
    65  H   -0.013331
    66  H    0.000829
    67  H    0.039459
    68  H    0.044575
    69  H   -0.007310
    70  H   -0.016671
    71  H    0.014147
    72  H    0.238713
    73  H    0.037617
    74  H    0.048269
    75  H    0.039040
    76  H    0.028528
    77  H    0.192538
    78  H    0.035294
    79  H    0.064298
 Sum of Mulliken charges =  -0.00000

 Dipole moment (field-independent basis, Debye):
    X=              3.3450    Y=              2.8726    Z=             -2.0390  Tot=              4.8578
 Quadrupole moment (field-independent basis, Debye-Ang):
   XX=           -222.6819   YY=           -243.3028   ZZ=           -267.5099
   XY=              6.4309   XZ=            -27.1051   YZ=            -13.4283

 Normal termination of Gaussian 16 at Sat Jul 27 00:45:38 2019.
