 Gaussian 16, Revision A.03,
 Gaussian 16:  ES64L-G16RevA.03 25-Dec-2016

 --------------------------
 # td=(NStates=1) B3LYP/SVP
 --------------------------

 --
 TD
 --
 Symbolic Z-matrix:
 Charge =  0 Multiplicity = 1

                         Standard orientation:
 ---------------------------------------------------------------------
 Center     Atomic      Atomic             Coordinates (Angstroms)
 Number     Number       Type             X           Y           Z
 ---------------------------------------------------------------------
      1          8           0       -3.354004   -1.297467   -2.839545
      2          8           0        3.233230    3.133451    3.020997
      3          8           0        3.539490    1.486166    4.644706
      4          8           0        7.780899   -1.565724   -0.805730
      5          8           0        6.721031   -3.034762   -2.161216
      6          8           0       -2.615045    1.567959    1.621556
      7          7           0       -0.321222   -2.361840    0.831710
      8          7           0       -2.696383   -1.220092   -0.667627
      9          7           0        1.224914    0.110387   -0.805452
     10          7           0       -1.003348    1.568433   -0.122893
     11          6           0       -3.295006   -1.420182    0.647321
     12          6           0       -2.583098   -2.480932    1.613987
     13          6           0       -1.173567   -2.094876    1.870739
     14          6           0       -0.475872   -1.215129    2.793952
     15          6           0        0.870417   -1.205733    2.451305
     16          6           0        0.990311   -1.815864    1.249726
     17          6           0       -4.731109   -1.969147    0.266118
     18          6           0        2.024625   -0.451612    3.113018
     19          6           0       -4.766280   -2.125099   -1.022142
     20          6           0        2.082483   -1.770006    0.259173
     21          6           0        2.172490   -0.834291   -0.788586
     22          6           0       -3.578643   -1.558563   -1.664890
     23          6           0        3.016490   -0.595026   -1.803376
     24          6           0       -1.244091   -0.584746    3.781032
     25          6           0       -5.788731   -2.259152    1.346793
     26          6           0        2.556111    0.562969   -2.452435
     27          6           0        2.023441    1.087289    2.698712
     28          6           0        1.414937    1.082637   -1.782043
     29          6           0        4.231644   -1.390149   -2.108446
     30          6           0       -5.814775   -2.498284   -1.947679
     31          6           0        5.393094   -1.225126   -1.139251
     32          6           0        3.189475    1.244055   -3.632536
     33          6           0        0.433103    2.106068   -2.023174
     34          6           0        3.016191    1.920383    3.688968
     35          6           0       -0.675778    2.281340   -1.226335
     36          6           0       -6.948103   -3.188279   -1.647368
     37          6           0        6.671239   -2.011558   -1.494927
     38          6           0       -1.557697    3.505445   -1.281525
     39          6           0       -2.390802    3.356279   -0.168683
     40          6           0       -2.018587    2.138410    0.578215
     41          6           0       -1.410902    4.526789   -2.296224
     42          6           0       -3.474190    4.345728    0.352323
     43          6           0       -2.206985    5.577302   -2.295497
     44          1           0       -3.374503   -0.436249    1.233307
     45          1           0       -2.918684   -3.451819    0.979974
     46          1           0       -3.115193   -2.485450    2.624476
     47          1           0       -0.522429   -2.619012   -0.214202
     48          1           0       -2.023872   -0.456641   -0.790806
     49          1           0        1.977935   -0.624732    4.096269
     50          1           0        2.960725   -0.966274    2.933138
     51          1           0        2.827324   -2.627730    0.423498
     52          1           0       -2.085633   -1.233387    4.343950
     53          1           0       -0.641969   -0.319833    4.487872
     54          1           0       -1.829752    0.358988    3.296100
     55          1           0       -5.502951   -1.624929    2.391504
     56          1           0       -5.802235   -3.397958    1.495651
     57          1           0       -6.703676   -1.926277    0.975155
     58          1           0        2.422629    1.286968    1.743064
     59          1           0        1.044737    1.660738    2.662972
     60          1           0        0.423003    0.126001   -0.097817
     61          1           0        4.469219   -1.320539   -3.115593
     62          1           0        3.921069   -2.483295   -1.895607
     63          1           0       -5.701667   -2.359849   -3.036042
     64          1           0        5.177295   -1.564718   -0.011087
     65          1           0        5.498160   -0.242831   -0.929723
     66          1           0        4.256355    0.853461   -3.858413
     67          1           0        3.287333    2.492135   -3.329803
     68          1           0        2.500055    1.140032   -4.558247
     69          1           0        0.802486    2.423892   -2.883246
     70          1           0       -7.212401   -3.705385   -0.578095
     71          1           0       -7.706660   -3.297441   -2.574684
     72          1           0        3.754828    3.709980    3.696482
     73          1           0       -0.636610    4.239214   -3.094142
     74          1           0       -4.358508    4.281827   -0.544356
     75          1           0       -3.810823    3.867083    1.347720
     76          1           0       -3.022261    5.520562    0.544480
     77          1           0        8.515202   -2.229578   -0.990663
     78          1           0       -2.381275    6.389853   -3.168714
     79          1           0       -3.070796    5.782363   -1.718264
 ---------------------------------------------------------------------

 SCF Done:  E(RB3LYP) =  -1947.78611776     A.U. after   20 cycles

 Excitation energies and oscillator strengths:

 Excited State   1:      Singlet-A      0.6987 eV 1774.50 nm  f=0.0109  <S**2>=0.000
     155 ->156         0.70710
 This state for optimization and/or second-order correction.
 Total Energy, E(TD-HF/TD-DFT) =  -1947.76044104
 Copying the excited state density for this state as the 1-particle RhoCI density.

 The electronic state is 1-A.
 Alpha  occ. eigenvalues --  -19.19368 -19.18562 -19.14460 -19.14339 -19.11207
 Alpha  occ. eigenvalues --  -19.08288 -14.37491 -14.37163 -14.33028 -14.30207
 Alpha  occ. eigenvalues --  -10.34079 -10.32454 -10.27870 -10.26687 -10.26429
 Alpha  occ. eigenvalues --  -10.25121 -10.25049 -10.24780 -10.24313 -10.23121
 Alpha  occ. eigenvalues --  -10.23084 -10.22580 -10.22349 -10.22285 -10.22122
 Alpha  occ. eigenvalues --  -10.21545 -10.21429 -10.21251 -10.21130 -10.21067
 Alpha  occ. eigenvalues --  -10.20888 -10.20850 -10.20717 -10.20679 -10.20484
 Alpha  occ. eigenvalues --  -10.20438 -10.20300 -10.19223 -10.18893 -10.18307
 Alpha  occ. eigenvalues --  -10.18051 -10.17134 -10.16434  -1.09599  -1.09174
 Alpha  occ. eigenvalues --   -1.01731  -1.01352  -1.00861  -1.00809  -0.98020
 Alpha  occ. eigenvalues --   -0.94971  -0.92087  -0.91654  -0.84610  -0.83407
 Alpha  occ. eigenvalues --   -0.81206  -0.80915  -0.80885  -0.79443  -0.78401
 Alpha  occ. eigenvalues --   -0.76280  -0.75608  -0.74656  -0.74094  -0.73018
 Alpha  occ. eigenvalues --   -0.71066  -0.70026  -0.69664  -0.69542  -0.67051
 Alpha  occ. eigenvalues --   -0.66809  -0.65355  -0.63547  -0.61018  -0.60289
 Alpha  occ. eigenvalues --   -0.59932  -0.58598  -0.58119  -0.57820  -0.57297
 Alpha  occ. eigenvalues --   -0.56431  -0.55992  -0.55051  -0.53520  -0.52931
 Alpha  occ. eigenvalues --   -0.52221  -0.51673  -0.50746  -0.49956  -0.49399
 Alpha  occ. eigenvalues --   -0.48976  -0.48847  -0.48634  -0.48138  -0.47614
 Alpha  occ. eigenvalues --   -0.47232  -0.47076  -0.46876  -0.46233  -0.45745
 Alpha  occ. eigenvalues --   -0.45448  -0.44742  -0.44250  -0.43563  -0.43365
 Alpha  occ. eigenvalues --   -0.43358  -0.42765  -0.42478  -0.42456  -0.41974
 Alpha  occ. eigenvalues --   -0.41771  -0.41400  -0.41249  -0.41175  -0.40851
 Alpha  occ. eigenvalues --   -0.40546  -0.40160  -0.40128  -0.39714  -0.39462
 Alpha  occ. eigenvalues --   -0.39204  -0.38882  -0.38699  -0.38495  -0.38291
 Alpha  occ. eigenvalues --   -0.37348  -0.37241  -0.36804  -0.36417  -0.36013
 Alpha  occ. eigenvalues --   -0.35897  -0.35408  -0.35084  -0.34579  -0.33641
 Alpha  occ. eigenvalues --   -0.33610  -0.33420  -0.33372  -0.33164  -0.32302
 Alpha  occ. eigenvalues --   -0.32202  -0.30897  -0.29772  -0.28958  -0.28656
 Alpha  occ. eigenvalues --   -0.27087  -0.26966  -0.25268  -0.24609  -0.24262
 Alpha  occ. eigenvalues --   -0.24006  -0.23355  -0.23049  -0.22259  -0.18716
 Alpha virt. eigenvalues --   -0.13799  -0.08547  -0.04033  -0.02261  -0.01851
 Alpha virt. eigenvalues --    0.00127   0.00642   0.01729   0.02512   0.02754
 Alpha virt. eigenvalues --    0.03380   0.03718   0.03968   0.04180   0.04987

 Mulliken charges:
               1
     1  O   -0.239953
     2  O   -0.251502
     3  O   -0.165552
     4  O   -0.222788
     5  O   -0.228479
     6  O   -0.315863
     7  N   -0.173736
     8  N   -0.196658
     9  N   -0.103239
    10  N   -0.284117
    11  C    0.036257
    12  C    0.085304
    13  C    0.007962
    14  C   -0.121542
    15  C   -0.086417
    16  C   -0.049078
    17  C   -0.199270
    18  C    0.234762
    19  C    0.001577
    20  C   -0.110961
    21  C    0.113267
    22  C    0.126287
    23  C   -0.073580
    24  C    0.068586
    25  C    0.048709
    26  C   -0.104478
    27  C   -0.028922
    28  C    0.011927
    29  C    0.143521
    30  C   -0.014171
    31  C    0.008469
    32  C   -0.034313
    33  C    0.006754
    34  C    0.144562
    35  C    0.197833
    36  C   -0.120226
    37  C    0.160740
    38  C    0.023090
    39  C   -0.192805
    40  C    0.212494
    41  C    0.041527
    42  C   -0.044585
    43  C   -0.059071
    44  H    0.066040
    45  H    0.020895
    46  H    0.006846
    47  H    0.165225
    48  H    0.138289
    49  H   -0.033275
    50  H   -0.023452
    51  H    0.044388
    52  H    0.012174
    53  H   -0.060983
    54  H    0.083126
    55  H    0.053653
    56  H    0.054285
    57  H    0.027517
    58  H    0.014778
    59  H    0.064655
    60  H    0.197024
    61  H   -0.000173
    62  H    0.027392
    63  H    0.021085
    64  H    0.062425
    65  H   -0.008836
    66  H    0.048746
    67  H    0.060051
    68  H    0.067620
    69  H   -0.097751
    70  H    0.043585
    71  H    0.042260
    72  H    0.195594
    73  H    0.019951
    74  H    0.067100
    75  H    0.055089
    76  H    0.067171
    77  H    0.202298
    78  H    0.032080
    79  H    0.010805
 Sum of Mulliken charges =  -0.00000

 Dipole moment (field-independent basis, Debye):
    X=              4.3912    Y=              2.0236    Z=             -0.8269  Tot=              4.9052
 Quadrupole moment (field-independent basis, Debye-Ang):
   XX=           -235.3670   YY=           -242.5126   ZZ=           -266.0257
   XY=              6.1571   XZ=            -13.6166   YZ=            -12.1652

 Normal termination of Gaussian 16 at Sun Jul 28 18:26:27 2019.
