 Gaussian 16, Revision A.03,
 Gaussian 16:  ES64L-G16RevA.03 25-Dec-2016

 --------------------------
 # td=(NStates=1) B3LYP/SVP
 --------------------------

 --
 TD
 --
 Symbolic Z-matrix:
 Charge =  0 Multiplicity = 1

                         Standard orientation:
 ---------------------------------------------------------------------
 Center     Atomic      Atomic             Coordinates (Angstroms)
 Number     Number       Type             X           Y           Z
 ---------------------------------------------------------------------
      1          8           0        5.316666   -0.331233   -3.365011
      2          8           0       -3.024801   -3.036984    3.090000
      3          8           0       -3.312352   -0.820594    3.069374
      4          8           0       -2.075114    7.072294    1.489175
      5          8           0       -1.038599    7.164167   -0.534046
      6          8           0       -1.651790   -3.999578    0.066984
      7          7           0        2.344318    0.913113    0.570688
      8          7           0        4.389628   -0.577229   -1.219432
      9          7           0       -1.836277    0.646285   -0.398424
     10          7           0       -2.501445   -1.888343   -0.458090
     11          6           0        4.894039   -1.087030    0.052663
     12          6           0        4.378310   -0.195766    1.261277
     13          6           0        2.958885   -0.022602    1.385807
     14          6           0        1.956757   -0.533888    2.242700
     15          6           0        0.721880   -0.063440    1.872369
     16          6           0        0.992868    0.953373    0.820952
     17          6           0        6.344859   -1.046890   -0.061713
     18          6           0       -0.568397   -0.199076    2.695145
     19          6           0        6.653892   -0.729364   -1.280724
     20          6           0        0.142002    1.982517    0.226490
     21          6           0       -1.112037    1.771290   -0.367647
     22          6           0        5.448466   -0.389424   -2.171364
     23          6           0       -1.969029    2.844160   -0.899196
     24          6           0        2.140519   -1.739516    3.221874
     25          6           0        7.240458   -1.559177    0.968977
     26          6           0       -3.160235    2.337536   -1.287144
     27          6           0       -1.046516   -1.695466    2.487190
     28          6           0       -2.974155    0.850429   -1.042554
     29          6           0       -1.545223    4.243523   -0.880843
     30          6           0        7.943027   -0.505349   -2.015235
     31          6           0       -1.929525    5.066513    0.352945
     32          6           0       -4.242499    2.974586   -2.060148
     33          6           0       -3.933189   -0.185686   -1.411241
     34          6           0       -2.516481   -1.745115    2.871288
     35          6           0       -3.723914   -1.532894   -1.026821
     36          6           0        9.274335   -0.665361   -1.595998
     37          6           0       -1.568606    6.467949    0.330875
     38          6           0       -4.470698   -2.689734   -1.504095
     39          6           0       -3.814331   -3.798678   -1.107305
     40          6           0       -2.542026   -3.310070   -0.445399
     41          6           0       -5.788236   -2.575177   -2.041106
     42          6           0       -4.120169   -5.265895   -1.040880
     43          6           0       -6.610759   -3.520127   -2.647922
     44          1           0        4.588864   -2.107546    0.368578
     45          1           0        4.878212    0.772237    1.056613
     46          1           0        4.734637   -0.728848    2.261134
     47          1           0        2.824206    1.535396   -0.054586
     48          1           0        3.439462   -0.911055   -1.546963
     49          1           0       -0.337405   -0.049940    3.710402
     50          1           0       -1.474878    0.478399    2.521707
     51          1           0        0.668815    3.024106    0.096912
     52          1           0        3.288056   -1.866297    3.320418
     53          1           0        1.254089   -1.859034    4.011320
     54          1           0        1.923452   -2.689012    2.695376
     55          1           0        6.837682   -2.251241    1.747661
     56          1           0        7.874355   -0.713324    1.592453
     57          1           0        8.146065   -1.905417    0.494512
     58          1           0       -0.987837   -1.928581    1.309611
     59          1           0       -0.448862   -2.270256    3.068781
     60          1           0       -1.645942   -0.325052   -0.165819
     61          1           0       -1.932586    4.830446   -1.812376
     62          1           0       -0.324318    4.332823   -0.899517
     63          1           0        7.706562   -0.341674   -3.151888
     64          1           0       -1.222484    4.656646    0.970986
     65          1           0       -2.966089    4.828958    0.498938
     66          1           0       -3.936795    3.948756   -2.032687
     67          1           0       -5.077656    3.138866   -1.202893
     68          1           0       -4.527383    2.397119   -2.838456
     69          1           0       -4.760213    0.314349   -1.921653
     70          1           0        9.559318   -0.891183   -0.522215
     71          1           0        9.992334   -0.760969   -2.414787
     72          1           0       -4.094134   -2.944618    3.178265
     73          1           0       -6.317312   -1.557216   -2.251325
     74          1           0       -5.157635   -5.484349   -0.698634
     75          1           0       -4.125506   -5.789853   -2.169134
     76          1           0       -3.508716   -5.857297   -0.483964
     77          1           0       -2.047883    8.077722    1.538560
     78          1           0       -7.601782   -3.187952   -3.028775
     79          1           0       -6.431979   -4.573368   -2.660849
 ---------------------------------------------------------------------

 SCF Done:  E(RB3LYP) =  -1947.86533156     A.U. after   17 cycles

 Excitation energies and oscillator strengths:

 Excited State   1:      Singlet-A      2.0172 eV  614.63 nm  f=0.4213  <S**2>=0.000
     155 ->156         0.69647
     155 <-156        -0.10675
 This state for optimization and/or second-order correction.
 Total Energy, E(TD-HF/TD-DFT) =  -1947.79119980
 Copying the excited state density for this state as the 1-particle RhoCI density.

 The electronic state is 1-A.
 Alpha  occ. eigenvalues --  -19.17576 -19.15756 -19.13736 -19.12416 -19.11308
 Alpha  occ. eigenvalues --  -19.09825 -14.38883 -14.37288 -14.35818 -14.29267
 Alpha  occ. eigenvalues --  -10.33222 -10.30794 -10.29920 -10.26143 -10.25263
 Alpha  occ. eigenvalues --  -10.25006 -10.24808 -10.23665 -10.23627 -10.23288
 Alpha  occ. eigenvalues --  -10.23025 -10.22517 -10.22401 -10.22167 -10.21600
 Alpha  occ. eigenvalues --  -10.21593 -10.21428 -10.21331 -10.21081 -10.21023
 Alpha  occ. eigenvalues --  -10.20961 -10.20942 -10.20716 -10.20565 -10.20177
 Alpha  occ. eigenvalues --  -10.20097 -10.19910 -10.19799 -10.19781 -10.19582
 Alpha  occ. eigenvalues --  -10.19559 -10.19348 -10.19281  -1.07650  -1.05066
 Alpha  occ. eigenvalues --   -1.04412  -1.00953  -0.99847  -0.99363  -0.98724
 Alpha  occ. eigenvalues --   -0.95875  -0.94480  -0.90826  -0.84755  -0.82911
 Alpha  occ. eigenvalues --   -0.81659  -0.81465  -0.80650  -0.80205  -0.79029
 Alpha  occ. eigenvalues --   -0.76650  -0.75975  -0.75324  -0.74070  -0.73611
 Alpha  occ. eigenvalues --   -0.71697  -0.70862  -0.70031  -0.69470  -0.69058
 Alpha  occ. eigenvalues --   -0.66453  -0.66235  -0.63633  -0.61222  -0.60729
 Alpha  occ. eigenvalues --   -0.60285  -0.58961  -0.58221  -0.57980  -0.57582
 Alpha  occ. eigenvalues --   -0.55756  -0.55452  -0.54906  -0.54050  -0.53388
 Alpha  occ. eigenvalues --   -0.52568  -0.52016  -0.51900  -0.51033  -0.50912
 Alpha  occ. eigenvalues --   -0.50121  -0.49523  -0.48507  -0.47754  -0.47414
 Alpha  occ. eigenvalues --   -0.47349  -0.46880  -0.46426  -0.46017  -0.45523
 Alpha  occ. eigenvalues --   -0.45131  -0.44841  -0.44510  -0.44320  -0.43900
 Alpha  occ. eigenvalues --   -0.43510  -0.43296  -0.43106  -0.42677  -0.42402
 Alpha  occ. eigenvalues --   -0.42233  -0.41733  -0.41438  -0.41362  -0.41197
 Alpha  occ. eigenvalues --   -0.40483  -0.40248  -0.39959  -0.39837  -0.39338
 Alpha  occ. eigenvalues --   -0.39096  -0.38952  -0.38838  -0.38577  -0.38226
 Alpha  occ. eigenvalues --   -0.38139  -0.37650  -0.37448  -0.37082  -0.36371
 Alpha  occ. eigenvalues --   -0.35798  -0.35704  -0.35332  -0.34983  -0.34938
 Alpha  occ. eigenvalues --   -0.34755  -0.34131  -0.33589  -0.32301  -0.31519
 Alpha  occ. eigenvalues --   -0.30743  -0.29589  -0.28753  -0.28374  -0.28143
 Alpha  occ. eigenvalues --   -0.27840  -0.26662  -0.26586  -0.26351  -0.25077
 Alpha  occ. eigenvalues --   -0.24624  -0.23793  -0.23279  -0.21967  -0.19076
 Alpha virt. eigenvalues --   -0.11030  -0.06751  -0.06374  -0.01721  -0.01224
 Alpha virt. eigenvalues --   -0.00466   0.00247   0.00597   0.01946   0.02264
 Alpha virt. eigenvalues --    0.03719   0.04000   0.04229   0.04620   0.04835

 Mulliken charges:
               1
     1  O   -0.190339
     2  O   -0.278188
     3  O   -0.258843
     4  O   -0.263565
     5  O   -0.222564
     6  O   -0.225533
     7  N   -0.054446
     8  N   -0.251887
     9  N    0.052281
    10  N   -0.362744
    11  C    0.068363
    12  C    0.118432
    13  C   -0.042240
    14  C   -0.115842
    15  C   -0.079135
    16  C    0.018293
    17  C   -0.108229
    18  C    0.053330
    19  C   -0.094114
    20  C   -0.127180
    21  C    0.102140
    22  C    0.194397
    23  C   -0.035480
    24  C    0.044141
    25  C    0.053822
    26  C   -0.193607
    27  C   -0.010385
    28  C   -0.036991
    29  C   -0.091756
    30  C   -0.037074
    31  C    0.135338
    32  C    0.240069
    33  C   -0.051139
    34  C    0.175277
    35  C    0.145248
    36  C   -0.047048
    37  C    0.148710
    38  C    0.091294
    39  C   -0.147418
    40  C    0.158505
    41  C   -0.089009
    42  C    0.088684
    43  C   -0.046589
    44  H    0.017904
    45  H   -0.011151
    46  H    0.023112
    47  H    0.110794
    48  H    0.149491
    49  H   -0.001413
    50  H    0.045776
    51  H    0.023712
    52  H    0.008757
    53  H    0.050324
    54  H    0.033264
    55  H    0.037108
    56  H    0.039378
    57  H    0.013109
    58  H    0.130512
    59  H   -0.014116
    60  H    0.138921
    61  H    0.042195
    62  H    0.030500
    63  H    0.047004
    64  H    0.007649
    65  H    0.044159
    66  H   -0.034693
    67  H    0.027716
    68  H    0.030380
    69  H   -0.035947
    70  H    0.034252
    71  H    0.038967
    72  H    0.221385
    73  H    0.018086
    74  H    0.023096
    75  H    0.037072
    76  H    0.002397
    77  H    0.205530
    78  H    0.030532
    79  H    0.007261
 Sum of Mulliken charges =  -0.00000

 Dipole moment (field-independent basis, Debye):
    X=              0.6853    Y=              2.3466    Z=              2.1819  Tot=              3.2767
 Quadrupole moment (field-independent basis, Debye-Ang):
   XX=           -215.9912   YY=           -251.2121   ZZ=           -267.9288
   XY=            -12.5921   XZ=             31.3872   YZ=              5.3250

 Normal termination of Gaussian 16 at Mon Sep 16 03:35:39 2019.
