 Gaussian 16, Revision A.03,
 Gaussian 16:  ES64L-G16RevA.03 25-Dec-2016

 --------------------------
 # td=(NStates=1) B3LYP/SVP
 --------------------------

 --
 TD
 --
 Symbolic Z-matrix:
 Charge =  0 Multiplicity = 1

                         Standard orientation:
 ---------------------------------------------------------------------
 Center     Atomic      Atomic             Coordinates (Angstroms)
 Number     Number       Type             X           Y           Z
 ---------------------------------------------------------------------
      1          8           0       -3.238760   -1.456457   -2.762333
      2          8           0        3.250265    3.184114    2.682833
      3          8           0        3.611948    1.859672    4.528976
      4          8           0        7.818030   -1.514167   -0.650273
      5          8           0        6.808402   -3.056126   -2.028754
      6          8           0       -2.710529    1.610436    1.460132
      7          7           0       -0.300756   -2.410782    1.169345
      8          7           0       -2.601967   -1.212524   -0.599908
      9          7           0        1.086178    0.022542   -0.702327
     10          7           0       -1.004560    1.353433   -0.329478
     11          6           0       -3.288980   -1.212176    0.692310
     12          6           0       -2.532529   -2.303099    1.669936
     13          6           0       -1.211974   -1.956385    2.004662
     14          6           0       -0.539873   -1.037618    2.984683
     15          6           0        0.770775   -0.963986    2.632289
     16          6           0        0.909154   -1.736891    1.457051
     17          6           0       -4.650469   -1.922577    0.340262
     18          6           0        1.902378   -0.169313    3.177399
     19          6           0       -4.799672   -2.052160   -0.938594
     20          6           0        2.092923   -1.670454    0.445894
     21          6           0        2.161324   -0.801156   -0.563260
     22          6           0       -3.465604   -1.580828   -1.552275
     23          6           0        3.012766   -0.680495   -1.770022
     24          6           0       -1.375780   -0.189110    3.992053
     25          6           0       -5.706233   -2.206774    1.404153
     26          6           0        2.507850    0.383929   -2.473114
     27          6           0        1.980614    1.319555    2.785390
     28          6           0        1.305681    0.842228   -1.775368
     29          6           0        4.256901   -1.545350   -2.017331
     30          6           0       -5.807779   -2.492152   -1.870077
     31          6           0        5.425329   -1.172779   -1.266651
     32          6           0        3.008240    0.802014   -3.842480
     33          6           0        0.461170    1.894011   -2.128626
     34          6           0        3.097925    2.081039    3.377572
     35          6           0       -0.719449    2.109640   -1.375591
     36          6           0       -6.826515   -3.286745   -1.607672
     37          6           0        6.688099   -2.046010   -1.315409
     38          6           0       -1.591065    3.353579   -1.432394
     39          6           0       -2.442822    3.305889   -0.367814
     40          6           0       -2.112295    2.039502    0.370321
     41          6           0       -1.364877    4.343215   -2.403804
     42          6           0       -3.578719    4.175548    0.141814
     43          6           0       -2.070599    5.480371   -2.653199
     44          1           0       -3.305125   -0.254709    1.039996
     45          1           0       -2.629507   -3.390288    1.237812
     46          1           0       -3.187796   -2.411330    2.675893
     47          1           0       -0.419116   -2.856969    0.130407
     48          1           0       -1.751715   -0.644081   -0.978112
     49          1           0        1.868551   -0.186113    4.185529
     50          1           0        2.853062   -0.848309    2.825036
     51          1           0        2.732895   -2.537549    0.438731
     52          1           0       -1.902481   -0.854055    4.689188
     53          1           0       -0.545531    0.433653    4.543991
     54          1           0       -2.075907    0.524679    3.451843
     55          1           0       -5.608062   -1.594155    2.089719
     56          1           0       -5.536666   -3.575283    1.818742
     57          1           0       -6.640044   -2.261093    1.070190
     58          1           0        2.284820    1.331566    1.727626
     59          1           0        1.078586    1.786685    3.016254
     60          1           0        0.382778    0.315270   -0.043989
     61          1           0        4.513500   -1.707440   -3.045098
     62          1           0        3.928346   -2.728578   -1.691102
     63          1           0       -5.840156   -1.945654   -2.869051
     64          1           0        5.239137   -0.977220   -0.172577
     65          1           0        5.948862   -0.225095   -1.537212
     66          1           0        3.757030    0.197543   -4.344992
     67          1           0        3.345438    1.828157   -3.867459
     68          1           0        2.184523    0.684658   -4.412031
     69          1           0        0.755645    2.557217   -3.032382
     70          1           0       -6.658015   -4.026119   -0.613245
     71          1           0       -7.663749   -3.421466   -2.442421
     72          1           0        3.829212    3.785856    3.300720
     73          1           0       -0.566634    4.270649   -3.087840
     74          1           0       -4.267785    4.242287   -0.662070
     75          1           0       -4.062702    3.878011    1.098710
     76          1           0       -3.197202    5.176114    0.114028
     77          1           0        8.400878   -2.160589   -0.462026
     78          1           0       -1.872225    6.134594   -3.549234
     79          1           0       -2.915330    5.543917   -1.984298
 ---------------------------------------------------------------------

 SCF Done:  E(RB3LYP) =  -1947.78321916     A.U. after   21 cycles

 Excitation energies and oscillator strengths:

 Excited State   1:      Singlet-A      0.7418 eV 1671.44 nm  f=0.0085  <S**2>=0.000
     155 ->156         0.70440
 This state for optimization and/or second-order correction.
 Total Energy, E(TD-HF/TD-DFT) =  -1947.75595926
 Copying the excited state density for this state as the 1-particle RhoCI density.

 The electronic state is 1-A.
 Alpha  occ. eigenvalues --  -19.20288 -19.18118 -19.14245 -19.13304 -19.12038
 Alpha  occ. eigenvalues --  -19.07059 -14.37999 -14.37233 -14.33475 -14.32034
 Alpha  occ. eigenvalues --  -10.34196 -10.31999 -10.29988 -10.26727 -10.25586
 Alpha  occ. eigenvalues --  -10.25494 -10.25073 -10.23637 -10.23619 -10.23337
 Alpha  occ. eigenvalues --  -10.23203 -10.22477 -10.22154 -10.22079 -10.21951
 Alpha  occ. eigenvalues --  -10.21632 -10.21223 -10.20859 -10.20749 -10.20594
 Alpha  occ. eigenvalues --  -10.20418 -10.20134 -10.20130 -10.20022 -10.19935
 Alpha  occ. eigenvalues --  -10.19617 -10.19325 -10.18850 -10.18740 -10.18308
 Alpha  occ. eigenvalues --  -10.17952 -10.17306 -10.17175  -1.10438  -1.09156
 Alpha  occ. eigenvalues --   -1.00917  -1.00812  -0.99680  -0.99325  -0.97570
 Alpha  occ. eigenvalues --   -0.96838  -0.93425  -0.91287  -0.84731  -0.83134
 Alpha  occ. eigenvalues --   -0.82482  -0.81189  -0.81043  -0.80209  -0.77941
 Alpha  occ. eigenvalues --   -0.76985  -0.76438  -0.75584  -0.74634  -0.73844
 Alpha  occ. eigenvalues --   -0.71661  -0.70517  -0.70403  -0.69878  -0.67657
 Alpha  occ. eigenvalues --   -0.66818  -0.66093  -0.63217  -0.62096  -0.60796
 Alpha  occ. eigenvalues --   -0.59501  -0.58958  -0.58526  -0.58462  -0.57548
 Alpha  occ. eigenvalues --   -0.56262  -0.56117  -0.55009  -0.53126  -0.52789
 Alpha  occ. eigenvalues --   -0.52166  -0.51361  -0.50751  -0.50101  -0.49836
 Alpha  occ. eigenvalues --   -0.49600  -0.48579  -0.48523  -0.48270  -0.47983
 Alpha  occ. eigenvalues --   -0.47859  -0.47536  -0.46987  -0.46386  -0.45979
 Alpha  occ. eigenvalues --   -0.45559  -0.44965  -0.44754  -0.44557  -0.44379
 Alpha  occ. eigenvalues --   -0.44168  -0.43811  -0.43537  -0.43293  -0.42723
 Alpha  occ. eigenvalues --   -0.42113  -0.41797  -0.41527  -0.41189  -0.41047
 Alpha  occ. eigenvalues --   -0.40560  -0.40348  -0.40199  -0.40088  -0.39554
 Alpha  occ. eigenvalues --   -0.39206  -0.38791  -0.38448  -0.38294  -0.38196
 Alpha  occ. eigenvalues --   -0.38036  -0.37477  -0.36865  -0.36571  -0.36316
 Alpha  occ. eigenvalues --   -0.35934  -0.35218  -0.35052  -0.34652  -0.34252
 Alpha  occ. eigenvalues --   -0.33330  -0.33247  -0.33198  -0.32916  -0.32147
 Alpha  occ. eigenvalues --   -0.31439  -0.30138  -0.29954  -0.29648  -0.29143
 Alpha  occ. eigenvalues --   -0.28239  -0.27139  -0.26475  -0.24441  -0.24372
 Alpha  occ. eigenvalues --   -0.24154  -0.23602  -0.22652  -0.22376  -0.17705
 Alpha virt. eigenvalues --   -0.12759  -0.07955  -0.03545  -0.02425  -0.01981
 Alpha virt. eigenvalues --   -0.01259   0.01209   0.02080   0.02656   0.02958
 Alpha virt. eigenvalues --    0.03212   0.03355   0.03880   0.04232   0.05056

 Mulliken charges:
               1
     1  O   -0.274970
     2  O   -0.173092
     3  O   -0.298816
     4  O   -0.188872
     5  O   -0.234368
     6  O   -0.288941
     7  N   -0.088963
     8  N   -0.209467
     9  N   -0.047991
    10  N   -0.352484
    11  C    0.179120
    12  C    0.016931
    13  C   -0.022407
    14  C   -0.135058
    15  C   -0.070943
    16  C   -0.074655
    17  C   -0.234795
    18  C    0.100123
    19  C    0.035320
    20  C   -0.163728
    21  C    0.157183
    22  C    0.074379
    23  C   -0.040207
    24  C    0.042673
    25  C    0.198001
    26  C   -0.144934
    27  C    0.068442
    28  C    0.097041
    29  C    0.084184
    30  C   -0.014607
    31  C    0.009337
    32  C    0.164140
    33  C   -0.135592
    34  C    0.137537
    35  C    0.126798
    36  C   -0.104313
    37  C    0.145399
    38  C    0.122580
    39  C   -0.216157
    40  C    0.233398
    41  C   -0.082552
    42  C    0.164092
    43  C    0.003304
    44  H    0.007224
    45  H    0.014100
    46  H    0.016388
    47  H    0.178295
    48  H    0.167089
    49  H   -0.023706
    50  H    0.018170
    51  H    0.000735
    52  H    0.017061
    53  H    0.006086
    54  H    0.064464
    55  H   -0.043221
    56  H    0.025343
    57  H   -0.017615
    58  H    0.018445
    59  H    0.038208
    60  H    0.175926
    61  H    0.010909
    62  H    0.048894
    63  H    0.030235
    64  H    0.043821
    65  H    0.042138
    66  H    0.015180
    67  H    0.022809
    68  H    0.006533
    69  H    0.015235
    70  H    0.047350
    71  H    0.047284
    72  H    0.211230
    73  H   -0.036359
    74  H    0.019492
    75  H    0.050422
    76  H    0.012952
    77  H    0.147469
    78  H    0.048053
    79  H   -0.008710
 Sum of Mulliken charges =  -0.00000

 Dipole moment (field-independent basis, Debye):
    X=              2.6717    Y=              4.2293    Z=             -2.4128  Tot=              5.5539
 Quadrupole moment (field-independent basis, Debye-Ang):
   XX=           -244.3894   YY=           -235.5151   ZZ=           -272.8274
   XY=              1.6490   XZ=            -15.9899   YZ=            -16.9180

 Normal termination of Gaussian 16 at Tue Jul 30 10:24:04 2019.
