 Gaussian 16, Revision A.03,
 Gaussian 16:  ES64L-G16RevA.03 25-Dec-2016

 --------------------------
 # td=(NStates=1) B3LYP/SVP
 --------------------------

 --
 TD
 --
 Symbolic Z-matrix:
 Charge =  0 Multiplicity = 1

                         Standard orientation:
 ---------------------------------------------------------------------
 Center     Atomic      Atomic             Coordinates (Angstroms)
 Number     Number       Type             X           Y           Z
 ---------------------------------------------------------------------
      1          8           0        5.417600   -0.021063   -3.238037
      2          8           0       -3.096785   -2.936093    3.210100
      3          8           0       -3.281267   -0.763145    3.032204
      4          8           0       -1.305380    7.236590    1.621743
      5          8           0       -0.628307    7.055153   -0.533095
      6          8           0       -1.840923   -3.946913    0.020032
      7          7           0        2.333832    0.864051    0.632790
      8          7           0        4.390983   -0.551886   -1.269726
      9          7           0       -1.674753    0.761478   -0.551410
     10          7           0       -2.512282   -1.800076   -0.662661
     11          6           0        4.779863   -1.192724    0.075078
     12          6           0        4.360396   -0.426572    1.290503
     13          6           0        2.877536   -0.185508    1.327086
     14          6           0        1.846442   -0.718093    2.066302
     15          6           0        0.658116    0.023414    1.821184
     16          6           0        0.981459    0.933136    0.783629
     17          6           0        6.295905   -1.486555   -0.138945
     18          6           0       -0.616941   -0.292906    2.523163
     19          6           0        6.633694   -1.105003   -1.396627
     20          6           0        0.229954    2.003865    0.211556
     21          6           0       -1.027647    1.916650   -0.339319
     22          6           0        5.496579   -0.458812   -2.114327
     23          6           0       -1.977099    2.950693   -0.815687
     24          6           0        2.001506   -1.707873    3.054389
     25          6           0        7.144022   -2.041458    0.925218
     26          6           0       -3.106763    2.326111   -1.331302
     27          6           0       -1.172132   -1.758534    2.392763
     28          6           0       -3.002610    0.918340   -1.111042
     29          6           0       -1.476794    4.388548   -0.903740
     30          6           0        7.954226   -0.896478   -2.016832
     31          6           0       -1.845963    5.115713    0.491372
     32          6           0       -4.325386    2.989332   -1.930254
     33          6           0       -3.910239   -0.059172   -1.451307
     34          6           0       -2.544305   -1.738421    2.930287
     35          6           0       -3.554483   -1.428452   -1.192067
     36          6           0        9.108063   -0.792706   -1.390888
     37          6           0       -1.182373    6.640439    0.422170
     38          6           0       -4.646515   -2.566123   -1.462496
     39          6           0       -4.014010   -3.721045   -0.995980
     40          6           0       -2.675719   -3.301221   -0.564018
     41          6           0       -5.932157   -2.372335   -2.001976
     42          6           0       -4.442924   -5.164147   -1.083385
     43          6           0       -6.748521   -3.376856   -2.416072
     44          1           0        4.296768   -2.264433    0.113634
     45          1           0        4.703541    0.547684    1.320151
     46          1           0        4.735914   -0.871168    2.181708
     47          1           0        3.044488    1.438079    0.161974
     48          1           0        3.477183   -0.550660   -1.339681
     49          1           0       -0.591410    0.028109    3.639241
     50          1           0       -1.371188    0.384662    1.894957
     51          1           0        0.569481    3.069048    0.113929
     52          1           0        3.174282   -1.841290    3.430694
     53          1           0        1.356408   -1.698549    3.893228
     54          1           0        1.894101   -2.680459    2.731566
     55          1           0        6.435976   -2.704935    1.588985
     56          1           0        7.615084   -1.276091    1.575262
     57          1           0        7.868210   -2.482829    0.348840
     58          1           0       -1.257928   -2.236818    1.377053
     59          1           0       -0.533224   -2.590009    3.000006
     60          1           0       -1.310795   -0.119465   -0.084603
     61          1           0       -1.724367    4.897413   -1.693554
     62          1           0       -0.201547    4.470529   -0.688704
     63          1           0        8.120352   -0.855234   -3.144663
     64          1           0       -1.443632    4.720110    1.314837
     65          1           0       -2.902983    5.152805    0.836465
     66          1           0       -4.173268    4.072418   -1.956491
     67          1           0       -5.330936    2.959961   -1.335738
     68          1           0       -4.516888    2.665774   -2.989073
     69          1           0       -4.616187    0.352096   -2.120173
     70          1           0        9.173727   -0.769111   -0.420324
     71          1           0        9.932892   -0.187951   -1.925489
     72          1           0       -3.917250   -2.842916    3.560793
     73          1           0       -6.153880   -1.366670   -2.484617
     74          1           0       -5.359592   -5.454527   -0.369060
     75          1           0       -4.647221   -5.340510   -2.077061
     76          1           0       -3.691116   -5.692456   -0.540284
     77          1           0       -1.240370    8.189990    1.360856
     78          1           0       -7.804354   -3.162284   -2.852381
     79          1           0       -6.485298   -4.363004   -2.319424
 ---------------------------------------------------------------------

 SCF Done:  E(RB3LYP) =  -1947.82998052     A.U. after   16 cycles

 Excitation energies and oscillator strengths:

 Excited State   1:      Singlet-A      1.9900 eV  623.03 nm  f=0.3289  <S**2>=0.000
     155 ->156         0.70060
 This state for optimization and/or second-order correction.
 Total Energy, E(TD-HF/TD-DFT) =  -1947.75684879
 Copying the excited state density for this state as the 1-particle RhoCI density.

 The electronic state is 1-A.
 Alpha  occ. eigenvalues --  -19.19554 -19.15550 -19.14387 -19.12196 -19.10217
 Alpha  occ. eigenvalues --  -19.09547 -14.37814 -14.35409 -14.33873 -14.29714
 Alpha  occ. eigenvalues --  -10.32942 -10.30191 -10.28507 -10.27929 -10.25249
 Alpha  occ. eigenvalues --  -10.23991 -10.23179 -10.22909 -10.22681 -10.22264
 Alpha  occ. eigenvalues --  -10.21750 -10.21508 -10.21321 -10.21159 -10.21060
 Alpha  occ. eigenvalues --  -10.21039 -10.21026 -10.20849 -10.20819 -10.20692
 Alpha  occ. eigenvalues --  -10.20675 -10.20471 -10.20423 -10.20397 -10.20331
 Alpha  occ. eigenvalues --  -10.20285 -10.20080 -10.19584 -10.18373 -10.18330
 Alpha  occ. eigenvalues --  -10.18219 -10.18202 -10.17189  -1.11368  -1.08780
 Alpha  occ. eigenvalues --   -1.03488  -1.03241  -1.02302  -0.98751  -0.97931
 Alpha  occ. eigenvalues --   -0.96698  -0.93521  -0.92520  -0.82946  -0.82031
 Alpha  occ. eigenvalues --   -0.81821  -0.81352  -0.80865  -0.79959  -0.77572
 Alpha  occ. eigenvalues --   -0.76758  -0.76413  -0.75698  -0.74983  -0.72733
 Alpha  occ. eigenvalues --   -0.72160  -0.70711  -0.70000  -0.68782  -0.67781
 Alpha  occ. eigenvalues --   -0.67102  -0.65494  -0.64253  -0.61949  -0.61289
 Alpha  occ. eigenvalues --   -0.60187  -0.59903  -0.58455  -0.57777  -0.56368
 Alpha  occ. eigenvalues --   -0.55653  -0.55270  -0.55008  -0.54237  -0.53775
 Alpha  occ. eigenvalues --   -0.52541  -0.51877  -0.50128  -0.50067  -0.49661
 Alpha  occ. eigenvalues --   -0.49349  -0.48761  -0.48408  -0.47843  -0.47563
 Alpha  occ. eigenvalues --   -0.47308  -0.46507  -0.46276  -0.45932  -0.45784
 Alpha  occ. eigenvalues --   -0.45548  -0.44999  -0.44636  -0.44149  -0.44038
 Alpha  occ. eigenvalues --   -0.43606  -0.43362  -0.43090  -0.42687  -0.42417
 Alpha  occ. eigenvalues --   -0.42228  -0.41991  -0.41803  -0.41505  -0.41228
 Alpha  occ. eigenvalues --   -0.40835  -0.40570  -0.40448  -0.39805  -0.39640
 Alpha  occ. eigenvalues --   -0.39515  -0.39103  -0.38738  -0.38639  -0.38345
 Alpha  occ. eigenvalues --   -0.38131  -0.37607  -0.37599  -0.37260  -0.37007
 Alpha  occ. eigenvalues --   -0.36618  -0.36231  -0.35532  -0.35247  -0.34864
 Alpha  occ. eigenvalues --   -0.34317  -0.34123  -0.33339  -0.31788  -0.31315
 Alpha  occ. eigenvalues --   -0.30940  -0.30136  -0.29248  -0.28972  -0.28719
 Alpha  occ. eigenvalues --   -0.26043  -0.25895  -0.25337  -0.24947  -0.24831
 Alpha  occ. eigenvalues --   -0.24576  -0.23913  -0.23526  -0.22858  -0.18551
 Alpha virt. eigenvalues --   -0.10448  -0.06907  -0.05709  -0.00559   0.00246
 Alpha virt. eigenvalues --    0.00934   0.01351   0.01545   0.02804   0.03099
 Alpha virt. eigenvalues --    0.04242   0.04563   0.04834   0.05341   0.05873

 Mulliken charges:
               1
     1  O   -0.203444
     2  O   -0.136206
     3  O   -0.259028
     4  O   -0.177354
     5  O   -0.183572
     6  O   -0.177796
     7  N   -0.058510
     8  N   -0.180100
     9  N   -0.138046
    10  N   -0.216942
    11  C    0.007430
    12  C    0.320367
    13  C   -0.165888
    14  C   -0.093134
    15  C   -0.065850
    16  C    0.070214
    17  C   -0.170861
    18  C    0.010135
    19  C   -0.045327
    20  C   -0.060387
    21  C    0.002526
    22  C    0.188039
    23  C   -0.026575
    24  C    0.113034
    25  C    0.103099
    26  C   -0.113352
    27  C   -0.041055
    28  C    0.132105
    29  C    0.071547
    30  C   -0.037250
    31  C   -0.000221
    32  C    0.055609
    33  C   -0.101435
    34  C    0.112864
    35  C    0.085426
    36  C   -0.004277
    37  C    0.120101
    38  C    0.031513
    39  C   -0.211697
    40  C    0.170612
    41  C   -0.035950
    42  C    0.115298
    43  C   -0.019518
    44  H    0.042402
    45  H   -0.040175
    46  H   -0.026516
    47  H    0.120413
    48  H    0.074556
    49  H    0.038131
    50  H    0.044665
    51  H   -0.029375
    52  H   -0.007462
    53  H    0.000842
    54  H   -0.010111
    55  H    0.040078
    56  H    0.048594
    57  H    0.024734
    58  H    0.092981
    59  H    0.038188
    60  H    0.174101
    61  H   -0.024802
    62  H    0.056356
    63  H    0.035528
    64  H   -0.005190
    65  H    0.030928
    66  H    0.002275
    67  H    0.046187
    68  H    0.036806
    69  H   -0.036790
    70  H   -0.052537
    71  H    0.040382
    72  H    0.135144
    73  H    0.018073
    74  H    0.034750
    75  H    0.037453
    76  H    0.014567
    77  H    0.182454
    78  H    0.046883
    79  H   -0.010655
 Sum of Mulliken charges =  -0.00000

 Dipole moment (field-independent basis, Debye):
    X=             -1.1954    Y=              1.4971    Z=              2.9834  Tot=              3.5455
 Quadrupole moment (field-independent basis, Debye-Ang):
   XX=           -218.3776   YY=           -233.3034   ZZ=           -262.4517
   XY=             -4.5644   XZ=             37.7763   YZ=              4.7366

 Normal termination of Gaussian 16 at Sat Sep 28 00:26:51 2019.
