 Gaussian 16, Revision A.03,
 Gaussian 16:  ES64L-G16RevA.03 25-Dec-2016

 --------------------------
 # td=(NStates=1) B3LYP/SVP
 --------------------------

 --
 TD
 --
 Symbolic Z-matrix:
 Charge =  0 Multiplicity = 1

                         Standard orientation:
 ---------------------------------------------------------------------
 Center     Atomic      Atomic             Coordinates (Angstroms)
 Number     Number       Type             X           Y           Z
 ---------------------------------------------------------------------
      1          8           0       -3.149892   -1.157881   -2.837514
      2          8           0        3.168647    3.131434    2.959356
      3          8           0        3.560972    1.298380    4.235371
      4          8           0        7.872959   -1.483223   -0.579136
      5          8           0        6.684420   -3.154499   -1.669332
      6          8           0       -2.638572    1.523596    1.443770
      7          7           0       -0.362535   -2.453875    0.852351
      8          7           0       -2.749658   -1.034106   -0.555868
      9          7           0        1.150880    0.029094   -0.780124
     10          7           0       -1.057498    1.497582   -0.174736
     11          6           0       -3.410655   -1.149432    0.642474
     12          6           0       -2.655949   -2.358427    1.607239
     13          6           0       -1.266108   -1.971364    1.697844
     14          6           0       -0.553541   -1.242046    2.832459
     15          6           0        0.744819   -1.156404    2.448265
     16          6           0        0.922705   -1.900860    1.230116
     17          6           0       -4.712931   -1.939818    0.171819
     18          6           0        1.782649   -0.387192    3.138215
     19          6           0       -4.809823   -2.006055   -1.150931
     20          6           0        1.958054   -1.878719    0.221330
     21          6           0        2.067021   -0.907058   -0.742519
     22          6           0       -3.533271   -1.369696   -1.727000
     23          6           0        3.011463   -0.736600   -1.804163
     24          6           0       -1.362412   -0.405365    3.784930
     25          6           0       -5.731888   -2.380338    1.274526
     26          6           0        2.630433    0.460306   -2.461623
     27          6           0        1.782437    1.132870    2.680687
     28          6           0        1.397495    0.973325   -1.841202
     29          6           0        4.249517   -1.411442   -2.055419
     30          6           0       -5.731450   -2.649847   -2.057486
     31          6           0        5.465022   -1.125557   -1.137087
     32          6           0        3.295737    1.182900   -3.665110
     33          6           0        0.590564    2.025477   -1.987589
     34          6           0        2.957129    1.801703    3.376553
     35          6           0       -0.610412    2.303507   -1.167998
     36          6           0       -6.829294   -3.335152   -1.738842
     37          6           0        6.710130   -1.936203   -1.253296
     38          6           0       -1.396102    3.533375   -1.108438
     39          6           0       -2.362045    3.395172   -0.061252
     40          6           0       -2.020432    2.016504    0.441313
     41          6           0       -1.183688    4.643498   -2.064814
     42          6           0       -3.259561    4.379709    0.582542
     43          6           0       -2.139830    5.579111   -2.363817
     44          1           0       -3.412710   -0.155847    1.188638
     45          1           0       -2.714992   -3.293618    1.025436
     46          1           0       -3.255430   -2.546565    2.492182
     47          1           0       -0.281291   -3.315016    0.122109
     48          1           0       -1.972727   -0.225696   -0.658915
     49          1           0        1.733336   -0.548057    4.270769
     50          1           0        2.818669   -0.674168    2.683536
     51          1           0        2.741982   -2.714140    0.148862
     52          1           0       -2.432613   -0.892583    4.132567
     53          1           0       -0.949283    0.003490    4.836293
     54          1           0       -1.767870    0.526170    3.248853
     55          1           0       -5.665716   -1.735675    2.025513
     56          1           0       -5.413038   -3.413696    1.535687
     57          1           0       -7.014114   -2.213732    0.927634
     58          1           0        1.655476    1.538361    1.623374
     59          1           0        0.862990    1.367230    2.975561
     60          1           0        0.257749    0.182710   -0.277715
     61          1           0        4.446856   -1.601693   -3.208693
     62          1           0        3.919477   -2.487559   -1.955107
     63          1           0       -5.473280   -2.263182   -3.106396
     64          1           0        5.047366   -1.497036   -0.130417
     65          1           0        5.649390   -0.007731   -1.340058
     66          1           0        4.241304    0.767430   -3.888950
     67          1           0        3.264052    2.266377   -3.474746
     68          1           0        2.470014    1.049872   -4.507365
     69          1           0        0.909344    2.741276   -2.802717
     70          1           0       -7.159042   -3.613343   -0.675180
     71          1           0       -7.399723   -3.726929   -2.533538
     72          1           0        3.863116    3.461167    3.584949
     73          1           0       -0.235408    4.751863   -2.586323
     74          1           0       -4.296779    4.328322   -0.040638
     75          1           0       -3.591266    4.124821    1.610291
     76          1           0       -2.725703    5.459643    0.386453
     77          1           0        8.382000   -2.391489   -0.630658
     78          1           0       -2.119745    6.285154   -3.275854
     79          1           0       -3.213677    5.851267   -1.987268
 ---------------------------------------------------------------------

 SCF Done:  E(RB3LYP) =  -1947.77986352     A.U. after   23 cycles

 Excitation energies and oscillator strengths:

 Excited State   1:      Singlet-A      0.5524 eV 2244.53 nm  f=0.0118  <S**2>=0.000
     155 ->156         0.70881
 This state for optimization and/or second-order correction.
 Total Energy, E(TD-HF/TD-DFT) =  -1947.75956377
 Copying the excited state density for this state as the 1-particle RhoCI density.

 The electronic state is 1-A.
 Alpha  occ. eigenvalues --  -19.20027 -19.16920 -19.14249 -19.13061 -19.11501
 Alpha  occ. eigenvalues --  -19.09480 -14.38500 -14.36794 -14.31835 -14.31250
 Alpha  occ. eigenvalues --  -10.34542 -10.31365 -10.27457 -10.26994 -10.26976
 Alpha  occ. eigenvalues --  -10.26427 -10.24825 -10.24717 -10.23638 -10.22889
 Alpha  occ. eigenvalues --  -10.22843 -10.22628 -10.22465 -10.22149 -10.22096
 Alpha  occ. eigenvalues --  -10.22082 -10.21875 -10.21859 -10.21858 -10.21790
 Alpha  occ. eigenvalues --  -10.21626 -10.20528 -10.20486 -10.20328 -10.19895
 Alpha  occ. eigenvalues --  -10.19499 -10.19154 -10.19144 -10.18930 -10.18091
 Alpha  occ. eigenvalues --  -10.18035 -10.17813 -10.17740  -1.09295  -1.07670
 Alpha  occ. eigenvalues --   -1.02277  -1.02034  -1.00603  -0.99866  -0.98312
 Alpha  occ. eigenvalues --   -0.96024  -0.95025  -0.91150  -0.84463  -0.83165
 Alpha  occ. eigenvalues --   -0.81149  -0.80821  -0.79808  -0.79065  -0.77698
 Alpha  occ. eigenvalues --   -0.75945  -0.75560  -0.74994  -0.74080  -0.73110
 Alpha  occ. eigenvalues --   -0.71062  -0.69958  -0.69768  -0.68565  -0.67028
 Alpha  occ. eigenvalues --   -0.65318  -0.65107  -0.62898  -0.61018  -0.59924
 Alpha  occ. eigenvalues --   -0.59525  -0.59434  -0.58073  -0.57143  -0.56685
 Alpha  occ. eigenvalues --   -0.55779  -0.54693  -0.54480  -0.54098  -0.52849
 Alpha  occ. eigenvalues --   -0.51966  -0.51340  -0.50589  -0.49559  -0.49392
 Alpha  occ. eigenvalues --   -0.49290  -0.48890  -0.48325  -0.48077  -0.47855
 Alpha  occ. eigenvalues --   -0.47351  -0.46685  -0.46069  -0.45744  -0.45395
 Alpha  occ. eigenvalues --   -0.45315  -0.44871  -0.44551  -0.44411  -0.44138
 Alpha  occ. eigenvalues --   -0.43306  -0.42979  -0.42662  -0.42479  -0.42220
 Alpha  occ. eigenvalues --   -0.41699  -0.41522  -0.41433  -0.41275  -0.40683
 Alpha  occ. eigenvalues --   -0.40487  -0.40318  -0.40216  -0.40112  -0.39802
 Alpha  occ. eigenvalues --   -0.39370  -0.38895  -0.38577  -0.38333  -0.38134
 Alpha  occ. eigenvalues --   -0.37888  -0.37576  -0.37157  -0.36472  -0.35898
 Alpha  occ. eigenvalues --   -0.35847  -0.34945  -0.34702  -0.34283  -0.34061
 Alpha  occ. eigenvalues --   -0.32768  -0.32537  -0.32420  -0.31854  -0.31674
 Alpha  occ. eigenvalues --   -0.31296  -0.30979  -0.29223  -0.29010  -0.28753
 Alpha  occ. eigenvalues --   -0.28603  -0.26976  -0.25848  -0.24803  -0.23887
 Alpha  occ. eigenvalues --   -0.23394  -0.23026  -0.22714  -0.22109  -0.17757
 Alpha virt. eigenvalues --   -0.13626  -0.08082  -0.04324  -0.03788  -0.02882
 Alpha virt. eigenvalues --   -0.00015   0.00817   0.02183   0.02659   0.03210
 Alpha virt. eigenvalues --    0.03488   0.03758   0.04174   0.04363   0.05099

 Mulliken charges:
               1
     1  O   -0.198565
     2  O   -0.244694
     3  O   -0.170849
     4  O   -0.245496
     5  O   -0.298096
     6  O   -0.282076
     7  N   -0.111012
     8  N   -0.265543
     9  N   -0.094176
    10  N   -0.211537
    11  C   -0.012916
    12  C    0.153115
    13  C   -0.057131
    14  C   -0.059355
    15  C   -0.047936
    16  C   -0.013206
    17  C   -0.196912
    18  C    0.057815
    19  C   -0.040164
    20  C   -0.175035
    21  C    0.118082
    22  C    0.146865
    23  C   -0.068893
    24  C   -0.056030
    25  C    0.074833
    26  C   -0.132983
    27  C    0.004921
    28  C    0.122771
    29  C    0.013759
    30  C   -0.006677
    31  C    0.053283
    32  C    0.103259
    33  C   -0.098879
    34  C    0.150600
    35  C    0.111156
    36  C   -0.029427
    37  C    0.187882
    38  C    0.017262
    39  C   -0.147751
    40  C    0.111758
    41  C    0.013132
    42  C    0.013533
    43  C   -0.111461
    44  H    0.089182
    45  H   -0.027643
    46  H    0.005833
    47  H    0.185997
    48  H    0.181048
    49  H    0.050249
    50  H    0.006925
    51  H    0.009001
    52  H    0.010693
    53  H    0.025501
    54  H    0.065882
    55  H   -0.006557
    56  H    0.046700
    57  H    0.051361
    58  H    0.036080
    59  H   -0.003425
    60  H    0.185054
    61  H    0.037102
    62  H    0.014662
    63  H    0.022194
    64  H    0.081569
    65  H    0.055435
    66  H    0.024255
    67  H    0.031890
    68  H    0.056222
    69  H   -0.003177
    70  H    0.032946
    71  H    0.007554
    72  H    0.179815
    73  H    0.007221
    74  H    0.054467
    75  H    0.046555
    76  H    0.065597
    77  H    0.217379
    78  H    0.034123
    79  H    0.045084
 Sum of Mulliken charges =  -0.00000

 Dipole moment (field-independent basis, Debye):
    X=              2.4188    Y=              2.7748    Z=             -1.4954  Tot=              3.9732
 Quadrupole moment (field-independent basis, Debye-Ang):
   XX=           -245.3459   YY=           -237.2877   ZZ=           -263.8162
   XY=              4.0238   XZ=            -19.0186   YZ=            -12.1346

 Normal termination of Gaussian 16 at Mon Jul 29 09:40:44 2019.
