 Gaussian 16, Revision A.03,
 Gaussian 16:  ES64L-G16RevA.03 25-Dec-2016

 --------------------------
 # td=(NStates=1) B3LYP/SVP
 --------------------------

 --
 TD
 --
 Symbolic Z-matrix:
 Charge =  0 Multiplicity = 1

                         Standard orientation:
 ---------------------------------------------------------------------
 Center     Atomic      Atomic             Coordinates (Angstroms)
 Number     Number       Type             X           Y           Z
 ---------------------------------------------------------------------
      1          8           0       -3.271587   -1.518844   -2.906792
      2          8           0        3.159295    3.371215    2.859827
      3          8           0        4.081219    1.669426    3.915785
      4          8           0        7.713628   -1.561278   -0.699510
      5          8           0        6.808368   -3.132193   -1.916603
      6          8           0       -2.528511    1.496432    1.429736
      7          7           0       -0.279104   -2.341291    1.059393
      8          7           0       -2.708047   -1.275328   -0.645487
      9          7           0        1.110934   -0.001690   -0.649255
     10          7           0       -0.960990    1.385114   -0.352774
     11          6           0       -3.340977   -1.310527    0.687304
     12          6           0       -2.670622   -2.388250    1.778179
     13          6           0       -1.249597   -1.925361    1.957808
     14          6           0       -0.670101   -1.077272    2.949814
     15          6           0        0.755571   -1.066301    2.663466
     16          6           0        0.879135   -1.792996    1.379526
     17          6           0       -4.782117   -1.713072    0.282577
     18          6           0        1.834430   -0.143482    3.174918
     19          6           0       -4.846465   -1.921471   -1.073141
     20          6           0        2.083799   -1.870895    0.473895
     21          6           0        2.058811   -1.022970   -0.618694
     22          6           0       -3.515361   -1.575840   -1.674782
     23          6           0        2.999949   -0.803651   -1.704360
     24          6           0       -1.328687   -0.299926    3.994608
     25          6           0       -5.893341   -2.132858    1.307513
     26          6           0        2.555271    0.354779   -2.409495
     27          6           0        1.840722    1.354904    2.724198
     28          6           0        1.428163    0.865768   -1.729768
     29          6           0        4.179654   -1.683641   -1.949704
     30          6           0       -5.907687   -2.441249   -1.810628
     31          6           0        5.365288   -1.200733   -1.142615
     32          6           0        3.138531    0.840319   -3.677394
     33          6           0        0.625078    1.952801   -2.053062
     34          6           0        3.117292    2.099982    3.243064
     35          6           0       -0.541430    2.277408   -1.264421
     36          6           0       -6.955248   -3.182752   -1.503141
     37          6           0        6.689999   -2.116384   -1.348461
     38          6           0       -1.395296    3.522227   -1.303413
     39          6           0       -2.283952    3.371541   -0.275716
     40          6           0       -2.029182    2.012095    0.434521
     41          6           0       -1.309175    4.481269   -2.383369
     42          6           0       -3.302794    4.274392    0.266613
     43          6           0       -2.107692    5.537037   -2.660106
     44          1           0       -3.339189   -0.167826    1.005456
     45          1           0       -2.590617   -3.356071    1.360954
     46          1           0       -3.418114   -2.380115    2.687835
     47          1           0       -0.668131   -2.919552    0.304266
     48          1           0       -1.913284   -0.474913   -0.926245
     49          1           0        1.802572   -0.114283    4.299521
     50          1           0        2.701172   -0.657147    2.886531
     51          1           0        2.762875   -2.837594    0.411889
     52          1           0       -2.239330   -0.651928    4.464226
     53          1           0       -0.804232    0.092672    4.881268
     54          1           0       -1.838157    0.562462    3.423675
     55          1           0       -5.862805   -1.346320    2.075606
     56          1           0       -5.684134   -3.160392    1.603791
     57          1           0       -6.899411   -1.948428    0.719892
     58          1           0        1.650270    1.394432    1.538822
     59          1           0        1.077151    1.743281    3.213292
     60          1           0        0.132860    0.088627   -0.193489
     61          1           0        4.414853   -1.775279   -3.133303
     62          1           0        3.867452   -2.655895   -1.580114
     63          1           0       -5.789632   -2.231608   -2.846188
     64          1           0        5.120215   -1.352875    0.066826
     65          1           0        5.709507   -0.203063   -1.378905
     66          1           0        4.199756    0.448160   -3.775437
     67          1           0        3.250850    1.913559   -3.629231
     68          1           0        2.356574    0.661028   -4.486922
     69          1           0        0.984639    2.704166   -2.775879
     70          1           0       -7.075370   -3.430675   -0.440806
     71          1           0       -7.761632   -3.549188   -2.229716
     72          1           0        3.894751    3.693500    3.417374
     73          1           0       -0.486082    4.398932   -2.974723
     74          1           0       -4.298237    4.266298   -0.472495
     75          1           0       -3.798947    3.965017    1.240616
     76          1           0       -3.040995    5.286071    0.355261
     77          1           0        8.403335   -2.250683   -0.767768
     78          1           0       -1.949204    6.006303   -3.760087
     79          1           0       -3.242000    5.624268   -2.342884
 ---------------------------------------------------------------------

 SCF Done:  E(RB3LYP) =  -1947.89607780     A.U. after   22 cycles

 Excitation energies and oscillator strengths:

 Excited State   1:      Singlet-A      0.8548 eV 1450.52 nm  f=0.0003  <S**2>=0.000
     155 ->156         0.70312
 This state for optimization and/or second-order correction.
 Total Energy, E(TD-HF/TD-DFT) =  -1947.86466608
 Copying the excited state density for this state as the 1-particle RhoCI density.

 The electronic state is 1-A.
 Alpha  occ. eigenvalues --  -19.18907 -19.18184 -19.14689 -19.14000 -19.11954
 Alpha  occ. eigenvalues --  -19.07542 -14.37909 -14.36420 -14.34073 -14.32060
 Alpha  occ. eigenvalues --  -10.32806 -10.32019 -10.30592 -10.26250 -10.26190
 Alpha  occ. eigenvalues --  -10.26161 -10.25170 -10.23635 -10.23436 -10.23349
 Alpha  occ. eigenvalues --  -10.23067 -10.22775 -10.22700 -10.22622 -10.22523
 Alpha  occ. eigenvalues --  -10.22474 -10.21934 -10.21865 -10.21704 -10.21483
 Alpha  occ. eigenvalues --  -10.21477 -10.21284 -10.20341 -10.20293 -10.20290
 Alpha  occ. eigenvalues --  -10.20145 -10.18258 -10.17960 -10.17721 -10.17633
 Alpha  occ. eigenvalues --  -10.17601 -10.17498 -10.17108  -1.12441  -1.10180
 Alpha  occ. eigenvalues --   -1.04529  -1.02816  -0.98630  -0.98298  -0.97962
 Alpha  occ. eigenvalues --   -0.97415  -0.93454  -0.90917  -0.83624  -0.82675
 Alpha  occ. eigenvalues --   -0.82002  -0.80353  -0.79574  -0.78476  -0.78096
 Alpha  occ. eigenvalues --   -0.76815  -0.75727  -0.75149  -0.73763  -0.72620
 Alpha  occ. eigenvalues --   -0.71070  -0.70102  -0.69182  -0.68884  -0.67083
 Alpha  occ. eigenvalues --   -0.66600  -0.65964  -0.63305  -0.61272  -0.60167
 Alpha  occ. eigenvalues --   -0.59604  -0.59389  -0.59059  -0.56936  -0.56295
 Alpha  occ. eigenvalues --   -0.55544  -0.55405  -0.54306  -0.53281  -0.53199
 Alpha  occ. eigenvalues --   -0.51845  -0.50885  -0.50771  -0.50022  -0.49736
 Alpha  occ. eigenvalues --   -0.49183  -0.48643  -0.48302  -0.48143  -0.47993
 Alpha  occ. eigenvalues --   -0.47716  -0.47134  -0.46157  -0.46031  -0.45971
 Alpha  occ. eigenvalues --   -0.45138  -0.44725  -0.44496  -0.44365  -0.44166
 Alpha  occ. eigenvalues --   -0.43939  -0.43741  -0.42987  -0.42714  -0.42383
 Alpha  occ. eigenvalues --   -0.42099  -0.41820  -0.41426  -0.41265  -0.40917
 Alpha  occ. eigenvalues --   -0.40730  -0.40553  -0.39955  -0.39854  -0.39727
 Alpha  occ. eigenvalues --   -0.39508  -0.39194  -0.39082  -0.38517  -0.37895
 Alpha  occ. eigenvalues --   -0.37650  -0.37408  -0.37212  -0.36883  -0.36663
 Alpha  occ. eigenvalues --   -0.36072  -0.35911  -0.35813  -0.35423  -0.35209
 Alpha  occ. eigenvalues --   -0.33926  -0.33899  -0.32804  -0.32254  -0.31663
 Alpha  occ. eigenvalues --   -0.31191  -0.30676  -0.30107  -0.29706  -0.29320
 Alpha  occ. eigenvalues --   -0.27436  -0.26954  -0.26369  -0.24589  -0.24349
 Alpha  occ. eigenvalues --   -0.23074  -0.22461  -0.22360  -0.22125  -0.18777
 Alpha virt. eigenvalues --   -0.13130  -0.08619  -0.03925  -0.02851  -0.00153
 Alpha virt. eigenvalues --    0.00291   0.01644   0.02305   0.02551   0.03219
 Alpha virt. eigenvalues --    0.03625   0.04141   0.04421   0.04941   0.05295

 Mulliken charges:
               1
     1  O   -0.284869
     2  O   -0.154749
     3  O   -0.279363
     4  O   -0.167645
     5  O   -0.181553
     6  O   -0.197546
     7  N   -0.012127
     8  N   -0.266029
     9  N   -0.176242
    10  N   -0.378982
    11  C    0.034650
    12  C    0.182540
    13  C   -0.129013
    14  C   -0.067827
    15  C   -0.125158
    16  C   -0.048033
    17  C   -0.225166
    18  C    0.101067
    19  C    0.000154
    20  C   -0.096205
    21  C    0.107011
    22  C    0.143483
    23  C   -0.076870
    24  C    0.064479
    25  C    0.057254
    26  C   -0.151678
    27  C    0.040761
    28  C    0.162386
    29  C    0.094072
    30  C   -0.018040
    31  C   -0.072326
    32  C    0.114061
    33  C   -0.109134
    34  C    0.132112
    35  C    0.091588
    36  C   -0.052108
    37  C    0.107285
    38  C    0.092588
    39  C   -0.195475
    40  C    0.236000
    41  C    0.024978
    42  C    0.037792
    43  C   -0.084258
    44  H    0.094660
    45  H   -0.027370
    46  H    0.034989
    47  H    0.127213
    48  H    0.192014
    49  H    0.005665
    50  H   -0.009983
    51  H    0.041449
    52  H   -0.022941
    53  H    0.007634
    54  H    0.035046
    55  H    0.022483
    56  H    0.056570
    57  H    0.055473
    58  H    0.074036
    59  H   -0.010613
    60  H    0.231280
    61  H    0.054528
    62  H    0.010704
    63  H   -0.019481
    64  H    0.084366
    65  H    0.038195
    66  H    0.034099
    67  H    0.011311
    68  H    0.058013
    69  H   -0.013828
    70  H   -0.003004
    71  H    0.035261
    72  H    0.173801
    73  H   -0.036384
    74  H    0.047036
    75  H    0.037890
    76  H    0.027451
    77  H    0.175547
    78  H    0.047979
    79  H    0.055047
 Sum of Mulliken charges =  -0.00000

 Dipole moment (field-independent basis, Debye):
    X=              1.9109    Y=              3.4001    Z=             -0.6507  Tot=              3.9542
 Quadrupole moment (field-independent basis, Debye-Ang):
   XX=           -242.8669   YY=           -238.9248   ZZ=           -266.2955
   XY=             -3.1230   XZ=            -26.0280   YZ=            -15.0704

 Normal termination of Gaussian 16 at Thu Jul 25 20:01:16 2019.
