 Gaussian 16, Revision A.03,
 Gaussian 16:  ES64L-G16RevA.03 25-Dec-2016

 --------------------------
 # td=(NStates=1) B3LYP/SVP
 --------------------------

 --
 TD
 --
 Symbolic Z-matrix:
 Charge =  0 Multiplicity = 1

                         Standard orientation:
 ---------------------------------------------------------------------
 Center     Atomic      Atomic             Coordinates (Angstroms)
 Number     Number       Type             X           Y           Z
 ---------------------------------------------------------------------
      1          8           0        5.426787   -0.132927   -3.304620
      2          8           0       -3.047168   -2.898090    3.046075
      3          8           0       -3.270366   -0.670765    3.121517
      4          8           0       -1.463036    7.259609    1.435313
      5          8           0       -0.472788    7.063610   -0.546166
      6          8           0       -1.665504   -3.982556    0.113726
      7          7           0        2.306754    0.973089    0.534890
      8          7           0        4.354750   -0.660838   -1.307933
      9          7           0       -1.791904    0.667461   -0.467201
     10          7           0       -2.548883   -1.929616   -0.549373
     11          6           0        4.697556   -1.250508   -0.078220
     12          6           0        4.349006   -0.286084    1.221576
     13          6           0        2.940025    0.001265    1.364629
     14          6           0        1.972396   -0.618651    2.233296
     15          6           0        0.749061    0.040962    1.894841
     16          6           0        0.887101    1.021055    0.861279
     17          6           0        6.161076   -1.396220   -0.156857
     18          6           0       -0.592808   -0.221261    2.596497
     19          6           0        6.723880   -0.867664   -1.325359
     20          6           0        0.210271    1.979848    0.157618
     21          6           0       -1.076165    1.806764   -0.320239
     22          6           0        5.463054   -0.473166   -2.157660
     23          6           0       -1.928324    2.916584   -0.882002
     24          6           0        2.141026   -1.583013    3.284118
     25          6           0        6.943595   -2.101230    0.919869
     26          6           0       -3.126225    2.372752   -1.238553
     27          6           0       -1.128853   -1.597764    2.475921
     28          6           0       -3.009763    0.923135   -1.034781
     29          6           0       -1.587317    4.386311   -0.862406
     30          6           0        7.992633   -0.754424   -1.954505
     31          6           0       -1.870095    5.082114    0.313080
     32          6           0       -4.398987    2.950720   -1.867441
     33          6           0       -3.923883   -0.139493   -1.368074
     34          6           0       -2.615516   -1.659203    2.970833
     35          6           0       -3.657059   -1.515146   -1.202616
     36          6           0        9.257708   -0.826948   -1.447796
     37          6           0       -1.202431    6.559327    0.268811
     38          6           0       -4.582179   -2.682179   -1.443667
     39          6           0       -3.928152   -3.782924   -0.953747
     40          6           0       -2.552385   -3.380416   -0.440634
     41          6           0       -5.817895   -2.394339   -2.129106
     42          6           0       -4.351912   -5.197261   -1.128342
     43          6           0       -6.683434   -3.351684   -2.543082
     44          1           0        4.060987   -2.315009   -0.013112
     45          1           0        4.775641    0.684657    0.952194
     46          1           0        4.788034   -1.034015    2.139716
     47          1           0        2.617007    1.689893   -0.112371
     48          1           0        3.473501   -0.646218   -1.581836
     49          1           0       -0.697021    0.168505    3.609866
     50          1           0       -1.478868    0.438768    1.965956
     51          1           0        0.589498    2.942370   -0.056647
     52          1           0        3.319919   -1.941213    3.314832
     53          1           0        1.649241   -1.338717    4.311230
     54          1           0        1.750948   -2.634880    3.126125
     55          1           0        6.225695   -2.958881    1.290016
     56          1           0        7.205822   -1.399664    1.793795
     57          1           0        7.948869   -2.591198    0.835521
     58          1           0       -1.291133   -2.212272    1.552486
     59          1           0       -0.702266   -2.383781    3.224660
     60          1           0       -1.872106   -0.396377   -0.341027
     61          1           0       -2.311893    4.982351   -1.694513
     62          1           0       -0.614226    4.621424   -1.324013
     63          1           0        7.752226   -0.548767   -3.050466
     64          1           0       -1.355534    4.605628    1.204381
     65          1           0       -2.965010    5.111573    0.899932
     66          1           0       -4.311435    3.957949   -2.242786
     67          1           0       -5.155688    3.177706   -1.084682
     68          1           0       -4.774653    2.140022   -2.628061
     69          1           0       -4.776853    0.119405   -1.837453
     70          1           0        9.366592   -0.933016   -0.355606
     71          1           0       10.153600   -0.556524   -2.020814
     72          1           0       -4.052270   -3.056013    3.229288
     73          1           0       -6.119616   -1.488090   -2.291786
     74          1           0       -5.339099   -5.345418   -0.747172
     75          1           0       -4.242066   -5.657993   -2.232627
     76          1           0       -3.744497   -5.926625   -0.262821
     77          1           0       -0.949229    8.029776    1.550640
     78          1           0       -7.620036   -3.062736   -3.076782
     79          1           0       -6.342539   -4.471855   -2.609183
 ---------------------------------------------------------------------

 SCF Done:  E(RB3LYP) =  -1947.84130923     A.U. after   16 cycles

 Excitation energies and oscillator strengths:

 Excited State   1:      Singlet-A      1.9519 eV  635.21 nm  f=0.4804  <S**2>=0.000
     155 ->156         0.70170
     155 <-156        -0.11678
 This state for optimization and/or second-order correction.
 Total Energy, E(TD-HF/TD-DFT) =  -1947.76957999
 Copying the excited state density for this state as the 1-particle RhoCI density.

 The electronic state is 1-A.
 Alpha  occ. eigenvalues --  -19.17392 -19.17342 -19.14193 -19.11227 -19.10778
 Alpha  occ. eigenvalues --  -19.10220 -14.38195 -14.36068 -14.34484 -14.28966
 Alpha  occ. eigenvalues --  -10.33596 -10.29679 -10.28882 -10.27447 -10.26025
 Alpha  occ. eigenvalues --  -10.24740 -10.24705 -10.24357 -10.23521 -10.23143
 Alpha  occ. eigenvalues --  -10.23031 -10.22929 -10.22478 -10.22122 -10.21891
 Alpha  occ. eigenvalues --  -10.21631 -10.21428 -10.21398 -10.21176 -10.21150
 Alpha  occ. eigenvalues --  -10.20857 -10.20755 -10.20662 -10.20653 -10.20440
 Alpha  occ. eigenvalues --  -10.20329 -10.20228 -10.20027 -10.19943 -10.19709
 Alpha  occ. eigenvalues --  -10.19686 -10.18882 -10.18447  -1.09604  -1.08197
 Alpha  occ. eigenvalues --   -1.03732  -1.02287  -1.01022  -0.99274  -0.98647
 Alpha  occ. eigenvalues --   -0.96163  -0.95092  -0.90977  -0.83767  -0.82196
 Alpha  occ. eigenvalues --   -0.81910  -0.80977  -0.80716  -0.79111  -0.78486
 Alpha  occ. eigenvalues --   -0.77122  -0.76179  -0.75291  -0.74384  -0.71798
 Alpha  occ. eigenvalues --   -0.70978  -0.70869  -0.69235  -0.68544  -0.67727
 Alpha  occ. eigenvalues --   -0.66325  -0.66117  -0.63568  -0.62460  -0.61532
 Alpha  occ. eigenvalues --   -0.60777  -0.59071  -0.58678  -0.57892  -0.56893
 Alpha  occ. eigenvalues --   -0.56568  -0.56066  -0.54585  -0.53762  -0.53401
 Alpha  occ. eigenvalues --   -0.51772  -0.51065  -0.50534  -0.50470  -0.49412
 Alpha  occ. eigenvalues --   -0.48412  -0.48301  -0.48086  -0.47862  -0.47309
 Alpha  occ. eigenvalues --   -0.46745  -0.46449  -0.45981  -0.45602  -0.45200
 Alpha  occ. eigenvalues --   -0.45145  -0.44644  -0.44334  -0.43823  -0.43603
 Alpha  occ. eigenvalues --   -0.43332  -0.43289  -0.43106  -0.42892  -0.42625
 Alpha  occ. eigenvalues --   -0.42383  -0.42087  -0.41843  -0.41597  -0.41205
 Alpha  occ. eigenvalues --   -0.40725  -0.40497  -0.40447  -0.40028  -0.39761
 Alpha  occ. eigenvalues --   -0.39341  -0.39309  -0.39139  -0.38739  -0.38028
 Alpha  occ. eigenvalues --   -0.37941  -0.37772  -0.37329  -0.36848  -0.36509
 Alpha  occ. eigenvalues --   -0.36332  -0.35652  -0.35127  -0.34256  -0.33905
 Alpha  occ. eigenvalues --   -0.33381  -0.33052  -0.31893  -0.31836  -0.31333
 Alpha  occ. eigenvalues --   -0.31064  -0.29996  -0.29289  -0.28787  -0.27629
 Alpha  occ. eigenvalues --   -0.26394  -0.26344  -0.25993  -0.25637  -0.24686
 Alpha  occ. eigenvalues --   -0.24334  -0.24016  -0.23401  -0.22246  -0.18793
 Alpha virt. eigenvalues --   -0.11113  -0.07022  -0.06474  -0.01201  -0.00964
 Alpha virt. eigenvalues --   -0.00006   0.01052   0.02449   0.02550   0.03005
 Alpha virt. eigenvalues --    0.03627   0.04334   0.04522   0.04854   0.05235

 Mulliken charges:
               1
     1  O   -0.193342
     2  O   -0.200720
     3  O   -0.225438
     4  O   -0.201505
     5  O   -0.202201
     6  O   -0.180057
     7  N   -0.171041
     8  N   -0.127821
     9  N   -0.053096
    10  N   -0.364126
    11  C   -0.000449
    12  C    0.142131
    13  C   -0.020337
    14  C   -0.035333
    15  C   -0.059366
    16  C    0.197494
    17  C   -0.137052
    18  C    0.029558
    19  C   -0.038676
    20  C   -0.116420
    21  C    0.068404
    22  C    0.140608
    23  C   -0.069287
    24  C    0.001981
    25  C    0.002692
    26  C   -0.090836
    27  C   -0.067199
    28  C    0.011498
    29  C    0.033083
    30  C   -0.031174
    31  C   -0.055675
    32  C    0.096468
    33  C   -0.008936
    34  C    0.101016
    35  C    0.073663
    36  C   -0.026251
    37  C    0.144590
    38  C    0.121849
    39  C   -0.223496
    40  C    0.211487
    41  C    0.031968
    42  C   -0.008538
    43  C   -0.053351
    44  H    0.053232
    45  H   -0.011821
    46  H    0.050148
    47  H    0.120984
    48  H    0.074453
    49  H    0.012794
    50  H    0.047078
    51  H   -0.024713
    52  H    0.008055
    53  H    0.046593
    54  H    0.041347
    55  H    0.033783
    56  H    0.046348
    57  H    0.038803
    58  H    0.081147
    59  H    0.017627
    60  H    0.168366
    61  H    0.029687
    62  H    0.037809
    63  H    0.030513
    64  H    0.038985
    65  H    0.071568
    66  H   -0.000564
    67  H    0.026393
    68  H    0.057162
    69  H   -0.094053
    70  H    0.017789
    71  H    0.037308
    72  H    0.213000
    73  H   -0.081803
    74  H    0.019589
    75  H    0.069357
    76  H    0.037921
    77  H    0.164439
    78  H    0.028937
    79  H    0.044974
 Sum of Mulliken charges =  -0.00000

 Dipole moment (field-independent basis, Debye):
    X=             -1.1157    Y=              1.4862    Z=              2.8560  Tot=              3.4074
 Quadrupole moment (field-independent basis, Debye-Ang):
   XX=           -221.7879   YY=           -246.6789   ZZ=           -262.9850
   XY=             -1.7007   XZ=             32.8065   YZ=              2.8422

 Normal termination of Gaussian 16 at Mon Sep 23 22:03:26 2019.
