 Gaussian 16, Revision A.03,
 Gaussian 16:  ES64L-G16RevA.03 25-Dec-2016

 --------------------------
 # td=(NStates=1) B3LYP/SVP
 --------------------------

 --
 TD
 --
 Symbolic Z-matrix:
 Charge =  0 Multiplicity = 1

                         Standard orientation:
 ---------------------------------------------------------------------
 Center     Atomic      Atomic             Coordinates (Angstroms)
 Number     Number       Type             X           Y           Z
 ---------------------------------------------------------------------
      1          8           0        5.237035   -0.257266   -3.260144
      2          8           0       -3.243277   -2.824617    3.140178
      3          8           0       -3.388222   -0.629782    2.848795
      4          8           0       -1.113747    7.210691    1.536821
      5          8           0       -0.095014    6.871740   -0.463689
      6          8           0       -1.898770   -4.066197   -0.045012
      7          7           0        2.298834    0.834915    0.603827
      8          7           0        4.177007   -0.662824   -1.204212
      9          7           0       -1.895162    0.681995   -0.374877
     10          7           0       -2.539379   -1.742346   -0.453323
     11          6           0        4.703110   -1.296884    0.087155
     12          6           0        4.261935   -0.521704    1.325300
     13          6           0        2.876133   -0.100274    1.363971
     14          6           0        1.935006   -0.580191    2.238957
     15          6           0        0.665356   -0.066915    1.805313
     16          6           0        0.926044    0.995731    0.882011
     17          6           0        6.205900   -1.502257   -0.184228
     18          6           0       -0.611005   -0.322849    2.600503
     19          6           0        6.456431   -1.090726   -1.416918
     20          6           0        0.257983    1.907955    0.136299
     21          6           0       -1.026324    1.870778   -0.323315
     22          6           0        5.215460   -0.617364   -2.115669
     23          6           0       -1.803951    2.895549   -0.914388
     24          6           0        2.079108   -1.706350    3.332350
     25          6           0        7.046584   -1.936194    0.889082
     26          6           0       -3.003234    2.417497   -1.358972
     27          6           0       -1.120296   -1.681851    2.608104
     28          6           0       -2.996850    0.988837   -0.997917
     29          6           0       -1.304576    4.334094   -0.952886
     30          6           0        7.736738   -1.059864   -2.169941
     31          6           0       -1.613043    5.067749    0.367465
     32          6           0       -4.128761    3.210549   -1.959691
     33          6           0       -3.882487   -0.017176   -1.292530
     34          6           0       -2.665361   -1.623087    2.909293
     35          6           0       -3.776396   -1.276355   -1.035564
     36          6           0        9.013809   -0.970178   -1.606008
     37          6           0       -0.851161    6.450163    0.366230
     38          6           0       -4.629861   -2.452825   -1.546103
     39          6           0       -4.014049   -3.530810   -1.036724
     40          6           0       -2.658333   -3.203533   -0.439955
     41          6           0       -5.907207   -2.252777   -2.223527
     42          6           0       -4.364642   -4.987479   -1.199763
     43          6           0       -6.828363   -3.192558   -2.500319
     44          1           0        4.144458   -2.402632    0.159831
     45          1           0        4.991927    0.332006    1.160884
     46          1           0        4.463019   -1.009174    2.145666
     47          1           0        2.884284    1.317055   -0.197433
     48          1           0        3.245655   -0.575371   -1.392871
     49          1           0       -0.155313   -0.192350    3.777272
     50          1           0       -1.374217    0.313545    2.200358
     51          1           0        0.816256    2.910299    0.107631
     52          1           0        3.122254   -1.813782    3.719489
     53          1           0        1.442131   -1.395063    4.203192
     54          1           0        1.735911   -2.840141    3.156964
     55          1           0        6.573799   -2.909508    1.547837
     56          1           0        7.491368   -0.968597    1.410804
     57          1           0        8.161457   -2.398554    0.504499
     58          1           0       -0.974311   -2.173452    1.768592
     59          1           0       -0.723954   -2.401039    3.432995
     60          1           0       -1.529626   -0.264985   -0.236560
     61          1           0       -2.028764    4.946388   -1.559322
     62          1           0       -0.235851    4.372042   -1.263586
     63          1           0        7.697753   -1.037299   -3.246105
     64          1           0       -1.051547    4.422705    1.285729
     65          1           0       -2.642042    5.299349    0.601041
     66          1           0       -3.820375    4.394927   -2.031858
     67          1           0       -5.066551    3.223009   -1.357397
     68          1           0       -4.219641    2.793643   -2.849694
     69          1           0       -4.710147    0.237683   -2.149955
     70          1           0        9.412208   -1.124706   -0.442647
     71          1           0        9.828490   -1.014381   -2.477117
     72          1           0       -4.207310   -2.711402    3.340928
     73          1           0       -6.132998   -1.070231   -2.267990
     74          1           0       -5.444152   -5.126407   -0.689309
     75          1           0       -4.457491   -5.526686   -2.054319
     76          1           0       -3.707281   -5.619316   -0.676279
     77          1           0       -0.450249    7.993510    1.374393
     78          1           0       -7.816517   -2.903861   -2.961860
     79          1           0       -6.697960   -4.188137   -1.924992
 ---------------------------------------------------------------------

 SCF Done:  E(RB3LYP) =  -1947.79604050     A.U. after   16 cycles

 Excitation energies and oscillator strengths:

 Excited State   1:      Singlet-A      2.0897 eV  593.32 nm  f=0.2559  <S**2>=0.000
     154 ->156         0.25734
     155 ->156         0.65326
 This state for optimization and/or second-order correction.
 Total Energy, E(TD-HF/TD-DFT) =  -1947.71924690
 Copying the excited state density for this state as the 1-particle RhoCI density.

 The electronic state is 1-A.
 Alpha  occ. eigenvalues --  -19.18423 -19.16702 -19.14821 -19.11029 -19.10538
 Alpha  occ. eigenvalues --  -19.09791 -14.39547 -14.36558 -14.36131 -14.28382
 Alpha  occ. eigenvalues --  -10.33409 -10.30844 -10.28991 -10.26973 -10.25785
 Alpha  occ. eigenvalues --  -10.24836 -10.24447 -10.24382 -10.23902 -10.23596
 Alpha  occ. eigenvalues --  -10.23587 -10.22866 -10.22442 -10.22301 -10.22068
 Alpha  occ. eigenvalues --  -10.22066 -10.21789 -10.21448 -10.21439 -10.21283
 Alpha  occ. eigenvalues --  -10.21203 -10.21071 -10.20681 -10.20591 -10.20399
 Alpha  occ. eigenvalues --  -10.20080 -10.19857 -10.19690 -10.19438 -10.18832
 Alpha  occ. eigenvalues --  -10.18826 -10.18399 -10.17362  -1.09190  -1.07492
 Alpha  occ. eigenvalues --   -1.03705  -1.00383  -1.00289  -0.99801  -0.99008
 Alpha  occ. eigenvalues --   -0.97694  -0.94209  -0.88505  -0.84212  -0.83603
 Alpha  occ. eigenvalues --   -0.83110  -0.81752  -0.80653  -0.79193  -0.78374
 Alpha  occ. eigenvalues --   -0.77427  -0.77122  -0.75673  -0.74151  -0.73125
 Alpha  occ. eigenvalues --   -0.71679  -0.71054  -0.69557  -0.68778  -0.67971
 Alpha  occ. eigenvalues --   -0.66705  -0.65985  -0.64171  -0.61543  -0.60540
 Alpha  occ. eigenvalues --   -0.59258  -0.58680  -0.57980  -0.57744  -0.57310
 Alpha  occ. eigenvalues --   -0.56234  -0.55300  -0.55138  -0.54031  -0.53234
 Alpha  occ. eigenvalues --   -0.52135  -0.51028  -0.50886  -0.50253  -0.49627
 Alpha  occ. eigenvalues --   -0.49306  -0.48988  -0.48513  -0.48285  -0.47887
 Alpha  occ. eigenvalues --   -0.47636  -0.47349  -0.46833  -0.46098  -0.46012
 Alpha  occ. eigenvalues --   -0.45147  -0.44938  -0.44672  -0.44217  -0.43997
 Alpha  occ. eigenvalues --   -0.43550  -0.43262  -0.43025  -0.42617  -0.42407
 Alpha  occ. eigenvalues --   -0.42064  -0.41716  -0.41682  -0.41459  -0.41425
 Alpha  occ. eigenvalues --   -0.41228  -0.40743  -0.40139  -0.39828  -0.39734
 Alpha  occ. eigenvalues --   -0.39508  -0.39345  -0.38848  -0.38748  -0.38260
 Alpha  occ. eigenvalues --   -0.38191  -0.37566  -0.37351  -0.37124  -0.36716
 Alpha  occ. eigenvalues --   -0.36523  -0.35134  -0.34883  -0.34623  -0.34213
 Alpha  occ. eigenvalues --   -0.33499  -0.33139  -0.33035  -0.32976  -0.31488
 Alpha  occ. eigenvalues --   -0.31293  -0.30419  -0.29708  -0.28694  -0.27378
 Alpha  occ. eigenvalues --   -0.27118  -0.26799  -0.26526  -0.26202  -0.25119
 Alpha  occ. eigenvalues --   -0.24813  -0.23936  -0.22763  -0.21664  -0.19450
 Alpha virt. eigenvalues --   -0.10742  -0.06040  -0.05873  -0.01470  -0.01015
 Alpha virt. eigenvalues --   -0.00107   0.00535   0.01304   0.01492   0.01958
 Alpha virt. eigenvalues --    0.02381   0.02752   0.03957   0.04209   0.04790

 Mulliken charges:
               1
     1  O   -0.194346
     2  O   -0.194820
     3  O   -0.254660
     4  O   -0.264943
     5  O   -0.208127
     6  O   -0.214045
     7  N   -0.114150
     8  N   -0.210452
     9  N   -0.060425
    10  N   -0.425257
    11  C   -0.011974
    12  C    0.343377
    13  C   -0.102706
    14  C   -0.123587
    15  C   -0.107906
    16  C    0.122118
    17  C   -0.083307
    18  C    0.058420
    19  C   -0.048143
    20  C   -0.128089
    21  C    0.089341
    22  C    0.163013
    23  C   -0.058995
    24  C    0.030327
    25  C   -0.077896
    26  C   -0.125549
    27  C    0.075111
    28  C    0.093320
    29  C    0.098367
    30  C   -0.002396
    31  C   -0.061787
    32  C    0.114726
    33  C   -0.163022
    34  C    0.135857
    35  C    0.120599
    36  C   -0.113991
    37  C    0.157401
    38  C    0.052950
    39  C   -0.185516
    40  C    0.201686
    41  C   -0.036425
    42  C    0.102417
    43  C   -0.057831
    44  H    0.044090
    45  H   -0.006522
    46  H   -0.079411
    47  H    0.152252
    48  H    0.104189
    49  H    0.041277
    50  H    0.018583
    51  H    0.024618
    52  H    0.012200
    53  H    0.013580
    54  H    0.061977
    55  H    0.069185
    56  H    0.069778
    57  H    0.054948
    58  H   -0.004044
    59  H    0.030098
    60  H    0.149067
    61  H    0.011681
    62  H    0.044614
    63  H    0.021697
    64  H    0.074509
    65  H    0.050262
    66  H    0.027767
    67  H    0.046941
    68  H    0.005595
    69  H    0.010805
    70  H    0.060435
    71  H    0.048275
    72  H    0.191735
    73  H    0.022383
    74  H    0.020073
    75  H    0.003241
    76  H   -0.003921
    77  H    0.204298
    78  H    0.035975
    79  H    0.039087
 Sum of Mulliken charges =  -0.00000

 Dipole moment (field-independent basis, Debye):
    X=              1.9777    Y=              2.8606    Z=              3.3913  Tot=              4.8575
 Quadrupole moment (field-independent basis, Debye-Ang):
   XX=           -223.0543   YY=           -253.2531   ZZ=           -263.3934
   XY=            -13.0184   XZ=             29.4006   YZ=             -4.9199

 Normal termination of Gaussian 16 at Mon Sep 16 06:16:16 2019.
