 Gaussian 16, Revision A.03,
 Gaussian 16:  ES64L-G16RevA.03 25-Dec-2016

 --------------------------
 # td=(NStates=1) B3LYP/SVP
 --------------------------

 --
 TD
 --
 Symbolic Z-matrix:
 Charge =  0 Multiplicity = 1

                         Standard orientation:
 ---------------------------------------------------------------------
 Center     Atomic      Atomic             Coordinates (Angstroms)
 Number     Number       Type             X           Y           Z
 ---------------------------------------------------------------------
      1          8           0       -3.368964   -0.921145   -2.942296
      2          8           0        3.152677    2.725329    3.195623
      3          8           0        3.525425    1.030945    4.572185
      4          8           0        7.700412   -1.601781   -0.504964
      5          8           0        6.883854   -2.674267   -2.311787
      6          8           0       -2.588509    1.536781    1.606101
      7          7           0       -0.295353   -2.439691    0.648471
      8          7           0       -2.794412   -1.256276   -0.688604
      9          7           0        1.181617    0.120925   -0.785755
     10          7           0       -1.022275    1.404529   -0.262201
     11          6           0       -3.453452   -1.402676    0.504873
     12          6           0       -2.831609   -2.451627    1.362056
     13          6           0       -1.283261   -2.136275    1.602131
     14          6           0       -0.603737   -1.596075    2.703757
     15          6           0        0.692074   -1.395164    2.398454
     16          6           0        0.953363   -2.013897    1.039068
     17          6           0       -4.832086   -1.857550    0.169629
     18          6           0        1.787166   -0.630884    3.113755
     19          6           0       -4.817065   -1.810660   -1.192344
     20          6           0        2.012797   -1.935818    0.047118
     21          6           0        2.113603   -0.856153   -0.799887
     22          6           0       -3.644418   -1.305200   -1.865446
     23          6           0        3.109915   -0.590905   -1.898973
     24          6           0       -1.360740   -1.080922    3.909727
     25          6           0       -5.931177   -2.259517    1.044981
     26          6           0        2.686094    0.649139   -2.443983
     27          6           0        1.843108    0.816064    2.738373
     28          6           0        1.488061    1.041988   -1.772184
     29          6           0        4.365085   -1.389181   -2.104403
     30          6           0       -5.980796   -2.049309   -2.167418
     31          6           0        5.422840   -1.058793   -1.176896
     32          6           0        3.275668    1.337215   -3.579324
     33          6           0        0.577925    2.193002   -1.820552
     34          6           0        2.945714    1.456213    3.621669
     35          6           0       -0.580498    2.330586   -1.090350
     36          6           0       -7.182774   -2.825971   -2.038084
     37          6           0        6.737617   -1.816749   -1.456498
     38          6           0       -1.380574    3.560877   -0.902945
     39          6           0       -2.156042    3.444833    0.125716
     40          6           0       -1.960616    2.009334    0.588321
     41          6           0       -1.117787    4.823260   -1.786403
     42          6           0       -3.230831    4.253945    0.680490
     43          6           0       -1.682939    5.973155   -1.602249
     44          1           0       -3.411193   -0.330002    1.038429
     45          1           0       -3.181499   -3.243965    0.901731
     46          1           0       -3.060759   -2.361660    2.445677
     47          1           0       -0.387384   -2.697520   -0.383466
     48          1           0       -2.193815   -0.344063   -0.628885
     49          1           0        1.714995   -0.704807    4.118709
     50          1           0        2.683464   -0.946136    2.837750
     51          1           0        2.564776   -2.852542    0.075087
     52          1           0       -1.951051   -1.937708    4.078462
     53          1           0       -0.696037   -0.613495    4.636282
     54          1           0       -2.050541   -0.297837    3.565880
     55          1           0       -5.914698   -1.430210    1.823633
     56          1           0       -5.700586   -3.229483    1.449642
     57          1           0       -6.908093   -2.251092    0.609095
     58          1           0        2.129703    1.163691    1.656330
     59          1           0        0.746056    1.289556    3.074783
     60          1           0        0.175380    0.193422   -0.281496
     61          1           0        4.465565   -1.255088   -3.374762
     62          1           0        4.415678   -2.482139   -1.754006
     63          1           0       -5.873332   -1.521139   -3.232210
     64          1           0        5.211321   -1.300205   -0.064272
     65          1           0        5.784096   -0.138139   -0.968282
     66          1           0        4.038974    0.523982   -4.128713
     67          1           0        4.030722    2.026220   -3.133188
     68          1           0        2.554107    1.542614   -4.393752
     69          1           0        1.024313    3.145795   -2.477512
     70          1           0       -7.410845   -3.358994   -1.076956
     71          1           0       -7.923311   -2.706067   -2.977977
     72          1           0        3.820318    3.072282    3.814967
     73          1           0       -0.453673    4.457822   -2.697029
     74          1           0       -3.641635    4.672099   -0.341425
     75          1           0       -4.104772    3.545648    1.215023
     76          1           0       -2.822359    5.073931    1.268860
     77          1           0        8.514217   -2.083380   -0.801648
     78          1           0       -1.636608    6.856373   -2.320058
     79          1           0       -2.361451    6.391214   -0.590060
 ---------------------------------------------------------------------

 SCF Done:  E(RB3LYP) =  -1947.75647386     A.U. after   18 cycles

 Excitation energies and oscillator strengths:

 Excited State   1:      Singlet-A      0.7378 eV 1680.50 nm  f=0.0017  <S**2>=0.000
     155 ->156         0.70523
 This state for optimization and/or second-order correction.
 Total Energy, E(TD-HF/TD-DFT) =  -1947.72936089
 Copying the excited state density for this state as the 1-particle RhoCI density.

 The electronic state is 1-A.
 Alpha  occ. eigenvalues --  -19.19678 -19.17374 -19.14342 -19.12816 -19.12152
 Alpha  occ. eigenvalues --  -19.10062 -14.37655 -14.37079 -14.31552 -14.31273
 Alpha  occ. eigenvalues --  -10.33822 -10.31340 -10.28602 -10.27597 -10.26798
 Alpha  occ. eigenvalues --  -10.26022 -10.24847 -10.24630 -10.24596 -10.23592
 Alpha  occ. eigenvalues --  -10.23109 -10.22924 -10.22917 -10.22479 -10.21919
 Alpha  occ. eigenvalues --  -10.21718 -10.21341 -10.20838 -10.20670 -10.20524
 Alpha  occ. eigenvalues --  -10.20460 -10.20405 -10.20303 -10.20267 -10.19907
 Alpha  occ. eigenvalues --  -10.19621 -10.19613 -10.18571 -10.18564 -10.17249
 Alpha  occ. eigenvalues --  -10.17013 -10.16684 -10.16477  -1.10328  -1.09949
 Alpha  occ. eigenvalues --   -1.03538  -1.01387  -1.00691  -1.00477  -0.99798
 Alpha  occ. eigenvalues --   -0.95267  -0.94418  -0.93632  -0.85215  -0.82845
 Alpha  occ. eigenvalues --   -0.81930  -0.80757  -0.80354  -0.79916  -0.78447
 Alpha  occ. eigenvalues --   -0.76943  -0.76357  -0.75381  -0.73795  -0.72708
 Alpha  occ. eigenvalues --   -0.70629  -0.70102  -0.69661  -0.69491  -0.68077
 Alpha  occ. eigenvalues --   -0.66639  -0.65380  -0.62879  -0.61438  -0.60283
 Alpha  occ. eigenvalues --   -0.58670  -0.57959  -0.57739  -0.57689  -0.56546
 Alpha  occ. eigenvalues --   -0.56048  -0.54909  -0.54411  -0.52962  -0.52673
 Alpha  occ. eigenvalues --   -0.52123  -0.51605  -0.50994  -0.50678  -0.50376
 Alpha  occ. eigenvalues --   -0.49344  -0.48958  -0.48640  -0.48110  -0.47978
 Alpha  occ. eigenvalues --   -0.47772  -0.47189  -0.46670  -0.45889  -0.45699
 Alpha  occ. eigenvalues --   -0.45273  -0.44874  -0.44607  -0.44540  -0.44267
 Alpha  occ. eigenvalues --   -0.44003  -0.43723  -0.43430  -0.42877  -0.42666
 Alpha  occ. eigenvalues --   -0.42449  -0.42290  -0.41682  -0.41215  -0.41000
 Alpha  occ. eigenvalues --   -0.40754  -0.40469  -0.40208  -0.39711  -0.39102
 Alpha  occ. eigenvalues --   -0.38957  -0.38816  -0.38611  -0.38450  -0.37856
 Alpha  occ. eigenvalues --   -0.37511  -0.37178  -0.36871  -0.36709  -0.36315
 Alpha  occ. eigenvalues --   -0.35823  -0.35124  -0.34664  -0.34359  -0.34186
 Alpha  occ. eigenvalues --   -0.33648  -0.33274  -0.32790  -0.32322  -0.31603
 Alpha  occ. eigenvalues --   -0.31270  -0.29798  -0.29600  -0.29013  -0.28934
 Alpha  occ. eigenvalues --   -0.28267  -0.27494  -0.25956  -0.25327  -0.24975
 Alpha  occ. eigenvalues --   -0.23824  -0.23012  -0.22352  -0.22176  -0.18421
 Alpha virt. eigenvalues --   -0.12914  -0.07089  -0.04390  -0.01893  -0.00677
 Alpha virt. eigenvalues --    0.00374   0.01019   0.01456   0.01717   0.02189
 Alpha virt. eigenvalues --    0.02837   0.03700   0.04027   0.04376   0.04994

 Mulliken charges:
               1
     1  O   -0.164394
     2  O   -0.185630
     3  O   -0.210323
     4  O   -0.208336
     5  O   -0.226662
     6  O   -0.274500
     7  N   -0.092730
     8  N   -0.263895
     9  N   -0.127670
    10  N   -0.327644
    11  C   -0.054423
    12  C    0.340684
    13  C   -0.126774
    14  C   -0.124369
    15  C   -0.127563
    16  C   -0.082499
    17  C   -0.157321
    18  C    0.285555
    19  C   -0.113045
    20  C   -0.118794
    21  C    0.155272
    22  C    0.166572
    23  C   -0.020430
    24  C    0.126063
    25  C    0.139549
    26  C   -0.144760
    27  C   -0.128397
    28  C    0.098262
    29  C    0.050697
    30  C   -0.072538
    31  C    0.026507
    32  C    0.058195
    33  C   -0.155943
    34  C    0.119482
    35  C    0.135618
    36  C   -0.086472
    37  C    0.123032
    38  C    0.003541
    39  C   -0.198801
    40  C    0.204357
    41  C    0.059498
    42  C    0.010306
    43  C   -0.128295
    44  H    0.074781
    45  H   -0.083428
    46  H   -0.025714
    47  H    0.139118
    48  H    0.167095
    49  H   -0.028976
    50  H   -0.065695
    51  H    0.011175
    52  H    0.012797
    53  H    0.004733
    54  H    0.034262
    55  H    0.033718
    56  H    0.030532
    57  H    0.015774
    58  H    0.057428
    59  H    0.075561
    60  H    0.246063
    61  H    0.079105
    62  H    0.043732
    63  H    0.043663
    64  H    0.059094
    65  H   -0.018748
    66  H    0.019104
    67  H    0.049094
    68  H    0.063051
    69  H    0.036620
    70  H    0.027391
    71  H    0.050258
    72  H    0.167780
    73  H    0.029140
    74  H    0.053464
    75  H    0.072774
    76  H    0.042846
    77  H    0.197880
    78  H    0.039780
    79  H    0.063767
 Sum of Mulliken charges =  -0.00000

 Dipole moment (field-independent basis, Debye):
    X=              4.4922    Y=              2.7362    Z=             -1.1118  Tot=              5.3761
 Quadrupole moment (field-independent basis, Debye-Ang):
   XX=           -232.3480   YY=           -240.1500   ZZ=           -272.2094
   XY=              5.4955   XZ=            -20.1765   YZ=            -10.2147

 Normal termination of Gaussian 16 at Sun Jul 28 05:30:00 2019.
