 Gaussian 16, Revision A.03,
 Gaussian 16:  ES64L-G16RevA.03 25-Dec-2016

 --------------------------
 # td=(NStates=1) B3LYP/SVP
 --------------------------

 --
 TD
 --
 Symbolic Z-matrix:
 Charge =  0 Multiplicity = 1

                         Standard orientation:
 ---------------------------------------------------------------------
 Center     Atomic      Atomic             Coordinates (Angstroms)
 Number     Number       Type             X           Y           Z
 ---------------------------------------------------------------------
      1          8           0        5.317636   -0.299178   -3.339536
      2          8           0       -2.989297   -2.854892    3.297767
      3          8           0       -3.301001   -0.556312    3.056295
      4          8           0       -1.561392    7.465372    1.188496
      5          8           0       -0.076999    6.863564   -0.378850
      6          8           0       -1.759880   -3.887999    0.130999
      7          7           0        2.354567    1.007137    0.622901
      8          7           0        4.342037   -0.590612   -1.282118
      9          7           0       -1.801376    0.670989   -0.446108
     10          7           0       -2.691421   -1.873434   -0.373478
     11          6           0        4.728710   -1.189889    0.062958
     12          6           0        4.435494   -0.361828    1.252425
     13          6           0        3.021094    0.060640    1.405042
     14          6           0        1.963767   -0.592521    2.086203
     15          6           0        0.667328    0.076961    1.818765
     16          6           0        0.947417    1.016714    0.879223
     17          6           0        6.122037   -1.508392   -0.173165
     18          6           0       -0.597563   -0.185400    2.512271
     19          6           0        6.602300   -0.991429   -1.399793
     20          6           0        0.136807    1.955740    0.204989
     21          6           0       -1.189414    1.835836   -0.270316
     22          6           0        5.380392   -0.582213   -2.146782
     23          6           0       -2.023765    2.953072   -0.808510
     24          6           0        2.155448   -1.658776    3.218676
     25          6           0        7.044604   -2.014515    0.893629
     26          6           0       -3.140330    2.394172   -1.324794
     27          6           0       -1.083655   -1.604976    2.566201
     28          6           0       -3.070456    0.951655   -1.096288
     29          6           0       -1.534240    4.317075   -0.957534
     30          6           0        7.946199   -0.919921   -2.084314
     31          6           0       -1.744723    5.204218    0.320435
     32          6           0       -4.285506    3.017883   -1.937807
     33          6           0       -4.017875   -0.074658   -1.267317
     34          6           0       -2.535611   -1.585723    2.979085
     35          6           0       -3.682768   -1.481934   -1.093777
     36          6           0        9.137102   -0.899594   -1.465635
     37          6           0       -1.154196    6.558804    0.254007
     38          6           0       -4.576601   -2.621219   -1.502739
     39          6           0       -3.938292   -3.757950   -0.999543
     40          6           0       -2.706282   -3.298402   -0.369238
     41          6           0       -5.872321   -2.546134   -2.164259
     42          6           0       -4.285525   -5.244765   -1.093052
     43          6           0       -6.768538   -3.535504   -2.487675
     44          1           0        4.088850   -2.178075    0.157348
     45          1           0        5.149095    0.501637    1.268230
     46          1           0        4.669219   -0.849441    2.200848
     47          1           0        2.741516    1.638969   -0.049690
     48          1           0        3.320593   -0.615254   -1.592601
     49          1           0       -0.502942    0.091519    3.312492
     50          1           0       -1.258459    0.372885    1.929583
     51          1           0        0.600339    2.926520   -0.097281
     52          1           0        3.095833   -1.506304    3.661527
     53          1           0        1.431156   -1.729061    4.142592
     54          1           0        1.914915   -2.693142    2.709693
     55          1           0        6.304998   -2.716119    1.580339
     56          1           0        7.102014   -1.318181    1.543133
     57          1           0        7.997670   -2.737183    0.602253
     58          1           0       -1.290289   -2.107431    1.548483
     59          1           0       -0.628221   -2.373001    3.015223
     60          1           0       -1.421332   -0.120697    0.024231
     61          1           0       -2.199204    4.898476   -1.858269
     62          1           0       -0.548191    4.434572   -1.488701
     63          1           0        7.917739   -0.817523   -3.063248
     64          1           0       -1.222403    4.629077    1.153834
     65          1           0       -2.679942    5.139132    0.811312
     66          1           0       -4.167008    4.207012   -2.121183
     67          1           0       -5.145452    2.950562   -1.276970
     68          1           0       -4.455685    2.697157   -3.071493
     69          1           0       -5.057376    0.062663   -1.848534
     70          1           0        9.385551   -1.020448   -0.373849
     71          1           0       10.038736   -0.865211   -2.156108
     72          1           0       -3.797644   -2.615844    3.479520
     73          1           0       -6.158008   -1.621409   -2.693104
     74          1           0       -5.329558   -5.712855   -0.694959
     75          1           0       -4.367848   -5.643294   -2.161541
     76          1           0       -3.373071   -6.050325   -0.675434
     77          1           0       -0.905929    8.241805    1.121719
     78          1           0       -7.665080   -3.320230   -2.952191
     79          1           0       -6.529991   -4.646127   -2.245188
 ---------------------------------------------------------------------

 SCF Done:  E(RB3LYP) =  -1947.76978561     A.U. after   17 cycles

 Excitation energies and oscillator strengths:

 Excited State   1:      Singlet-A      1.8388 eV  674.26 nm  f=0.3905  <S**2>=0.000
     155 ->156         0.70469
     155 <-156        -0.12808
 This state for optimization and/or second-order correction.
 Total Energy, E(TD-HF/TD-DFT) =  -1947.70221037
 Copying the excited state density for this state as the 1-particle RhoCI density.

 The electronic state is 1-A.
 Alpha  occ. eigenvalues --  -19.19175 -19.16803 -19.12639 -19.11667 -19.11522
 Alpha  occ. eigenvalues --  -19.08690 -14.37769 -14.37260 -14.35469 -14.29199
 Alpha  occ. eigenvalues --  -10.33434 -10.31482 -10.27424 -10.27183 -10.26186
 Alpha  occ. eigenvalues --  -10.25768 -10.24433 -10.23773 -10.23726 -10.23167
 Alpha  occ. eigenvalues --  -10.22789 -10.22718 -10.22392 -10.22306 -10.22306
 Alpha  occ. eigenvalues --  -10.21909 -10.21883 -10.21732 -10.21631 -10.21599
 Alpha  occ. eigenvalues --  -10.21477 -10.21437 -10.21212 -10.20994 -10.20766
 Alpha  occ. eigenvalues --  -10.20670 -10.20629 -10.20208 -10.19759 -10.19700
 Alpha  occ. eigenvalues --  -10.18912 -10.18456 -10.16628  -1.09387  -1.08579
 Alpha  occ. eigenvalues --   -1.02405  -1.01217  -0.98783  -0.97213  -0.97109
 Alpha  occ. eigenvalues --   -0.96875  -0.93302  -0.93153  -0.84297  -0.82995
 Alpha  occ. eigenvalues --   -0.82181  -0.81316  -0.80594  -0.80385  -0.78398
 Alpha  occ. eigenvalues --   -0.77311  -0.76958  -0.75818  -0.74768  -0.73103
 Alpha  occ. eigenvalues --   -0.71729  -0.71291  -0.69905  -0.69017  -0.68863
 Alpha  occ. eigenvalues --   -0.68519  -0.66133  -0.64394  -0.61175  -0.60481
 Alpha  occ. eigenvalues --   -0.60340  -0.59139  -0.58430  -0.57874  -0.56885
 Alpha  occ. eigenvalues --   -0.56280  -0.56016  -0.55533  -0.54424  -0.53646
 Alpha  occ. eigenvalues --   -0.53064  -0.52483  -0.51650  -0.51222  -0.50322
 Alpha  occ. eigenvalues --   -0.49384  -0.48298  -0.48115  -0.47963  -0.47952
 Alpha  occ. eigenvalues --   -0.47394  -0.47078  -0.46733  -0.46393  -0.46289
 Alpha  occ. eigenvalues --   -0.45697  -0.45213  -0.44836  -0.44493  -0.44222
 Alpha  occ. eigenvalues --   -0.43978  -0.43532  -0.43037  -0.42966  -0.42710
 Alpha  occ. eigenvalues --   -0.42346  -0.42136  -0.42052  -0.41289  -0.41171
 Alpha  occ. eigenvalues --   -0.40883  -0.40703  -0.40095  -0.39769  -0.39512
 Alpha  occ. eigenvalues --   -0.39433  -0.39258  -0.38999  -0.38693  -0.38557
 Alpha  occ. eigenvalues --   -0.38320  -0.37798  -0.37689  -0.37602  -0.36967
 Alpha  occ. eigenvalues --   -0.36091  -0.35807  -0.35208  -0.34814  -0.34478
 Alpha  occ. eigenvalues --   -0.33927  -0.33194  -0.33149  -0.31270  -0.31143
 Alpha  occ. eigenvalues --   -0.30950  -0.30456  -0.29143  -0.28075  -0.27937
 Alpha  occ. eigenvalues --   -0.27151  -0.26803  -0.26016  -0.25356  -0.24918
 Alpha  occ. eigenvalues --   -0.24370  -0.23872  -0.23750  -0.23019  -0.18793
 Alpha virt. eigenvalues --   -0.11698  -0.07553  -0.05904  -0.03409  -0.01395
 Alpha virt. eigenvalues --    0.00406   0.00808   0.01321   0.02972   0.03182
 Alpha virt. eigenvalues --    0.03356   0.04056   0.04529   0.04847   0.04987

 Mulliken charges:
               1
     1  O   -0.243544
     2  O   -0.117321
     3  O   -0.309119
     4  O   -0.208835
     5  O   -0.309129
     6  O   -0.188839
     7  N   -0.113994
     8  N   -0.224164
     9  N   -0.049664
    10  N   -0.238588
    11  C    0.111115
    12  C    0.225154
    13  C   -0.058823
    14  C   -0.148559
    15  C   -0.144421
    16  C    0.083940
    17  C   -0.208311
    18  C    0.441031
    19  C   -0.061081
    20  C   -0.103553
    21  C   -0.004239
    22  C    0.137992
    23  C   -0.022386
    24  C    0.014033
    25  C    0.113148
    26  C   -0.067079
    27  C    0.036839
    28  C    0.153001
    29  C   -0.034801
    30  C    0.079451
    31  C    0.052483
    32  C    0.013578
    33  C   -0.114340
    34  C    0.127293
    35  C    0.026620
    36  C   -0.055592
    37  C    0.181266
    38  C    0.062760
    39  C   -0.113981
    40  C    0.146085
    41  C   -0.056756
    42  C   -0.070095
    43  C   -0.016524
    44  H    0.040923
    45  H   -0.001662
    46  H   -0.011724
    47  H    0.105295
    48  H    0.150950
    49  H   -0.143052
    50  H   -0.030724
    51  H    0.002233
    52  H    0.009476
    53  H    0.032948
    54  H    0.051369
    55  H    0.003401
    56  H   -0.028457
    57  H    0.087616
    58  H    0.072909
    59  H   -0.031276
    60  H    0.134952
    61  H    0.028812
    62  H    0.058442
    63  H   -0.042502
    64  H    0.056772
    65  H    0.008064
    66  H    0.023860
    67  H    0.046152
    68  H    0.053424
    69  H    0.019337
    70  H    0.032939
    71  H    0.034041
    72  H    0.102286
    73  H    0.001631
    74  H    0.056485
    75  H    0.039355
    76  H    0.060384
    77  H    0.211767
    78  H    0.010957
    79  H    0.030563
 Sum of Mulliken charges =  -0.00000

 Dipole moment (field-independent basis, Debye):
    X=             -1.1374    Y=              1.3283    Z=              2.3695  Tot=              2.9450
 Quadrupole moment (field-independent basis, Debye-Ang):
   XX=           -221.3702   YY=           -246.4886   ZZ=           -263.0662
   XY=             -8.6846   XZ=             41.7548   YZ=              3.5348

 Normal termination of Gaussian 16 at Tue Oct  1 13:20:00 2019.
