 Gaussian 16, Revision A.03,
 Gaussian 16:  ES64L-G16RevA.03 25-Dec-2016

 --------------------------
 # td=(NStates=1) B3LYP/SVP
 --------------------------

 --
 TD
 --
 Symbolic Z-matrix:
 Charge =  0 Multiplicity = 1

                         Standard orientation:
 ---------------------------------------------------------------------
 Center     Atomic      Atomic             Coordinates (Angstroms)
 Number     Number       Type             X           Y           Z
 ---------------------------------------------------------------------
      1          8           0       -3.314605   -1.291455   -2.888303
      2          8           0        3.361797    3.120430    3.028660
      3          8           0        3.720874    1.304213    4.378792
      4          8           0        7.651960   -1.608551   -0.782303
      5          8           0        6.629738   -3.176619   -2.011314
      6          8           0       -2.697970    1.625241    1.357044
      7          7           0       -0.360393   -2.375182    0.964095
      8          7           0       -2.658423   -1.147520   -0.643120
      9          7           0        1.155314    0.119480   -0.647582
     10          7           0       -1.007708    1.462616   -0.176520
     11          6           0       -3.363264   -1.266031    0.604048
     12          6           0       -2.683997   -2.244642    1.597804
     13          6           0       -1.220855   -2.007062    1.786171
     14          6           0       -0.560718   -1.175659    2.791718
     15          6           0        0.753098   -1.040900    2.463789
     16          6           0        0.910977   -1.875461    1.275155
     17          6           0       -4.683441   -1.845365    0.288750
     18          6           0        1.867061   -0.320729    3.138695
     19          6           0       -4.806531   -1.946347   -1.048288
     20          6           0        2.002720   -1.922575    0.277986
     21          6           0        2.058623   -0.914940   -0.656379
     22          6           0       -3.547701   -1.409878   -1.737246
     23          6           0        2.912968   -0.599004   -1.796923
     24          6           0       -1.266243   -0.485576    3.916939
     25          6           0       -5.708401   -2.211100    1.386924
     26          6           0        2.438015    0.455475   -2.512120
     27          6           0        2.088104    1.154688    2.764771
     28          6           0        1.358072    0.898211   -1.782665
     29          6           0        4.056858   -1.607061   -2.082465
     30          6           0       -5.797114   -2.622583   -1.826740
     31          6           0        5.252515   -1.276489   -1.148029
     32          6           0        3.044933    1.025910   -3.783689
     33          6           0        0.672162    2.068642   -2.017438
     34          6           0        3.051249    1.930169    3.504684
     35          6           0       -0.540794    2.308069   -1.238082
     36          6           0       -6.759658   -3.582590   -1.529500
     37          6           0        6.514832   -2.108884   -1.384705
     38          6           0       -1.443303    3.607000   -1.216868
     39          6           0       -2.302325    3.473026   -0.225443
     40          6           0       -2.041051    2.189118    0.431642
     41          6           0       -1.173028    4.690379   -2.202285
     42          6           0       -3.406808    4.372074    0.244303
     43          6           0       -1.866517    5.838000   -2.322556
     44          1           0       -3.456725   -0.301160    1.241294
     45          1           0       -3.017926   -3.187024    1.136674
     46          1           0       -2.976787   -2.218825    2.647361
     47          1           0       -0.543421   -2.935953    0.116912
     48          1           0       -1.959133   -0.362514   -0.624818
     49          1           0        1.878454   -0.124669    4.261895
     50          1           0        2.927894   -0.866669    2.945700
     51          1           0        2.721749   -2.838059    0.204019
     52          1           0       -1.978587   -1.073059    4.424229
     53          1           0       -0.510835   -0.158657    4.642768
     54          1           0       -1.606053    0.358656    3.539909
     55          1           0       -5.705160   -1.669835    2.413939
     56          1           0       -5.533951   -3.217349    1.541114
     57          1           0       -6.720324   -2.273958    0.791917
     58          1           0        1.931778    1.158408    1.634661
     59          1           0        1.078022    1.669751    3.221469
     60          1           0        0.287219    0.243185   -0.134565
     61          1           0        4.662907   -1.644798   -3.061852
     62          1           0        3.652653   -2.670812   -1.899984
     63          1           0       -5.566349   -2.188925   -2.914107
     64          1           0        4.959757   -1.582725   -0.142746
     65          1           0        5.397973   -0.233238   -0.956287
     66          1           0        3.862627    0.344668   -3.938552
     67          1           0        3.371997    2.152844   -3.760426
     68          1           0        2.305336    0.927785   -4.596044
     69          1           0        1.025974    2.579155   -2.810648
     70          1           0       -6.802157   -4.043709   -0.618209
     71          1           0       -7.541687   -3.918236   -2.164843
     72          1           0        4.019119    3.671876    3.579197
     73          1           0       -0.629169    4.423419   -3.267914
     74          1           0       -3.930606    5.019904   -0.651263
     75          1           0       -3.935189    3.899740    1.152606
     76          1           0       -2.899633    5.300015    0.779481
     77          1           0        8.074801   -2.336554   -0.956391
     78          1           0       -1.977225    6.447247   -3.172837
     79          1           0       -2.445848    6.160928   -1.514119
 ---------------------------------------------------------------------

 SCF Done:  E(RB3LYP) =  -1947.82954729     A.U. after   18 cycles

 Excitation energies and oscillator strengths:

 Excited State   1:      Singlet-A      0.8757 eV 1415.77 nm  f=0.0127  <S**2>=0.000
     155 ->156         0.70391
 This state for optimization and/or second-order correction.
 Total Energy, E(TD-HF/TD-DFT) =  -1947.79736458
 Copying the excited state density for this state as the 1-particle RhoCI density.

 The electronic state is 1-A.
 Alpha  occ. eigenvalues --  -19.19511 -19.18454 -19.14615 -19.11996 -19.11141
 Alpha  occ. eigenvalues --  -19.10053 -14.37985 -14.36725 -14.32703 -14.32013
 Alpha  occ. eigenvalues --  -10.34201 -10.32035 -10.28487 -10.27612 -10.26999
 Alpha  occ. eigenvalues --  -10.25591 -10.25367 -10.23494 -10.23463 -10.23275
 Alpha  occ. eigenvalues --  -10.22979 -10.22664 -10.22613 -10.22493 -10.22299
 Alpha  occ. eigenvalues --  -10.22278 -10.21319 -10.21257 -10.20915 -10.20674
 Alpha  occ. eigenvalues --  -10.20626 -10.20479 -10.20221 -10.20216 -10.20144
 Alpha  occ. eigenvalues --  -10.19853 -10.19691 -10.19181 -10.18113 -10.18045
 Alpha  occ. eigenvalues --  -10.17908 -10.16560 -10.15647  -1.12841  -1.09234
 Alpha  occ. eigenvalues --   -1.03344  -1.01176  -1.01121  -1.00311  -0.99583
 Alpha  occ. eigenvalues --   -0.98053  -0.92047  -0.91422  -0.84379  -0.83337
 Alpha  occ. eigenvalues --   -0.81687  -0.80726  -0.80257  -0.79451  -0.78431
 Alpha  occ. eigenvalues --   -0.77027  -0.76765  -0.76066  -0.73861  -0.73009
 Alpha  occ. eigenvalues --   -0.70970  -0.70329  -0.69840  -0.69712  -0.67930
 Alpha  occ. eigenvalues --   -0.67548  -0.65901  -0.63774  -0.61823  -0.60867
 Alpha  occ. eigenvalues --   -0.60352  -0.60046  -0.59438  -0.57813  -0.57380
 Alpha  occ. eigenvalues --   -0.56538  -0.55938  -0.55386  -0.53365  -0.52990
 Alpha  occ. eigenvalues --   -0.51877  -0.51653  -0.51172  -0.50599  -0.50421
 Alpha  occ. eigenvalues --   -0.49862  -0.48932  -0.48596  -0.48469  -0.47943
 Alpha  occ. eigenvalues --   -0.47662  -0.46853  -0.46797  -0.46277  -0.46025
 Alpha  occ. eigenvalues --   -0.45837  -0.45179  -0.44729  -0.44269  -0.43882
 Alpha  occ. eigenvalues --   -0.43767  -0.43168  -0.42779  -0.42550  -0.42359
 Alpha  occ. eigenvalues --   -0.42036  -0.41894  -0.41655  -0.41537  -0.41441
 Alpha  occ. eigenvalues --   -0.40990  -0.40846  -0.40680  -0.40474  -0.40435
 Alpha  occ. eigenvalues --   -0.39916  -0.39405  -0.39241  -0.38702  -0.38308
 Alpha  occ. eigenvalues --   -0.37845  -0.37680  -0.37404  -0.36548  -0.36089
 Alpha  occ. eigenvalues --   -0.35831  -0.35475  -0.35370  -0.35011  -0.34049
 Alpha  occ. eigenvalues --   -0.33939  -0.33372  -0.32306  -0.32089  -0.31285
 Alpha  occ. eigenvalues --   -0.30708  -0.30132  -0.30052  -0.29749  -0.28907
 Alpha  occ. eigenvalues --   -0.27652  -0.26469  -0.26409  -0.25669  -0.24847
 Alpha  occ. eigenvalues --   -0.24706  -0.24098  -0.22495  -0.21962  -0.18500
 Alpha virt. eigenvalues --   -0.12948  -0.07918  -0.04215  -0.02638  -0.02282
 Alpha virt. eigenvalues --   -0.00698   0.01592   0.02198   0.02565   0.02749
 Alpha virt. eigenvalues --    0.03084   0.04478   0.04804   0.05151   0.05584

 Mulliken charges:
               1
     1  O   -0.173893
     2  O   -0.182936
     3  O   -0.290668
     4  O   -0.111903
     5  O   -0.259584
     6  O   -0.250092
     7  N    0.065730
     8  N   -0.258235
     9  N   -0.094208
    10  N   -0.364140
    11  C    0.033098
    12  C    0.194119
    13  C   -0.175771
    14  C   -0.187268
    15  C    0.001070
    16  C   -0.069095
    17  C   -0.178556
    18  C    0.021876
    19  C   -0.111161
    20  C   -0.143118
    21  C    0.141133
    22  C    0.177011
    23  C   -0.066878
    24  C    0.223173
    25  C    0.105434
    26  C   -0.125856
    27  C   -0.086255
    28  C    0.108321
    29  C    0.019587
    30  C   -0.026103
    31  C    0.026086
    32  C    0.107642
    33  C   -0.030000
    34  C    0.177895
    35  C    0.119668
    36  C   -0.012779
    37  C    0.144724
    38  C    0.057108
    39  C   -0.157054
    40  C    0.191856
    41  C   -0.049126
    42  C    0.013898
    43  C   -0.006367
    44  H    0.069836
    45  H   -0.034374
    46  H   -0.007665
    47  H    0.124105
    48  H    0.159012
    49  H    0.023413
    50  H    0.020715
    51  H    0.032688
    52  H   -0.005052
    53  H   -0.020952
    54  H   -0.019669
    55  H    0.051135
    56  H    0.002824
    57  H    0.039193
    58  H    0.050140
    59  H    0.047464
    60  H    0.182845
    61  H    0.047512
    62  H    0.051806
    63  H    0.030159
    64  H    0.038352
    65  H    0.028528
    66  H    0.013998
    67  H    0.056464
    68  H    0.039475
    69  H   -0.077176
    70  H   -0.015591
    71  H    0.018998
    72  H    0.218178
    73  H    0.040185
    74  H    0.060356
    75  H    0.055103
    76  H    0.037486
    77  H    0.098267
    78  H    0.024050
    79  H   -0.000194
 Sum of Mulliken charges =  -0.00000

 Dipole moment (field-independent basis, Debye):
    X=              1.9088    Y=              4.3575    Z=             -1.3444  Tot=              4.9435
 Quadrupole moment (field-independent basis, Debye-Ang):
   XX=           -256.5457   YY=           -227.9861   ZZ=           -265.8081
   XY=              9.3699   XZ=            -20.6943   YZ=            -11.8922

 Normal termination of Gaussian 16 at Fri Jul 26 19:46:59 2019.
