 Gaussian 16, Revision A.03,
 Gaussian 16:  ES64L-G16RevA.03 25-Dec-2016

 --------------------------
 # td=(NStates=1) B3LYP/SVP
 --------------------------

 --
 TD
 --
 Symbolic Z-matrix:
 Charge =  0 Multiplicity = 1

                         Standard orientation:
 ---------------------------------------------------------------------
 Center     Atomic      Atomic             Coordinates (Angstroms)
 Number     Number       Type             X           Y           Z
 ---------------------------------------------------------------------
      1          8           0        5.352056   -0.001723   -3.267114
      2          8           0       -2.894526   -3.189741    3.169693
      3          8           0       -3.259223   -0.947406    3.054574
      4          8           0       -1.268881    7.025377    1.816052
      5          8           0       -0.503217    7.060501   -0.352608
      6          8           0       -1.841789   -3.929536   -0.177193
      7          7           0        2.370575    0.831015    0.560285
      8          7           0        4.309004   -0.648478   -1.338986
      9          7           0       -1.858639    0.790542   -0.474872
     10          7           0       -2.765817   -1.826574   -0.521007
     11          6           0        4.757541   -1.268520   -0.079968
     12          6           0        4.372219   -0.422894    1.233493
     13          6           0        2.915092   -0.115557    1.356252
     14          6           0        1.947359   -0.838962    2.034509
     15          6           0        0.750155   -0.168179    1.776762
     16          6           0        1.003099    0.828288    0.767470
     17          6           0        6.283422   -1.374572   -0.199978
     18          6           0       -0.564766   -0.345663    2.604120
     19          6           0        6.614216   -1.034448   -1.497618
     20          6           0        0.230455    1.864790    0.181139
     21          6           0       -1.116643    1.801200   -0.327379
     22          6           0        5.387837   -0.476888   -2.171261
     23          6           0       -1.904099    2.990415   -0.870236
     24          6           0        2.200916   -1.953687    2.915573
     25          6           0        7.007698   -2.031121    0.904698
     26          6           0       -3.105177    2.542777   -1.252513
     27          6           0       -0.975032   -1.840807    2.660585
     28          6           0       -3.036949    1.104527   -1.088815
     29          6           0       -1.446544    4.367460   -0.822451
     30          6           0        7.911304   -0.868213   -2.112942
     31          6           0       -1.543720    5.053903    0.605360
     32          6           0       -4.173049    3.292692   -1.827678
     33          6           0       -3.944425    0.119031   -1.338969
     34          6           0       -2.563654   -1.935664    2.928564
     35          6           0       -3.810910   -1.274830   -1.094192
     36          6           0        9.120730   -0.638417   -1.455512
     37          6           0       -1.045590    6.548900    0.640458
     38          6           0       -4.748994   -2.467935   -1.508431
     39          6           0       -4.052420   -3.576202   -1.106465
     40          6           0       -2.829555   -3.215629   -0.506994
     41          6           0       -6.010217   -2.118205   -2.134558
     42          6           0       -4.490374   -5.031882   -1.182731
     43          6           0       -7.034310   -3.016526   -2.512747
     44          1           0        4.233000   -2.391155    0.004986
     45          1           0        5.005312    0.281738    1.125279
     46          1           0        4.747210   -0.982364    2.142108
     47          1           0        2.819914    1.224533   -0.102220
     48          1           0        3.371476   -0.595013   -1.704078
     49          1           0       -0.256658   -0.165462    3.750067
     50          1           0       -1.396295    0.455902    2.296324
     51          1           0        0.774321    2.677841   -0.168536
     52          1           0        3.274736   -2.011133    3.218278
     53          1           0        1.845673   -1.741093    3.970039
     54          1           0        1.630015   -2.804038    2.878880
     55          1           0        6.406936   -2.732105    1.275801
     56          1           0        7.306600   -1.273764    1.720133
     57          1           0        8.128302   -2.343019    0.564577
     58          1           0       -0.958445   -2.321954    1.792415
     59          1           0       -0.457039   -2.619989    3.363269
     60          1           0       -1.632516   -0.112174   -0.313131
     61          1           0       -1.975733    4.975044   -1.487722
     62          1           0       -0.362131    4.277952   -1.059634
     63          1           0        7.995631   -0.760411   -3.259684
     64          1           0       -0.907202    4.434259    1.135824
     65          1           0       -2.660609    5.193939    0.796554
     66          1           0       -3.793326    4.233591   -2.002787
     67          1           0       -5.169258    3.195663   -1.332127
     68          1           0       -4.301934    2.862973   -2.818315
     69          1           0       -4.754727    0.509924   -1.989940
     70          1           0        9.054429   -0.535847   -0.301661
     71          1           0       10.110052   -0.686825   -2.133108
     72          1           0       -3.890395   -3.213711    3.502880
     73          1           0       -6.162167   -1.071083   -2.406187
     74          1           0       -5.423438   -5.234584   -0.651488
     75          1           0       -4.781964   -5.430376   -2.043425
     76          1           0       -3.516995   -5.766636   -0.940659
     77          1           0       -0.922571    8.012718    1.879881
     78          1           0       -7.913259   -2.553508   -3.007057
     79          1           0       -7.161854   -4.150242   -2.325974
 ---------------------------------------------------------------------

 SCF Done:  E(RB3LYP) =  -1947.82895318     A.U. after   19 cycles

 Excitation energies and oscillator strengths:

 Excited State   1:      Singlet-A      1.8253 eV  679.26 nm  f=0.4655  <S**2>=0.000
     155 ->156         0.70634
     155 <-156        -0.14648
 This state for optimization and/or second-order correction.
 Total Energy, E(TD-HF/TD-DFT) =  -1947.76187480
 Copying the excited state density for this state as the 1-particle RhoCI density.

 The electronic state is 1-A.
 Alpha  occ. eigenvalues --  -19.21564 -19.18301 -19.12849 -19.11049 -19.09786
 Alpha  occ. eigenvalues --  -19.09741 -14.37325 -14.36322 -14.35616 -14.27981
 Alpha  occ. eigenvalues --  -10.32958 -10.30572 -10.28186 -10.26302 -10.25490
 Alpha  occ. eigenvalues --  -10.24051 -10.23807 -10.22988 -10.22781 -10.22741
 Alpha  occ. eigenvalues --  -10.22582 -10.21643 -10.21622 -10.21310 -10.21169
 Alpha  occ. eigenvalues --  -10.21125 -10.21026 -10.20956 -10.20804 -10.20719
 Alpha  occ. eigenvalues --  -10.20666 -10.20433 -10.20236 -10.19770 -10.19742
 Alpha  occ. eigenvalues --  -10.19503 -10.19405 -10.19148 -10.19041 -10.18904
 Alpha  occ. eigenvalues --  -10.18608 -10.18582 -10.18074  -1.11845  -1.08305
 Alpha  occ. eigenvalues --   -1.03538  -1.01853  -1.00401  -1.00058  -0.99081
 Alpha  occ. eigenvalues --   -0.98953  -0.93830  -0.91411  -0.84408  -0.82672
 Alpha  occ. eigenvalues --   -0.82279  -0.81687  -0.79877  -0.79041  -0.77657
 Alpha  occ. eigenvalues --   -0.77064  -0.75536  -0.75093  -0.74222  -0.73210
 Alpha  occ. eigenvalues --   -0.72646  -0.71639  -0.70003  -0.69023  -0.68114
 Alpha  occ. eigenvalues --   -0.66769  -0.65904  -0.64343  -0.62340  -0.61503
 Alpha  occ. eigenvalues --   -0.60492  -0.59856  -0.59056  -0.58329  -0.58018
 Alpha  occ. eigenvalues --   -0.57665  -0.56346  -0.55723  -0.54276  -0.53004
 Alpha  occ. eigenvalues --   -0.52164  -0.51875  -0.51268  -0.50152  -0.49533
 Alpha  occ. eigenvalues --   -0.49182  -0.48653  -0.48167  -0.47775  -0.47602
 Alpha  occ. eigenvalues --   -0.46847  -0.46745  -0.46470  -0.46400  -0.46265
 Alpha  occ. eigenvalues --   -0.45670  -0.45252  -0.45175  -0.44692  -0.44565
 Alpha  occ. eigenvalues --   -0.43528  -0.43394  -0.43167  -0.43083  -0.42635
 Alpha  occ. eigenvalues --   -0.42374  -0.42270  -0.42084  -0.41479  -0.40873
 Alpha  occ. eigenvalues --   -0.40763  -0.40450  -0.39784  -0.39461  -0.39294
 Alpha  occ. eigenvalues --   -0.39225  -0.39165  -0.38811  -0.38535  -0.38334
 Alpha  occ. eigenvalues --   -0.37993  -0.37938  -0.37459  -0.37296  -0.36278
 Alpha  occ. eigenvalues --   -0.35984  -0.35613  -0.35425  -0.34652  -0.33783
 Alpha  occ. eigenvalues --   -0.33602  -0.33314  -0.33095  -0.33065  -0.31190
 Alpha  occ. eigenvalues --   -0.30945  -0.30770  -0.28195  -0.27699  -0.26625
 Alpha  occ. eigenvalues --   -0.26232  -0.26083  -0.25761  -0.25273  -0.24583
 Alpha  occ. eigenvalues --   -0.24178  -0.23701  -0.23631  -0.21870  -0.17720
 Alpha virt. eigenvalues --   -0.10920  -0.06599  -0.06277  -0.00754   0.00272
 Alpha virt. eigenvalues --    0.00501   0.01049   0.01964   0.02061   0.03377
 Alpha virt. eigenvalues --    0.03959   0.04056   0.04360   0.04858   0.05406

 Mulliken charges:
               1
     1  O   -0.192524
     2  O   -0.192670
     3  O   -0.238130
     4  O   -0.154865
     5  O   -0.257485
     6  O   -0.244879
     7  N    0.037932
     8  N   -0.195608
     9  N    0.139908
    10  N   -0.246662
    11  C   -0.015943
    12  C    0.282797
    13  C   -0.105197
    14  C   -0.112728
    15  C   -0.065104
    16  C    0.030221
    17  C   -0.157197
    18  C    0.042427
    19  C   -0.022543
    20  C   -0.059062
    21  C   -0.019996
    22  C    0.120133
    23  C   -0.106717
    24  C    0.167829
    25  C    0.099139
    26  C   -0.120380
    27  C   -0.003879
    28  C    0.027236
    29  C    0.104212
    30  C   -0.057817
    31  C    0.016513
    32  C    0.189129
    33  C   -0.081805
    34  C    0.134918
    35  C    0.045077
    36  C   -0.085696
    37  C    0.126692
    38  C    0.098540
    39  C   -0.180351
    40  C    0.151760
    41  C   -0.043765
    42  C    0.097674
    43  C   -0.057730
    44  H    0.053453
    45  H   -0.095414
    46  H    0.001220
    47  H    0.036428
    48  H    0.132283
    49  H    0.027783
    50  H    0.066111
    51  H   -0.042047
    52  H   -0.005267
    53  H   -0.017145
    54  H    0.002611
    55  H    0.004556
    56  H    0.041701
    57  H    0.050342
    58  H   -0.001746
    59  H    0.040279
    60  H    0.075722
    61  H   -0.012729
    62  H    0.013718
    63  H    0.039070
    64  H    0.019623
    65  H    0.045618
    66  H   -0.028067
    67  H    0.036122
    68  H    0.013394
    69  H   -0.028132
    70  H    0.035401
    71  H    0.062372
    72  H    0.210976
    73  H    0.002258
    74  H    0.010408
    75  H   -0.030829
    76  H    0.049617
    77  H    0.222249
    78  H    0.026574
    79  H    0.048083
 Sum of Mulliken charges =  -0.00000

 Dipole moment (field-independent basis, Debye):
    X=             -0.1993    Y=              2.7270    Z=              4.0372  Tot=              4.8760
 Quadrupole moment (field-independent basis, Debye-Ang):
   XX=           -217.4096   YY=           -240.1390   ZZ=           -257.2395
   XY=            -11.0119   XZ=             30.7583   YZ=              6.1878

 Normal termination of Gaussian 16 at Tue Sep 17 23:31:53 2019.
