 Gaussian 16, Revision A.03,
 Gaussian 16:  ES64L-G16RevA.03 25-Dec-2016

 --------------------------
 # td=(NStates=1) B3LYP/SVP
 --------------------------

 --
 TD
 --
 Symbolic Z-matrix:
 Charge =  0 Multiplicity = 1

                         Standard orientation:
 ---------------------------------------------------------------------
 Center     Atomic      Atomic             Coordinates (Angstroms)
 Number     Number       Type             X           Y           Z
 ---------------------------------------------------------------------
      1          8           0        5.617976    0.004327   -3.276008
      2          8           0       -3.077423   -2.904134    3.109229
      3          8           0       -3.401776   -0.754783    2.773222
      4          8           0       -1.546828    6.970329    1.667154
      5          8           0       -0.994885    7.086991   -0.566818
      6          8           0       -1.681736   -3.963814    0.048311
      7          7           0        2.257398    1.008951    0.474109
      8          7           0        4.520004   -0.435529   -1.300879
      9          7           0       -1.902119    0.687257   -0.438658
     10          7           0       -2.600587   -1.926326   -0.438103
     11          6           0        4.816545   -1.032213   -0.011937
     12          6           0        4.415307   -0.202346    1.187963
     13          6           0        2.917206    0.070250    1.294472
     14          6           0        1.968346   -0.594207    2.052723
     15          6           0        0.679853    0.014631    1.758704
     16          6           0        0.931242    0.934553    0.772411
     17          6           0        6.345128   -1.191332   -0.064454
     18          6           0       -0.650691   -0.244759    2.413659
     19          6           0        6.844709   -0.774228   -1.276261
     20          6           0        0.120019    2.046635    0.137078
     21          6           0       -1.189501    1.845846   -0.326312
     22          6           0        5.718134   -0.404457   -2.096365
     23          6           0       -2.050503    2.909835   -0.905289
     24          6           0        2.097738   -1.704953    3.091227
     25          6           0        7.102391   -1.905315    1.088443
     26          6           0       -3.202200    2.338637   -1.303573
     27          6           0       -1.101791   -1.660955    2.514133
     28          6           0       -3.088227    0.890005   -1.140227
     29          6           0       -1.616285    4.380304   -0.954828
     30          6           0        8.154953   -0.908845   -1.869285
     31          6           0       -1.880867    5.068887    0.431676
     32          6           0       -4.335546    2.935402   -2.014734
     33          6           0       -3.998849   -0.130631   -1.364971
     34          6           0       -2.640752   -1.686109    2.834332
     35          6           0       -3.749751   -1.526547   -1.022006
     36          6           0        9.362859   -0.939708   -1.259749
     37          6           0       -1.286254    6.417398    0.413819
     38          6           0       -4.618181   -2.716788   -1.426379
     39          6           0       -3.895385   -3.775264   -0.945058
     40          6           0       -2.583418   -3.268368   -0.382406
     41          6           0       -5.887491   -2.608731   -1.927173
     42          6           0       -4.097102   -5.267710   -1.210336
     43          6           0       -6.676834   -3.545310   -2.323999
     44          1           0        4.254633   -2.068525   -0.163726
     45          1           0        4.941073    0.728719    1.231922
     46          1           0        4.758559   -0.642080    2.223573
     47          1           0        2.747225    1.562855   -0.137321
     48          1           0        3.717208   -0.711356   -1.832702
     49          1           0       -0.402456    0.014998    3.681766
     50          1           0       -1.532015    0.473766    2.298634
     51          1           0        0.588388    3.149742    0.040817
     52          1           0        3.136292   -1.757427    3.309999
     53          1           0        1.485512   -1.586428    4.081649
     54          1           0        1.554106   -2.588674    2.626806
     55          1           0        6.276026   -2.605411    1.597470
     56          1           0        7.180697   -1.103587    1.718138
     57          1           0        7.903003   -2.395258    0.591566
     58          1           0       -1.085845   -1.840940    1.411354
     59          1           0       -0.298336   -2.342200    3.249746
     60          1           0       -1.566342   -0.315844   -0.345636
     61          1           0       -2.263858    5.002151   -1.676900
     62          1           0       -0.464881    4.571023   -1.203510
     63          1           0        8.317207   -1.033719   -2.940967
     64          1           0       -1.299602    4.595709    1.244560
     65          1           0       -2.987348    5.308844    0.607944
     66          1           0       -4.048421    3.993444   -2.371709
     67          1           0       -5.096161    2.879122   -1.376079
     68          1           0       -4.698716    2.421830   -2.914895
     69          1           0       -4.942654   -0.007990   -2.179414
     70          1           0        9.401690   -0.630730   -0.320622
     71          1           0       10.315396   -1.004422   -1.776652
     72          1           0       -3.984187   -2.847207    3.488250
     73          1           0       -6.206619   -1.560534   -2.292478
     74          1           0       -4.772038   -5.803750   -0.341778
     75          1           0       -4.596286   -5.607790   -2.188360
     76          1           0       -3.157133   -5.701949   -0.818740
     77          1           0       -1.630153    8.023387    1.316113
     78          1           0       -7.734692   -3.210543   -2.432993
     79          1           0       -6.603577   -4.792658   -2.513625
 ---------------------------------------------------------------------

 SCF Done:  E(RB3LYP) =  -1947.82334359     A.U. after   16 cycles

 Excitation energies and oscillator strengths:

 Excited State   1:      Singlet-A      2.0771 eV  596.90 nm  f=0.3346  <S**2>=0.000
     153 ->156        -0.11968
     154 ->156         0.10264
     155 ->156         0.68879
 This state for optimization and/or second-order correction.
 Total Energy, E(TD-HF/TD-DFT) =  -1947.74701032
 Copying the excited state density for this state as the 1-particle RhoCI density.

 The electronic state is 1-A.
 Alpha  occ. eigenvalues --  -19.19055 -19.16991 -19.14470 -19.11200 -19.10316
 Alpha  occ. eigenvalues --  -19.09795 -14.37048 -14.36710 -14.34116 -14.29453
 Alpha  occ. eigenvalues --  -10.32702 -10.30769 -10.28346 -10.26255 -10.25536
 Alpha  occ. eigenvalues --  -10.25366 -10.24707 -10.24521 -10.23492 -10.23073
 Alpha  occ. eigenvalues --  -10.22907 -10.22489 -10.22444 -10.22314 -10.22223
 Alpha  occ. eigenvalues --  -10.21578 -10.21510 -10.21214 -10.21188 -10.20772
 Alpha  occ. eigenvalues --  -10.20622 -10.20405 -10.20081 -10.20051 -10.19987
 Alpha  occ. eigenvalues --  -10.19983 -10.19856 -10.19795 -10.19565 -10.19549
 Alpha  occ. eigenvalues --  -10.18849 -10.18794 -10.18662  -1.09198  -1.08572
 Alpha  occ. eigenvalues --   -1.01751  -1.00737  -1.00046  -0.99284  -0.98290
 Alpha  occ. eigenvalues --   -0.97776  -0.93004  -0.92621  -0.82847  -0.82781
 Alpha  occ. eigenvalues --   -0.81830  -0.81125  -0.80843  -0.79583  -0.78407
 Alpha  occ. eigenvalues --   -0.77157  -0.75823  -0.75377  -0.74506  -0.73056
 Alpha  occ. eigenvalues --   -0.72635  -0.71143  -0.69566  -0.68447  -0.67788
 Alpha  occ. eigenvalues --   -0.65818  -0.65309  -0.63552  -0.61411  -0.60511
 Alpha  occ. eigenvalues --   -0.59756  -0.58560  -0.57532  -0.57118  -0.56087
 Alpha  occ. eigenvalues --   -0.55302  -0.54622  -0.54236  -0.53885  -0.53037
 Alpha  occ. eigenvalues --   -0.51731  -0.51292  -0.50974  -0.50704  -0.49566
 Alpha  occ. eigenvalues --   -0.49146  -0.48957  -0.48337  -0.48315  -0.47733
 Alpha  occ. eigenvalues --   -0.47017  -0.46706  -0.46530  -0.46194  -0.46128
 Alpha  occ. eigenvalues --   -0.45980  -0.44991  -0.44582  -0.43962  -0.43607
 Alpha  occ. eigenvalues --   -0.43171  -0.43073  -0.42619  -0.42242  -0.42229
 Alpha  occ. eigenvalues --   -0.42119  -0.41946  -0.41818  -0.41334  -0.41154
 Alpha  occ. eigenvalues --   -0.40774  -0.40299  -0.39972  -0.39659  -0.39215
 Alpha  occ. eigenvalues --   -0.38850  -0.38697  -0.38486  -0.38338  -0.37982
 Alpha  occ. eigenvalues --   -0.37287  -0.37140  -0.37051  -0.36647  -0.36362
 Alpha  occ. eigenvalues --   -0.36032  -0.35724  -0.35619  -0.35302  -0.34959
 Alpha  occ. eigenvalues --   -0.33798  -0.33019  -0.32946  -0.31859  -0.31123
 Alpha  occ. eigenvalues --   -0.30785  -0.30352  -0.29435  -0.28387  -0.27762
 Alpha  occ. eigenvalues --   -0.26733  -0.26383  -0.25749  -0.25199  -0.24726
 Alpha  occ. eigenvalues --   -0.24452  -0.23680  -0.23339  -0.22209  -0.19514
 Alpha virt. eigenvalues --   -0.11106  -0.06590  -0.06336  -0.03057  -0.01179
 Alpha virt. eigenvalues --   -0.00378   0.01442   0.01972   0.02140   0.02401
 Alpha virt. eigenvalues --    0.03429   0.03692   0.03985   0.04851   0.04927

 Mulliken charges:
               1
     1  O   -0.249084
     2  O   -0.163142
     3  O   -0.225688
     4  O   -0.282154
     5  O   -0.237015
     6  O   -0.201013
     7  N   -0.045652
     8  N   -0.217990
     9  N   -0.091846
    10  N   -0.261835
    11  C    0.080460
    12  C    0.183725
    13  C   -0.113521
    14  C   -0.129057
    15  C   -0.020452
    16  C    0.032587
    17  C   -0.240516
    18  C   -0.062264
    19  C    0.046827
    20  C   -0.120647
    21  C    0.091018
    22  C    0.129960
    23  C   -0.047858
    24  C    0.078842
    25  C    0.145719
    26  C   -0.126026
    27  C   -0.037856
    28  C    0.113115
    29  C    0.008963
    30  C   -0.062579
    31  C    0.004122
    32  C    0.149580
    33  C   -0.139428
    34  C    0.116223
    35  C    0.052466
    36  C    0.008165
    37  C    0.151255
    38  C    0.073277
    39  C   -0.194123
    40  C    0.141518
    41  C   -0.029374
    42  C    0.037213
    43  C   -0.101634
    44  H    0.045068
    45  H   -0.020108
    46  H    0.014235
    47  H    0.086237
    48  H    0.124285
    49  H   -0.008294
    50  H    0.057687
    51  H    0.036793
    52  H   -0.010713
    53  H    0.033381
    54  H    0.059460
    55  H    0.040621
    56  H    0.020867
    57  H    0.047794
    58  H    0.075846
    59  H    0.065877
    60  H    0.174354
    61  H    0.030415
    62  H    0.053406
    63  H    0.017568
    64  H    0.047658
    65  H    0.073661
    66  H    0.023502
    67  H   -0.008372
    68  H    0.021757
    69  H    0.035540
    70  H   -0.026345
    71  H    0.028923
    72  H    0.183535
    73  H    0.015282
    74  H    0.021803
    75  H    0.055239
    76  H    0.028582
    77  H    0.229403
    78  H    0.023602
    79  H    0.057168
 Sum of Mulliken charges =  -0.00000

 Dipole moment (field-independent basis, Debye):
    X=             -0.5040    Y=              1.6079    Z=              2.4991  Tot=              3.0141
 Quadrupole moment (field-independent basis, Debye-Ang):
   XX=           -214.8883   YY=           -247.4945   ZZ=           -263.5376
   XY=            -11.9494   XZ=             30.7254   YZ=              2.7850

 Normal termination of Gaussian 16 at Fri Sep 13 14:41:30 2019.
