 Gaussian 16, Revision A.03,
 Gaussian 16:  ES64L-G16RevA.03 25-Dec-2016

 --------------------------
 # td=(NStates=1) B3LYP/SVP
 --------------------------

 --
 TD
 --
 Symbolic Z-matrix:
 Charge =  0 Multiplicity = 1

                         Standard orientation:
 ---------------------------------------------------------------------
 Center     Atomic      Atomic             Coordinates (Angstroms)
 Number     Number       Type             X           Y           Z
 ---------------------------------------------------------------------
      1          8           0       -3.523762   -1.246841   -2.876398
      2          8           0        3.340647    2.967268    2.905247
      3          8           0        3.880242    1.274912    4.310826
      4          8           0        7.555445   -1.928341   -0.565957
      5          8           0        6.610396   -2.934587   -2.508297
      6          8           0       -2.487343    1.771398    1.467434
      7          7           0       -0.391565   -2.406400    0.947599
      8          7           0       -2.865185   -1.102441   -0.627549
      9          7           0        1.088215    0.013543   -0.679895
     10          7           0       -0.977417    1.554047   -0.146027
     11          6           0       -3.444390   -1.260892    0.635607
     12          6           0       -2.695646   -2.344723    1.637550
     13          6           0       -1.358878   -1.961793    1.803225
     14          6           0       -0.678323   -1.222905    2.775225
     15          6           0        0.658190   -1.198018    2.485044
     16          6           0        0.829676   -1.805373    1.210628
     17          6           0       -4.842554   -1.715018    0.265411
     18          6           0        1.891787   -0.528978    3.159500
     19          6           0       -4.922703   -1.979753   -1.097108
     20          6           0        1.936845   -1.957039    0.378252
     21          6           0        2.080349   -0.944333   -0.677954
     22          6           0       -3.657299   -1.299941   -1.664869
     23          6           0        3.083517   -0.614322   -1.666104
     24          6           0       -1.423711   -0.588909    3.948561
     25          6           0       -5.873671   -2.158509    1.232999
     26          6           0        2.661751    0.462449   -2.386341
     27          6           0        2.126227    0.941793    2.795388
     28          6           0        1.401640    0.959499   -1.720007
     29          6           0        4.239804   -1.554445   -1.973049
     30          6           0       -5.947780   -2.528831   -2.015942
     31          6           0        5.429424   -1.350550   -1.168647
     32          6           0        3.178445    1.096934   -3.507191
     33          6           0        0.654976    2.048922   -1.978303
     34          6           0        3.214646    1.710787    3.444047
     35          6           0       -0.505032    2.413876   -1.204077
     36          6           0       -7.057592   -3.282573   -1.758831
     37          6           0        6.565898   -2.207363   -1.467772
     38          6           0       -1.283982    3.623698   -1.157332
     39          6           0       -2.181619    3.502812   -0.121568
     40          6           0       -1.872947    2.230113    0.464805
     41          6           0       -1.219073    4.650825   -2.174522
     42          6           0       -3.258683    4.435597    0.335415
     43          6           0       -1.645578    5.903744   -2.216912
     44          1           0       -3.460856   -0.367291    1.236709
     45          1           0       -2.728377   -3.180200    1.003187
     46          1           0       -3.191730   -2.298423    2.575059
     47          1           0       -0.699423   -2.589507    0.006040
     48          1           0       -2.343734   -0.107016   -0.866030
     49          1           0        1.600100   -0.324649    4.241086
     50          1           0        2.849872   -1.163231    2.750552
     51          1           0        2.783426   -2.707129    0.259888
     52          1           0       -2.088599   -1.177006    4.635289
     53          1           0       -0.606373   -0.037235    4.573768
     54          1           0       -1.999498    0.416022    3.544016
     55          1           0       -5.913088   -1.640736    2.121446
     56          1           0       -5.666779   -3.363566    1.461129
     57          1           0       -6.826348   -2.100879    0.808345
     58          1           0        2.286946    1.053416    1.762081
     59          1           0        1.396328    1.524148    2.770944
     60          1           0        0.309695    0.174384   -0.132959
     61          1           0        4.454315   -1.575175   -3.068335
     62          1           0        3.683530   -2.282939   -1.788478
     63          1           0       -5.725996   -2.549331   -2.991841
     64          1           0        5.181061   -1.387530   -0.187169
     65          1           0        5.813791   -0.345547   -1.351034
     66          1           0        3.738105    0.415587   -4.119975
     67          1           0        3.922748    1.942726   -3.196783
     68          1           0        2.453532    1.230562   -4.383280
     69          1           0        0.731776    2.693941   -2.820350
     70          1           0       -7.310547   -3.483846   -0.612171
     71          1           0       -7.630833   -3.695100   -2.727107
     72          1           0        4.010542    3.392997    3.659389
     73          1           0       -0.653989    4.289445   -3.160903
     74          1           0       -3.808509    4.702403   -0.474150
     75          1           0       -3.967169    3.970860    1.161685
     76          1           0       -2.946122    5.368353    0.857927
     77          1           0        8.369503   -2.294470   -0.960642
     78          1           0       -1.221522    6.523498   -3.256350
     79          1           0       -2.281394    6.470054   -1.343483
 ---------------------------------------------------------------------

 SCF Done:  E(RB3LYP) =  -1947.73894324     A.U. after   22 cycles

 Excitation energies and oscillator strengths:

 Excited State   1:      Singlet-A      0.7383 eV 1679.33 nm  f=0.0007  <S**2>=0.000
     155 ->156         0.70226
 This state for optimization and/or second-order correction.
 Total Energy, E(TD-HF/TD-DFT) =  -1947.71181132
 Copying the excited state density for this state as the 1-particle RhoCI density.

 The electronic state is 1-A.
 Alpha  occ. eigenvalues --  -19.20788 -19.18336 -19.14457 -19.12444 -19.10483
 Alpha  occ. eigenvalues --  -19.08270 -14.37470 -14.36274 -14.34487 -14.30210
 Alpha  occ. eigenvalues --  -10.33995 -10.30930 -10.27076 -10.26321 -10.26219
 Alpha  occ. eigenvalues --  -10.26195 -10.26054 -10.23385 -10.22987 -10.22974
 Alpha  occ. eigenvalues --  -10.22851 -10.22238 -10.21997 -10.21860 -10.21625
 Alpha  occ. eigenvalues --  -10.21622 -10.21323 -10.20924 -10.20919 -10.20514
 Alpha  occ. eigenvalues --  -10.20052 -10.19983 -10.19888 -10.19763 -10.19503
 Alpha  occ. eigenvalues --  -10.19163 -10.19089 -10.18926 -10.17968 -10.17962
 Alpha  occ. eigenvalues --  -10.17822 -10.17215 -10.16973  -1.10233  -1.09034
 Alpha  occ. eigenvalues --   -1.01575  -1.01113  -1.00509  -1.00388  -0.98980
 Alpha  occ. eigenvalues --   -0.97316  -0.94098  -0.93262  -0.86104  -0.83566
 Alpha  occ. eigenvalues --   -0.82116  -0.81293  -0.80684  -0.80003  -0.79277
 Alpha  occ. eigenvalues --   -0.77295  -0.77023  -0.76114  -0.75585  -0.74204
 Alpha  occ. eigenvalues --   -0.71922  -0.71502  -0.69869  -0.68912  -0.67546
 Alpha  occ. eigenvalues --   -0.67023  -0.66223  -0.64402  -0.62328  -0.61267
 Alpha  occ. eigenvalues --   -0.59816  -0.58496  -0.58053  -0.57477  -0.56899
 Alpha  occ. eigenvalues --   -0.55487  -0.54570  -0.54139  -0.53914  -0.53604
 Alpha  occ. eigenvalues --   -0.52799  -0.52204  -0.51923  -0.51345  -0.50918
 Alpha  occ. eigenvalues --   -0.49871  -0.49756  -0.49321  -0.48754  -0.48545
 Alpha  occ. eigenvalues --   -0.48020  -0.47651  -0.47268  -0.46604  -0.46410
 Alpha  occ. eigenvalues --   -0.45917  -0.45547  -0.44761  -0.44108  -0.43947
 Alpha  occ. eigenvalues --   -0.43869  -0.43492  -0.42891  -0.42777  -0.42452
 Alpha  occ. eigenvalues --   -0.42076  -0.41669  -0.41360  -0.41212  -0.40989
 Alpha  occ. eigenvalues --   -0.40754  -0.40608  -0.40537  -0.40004  -0.39835
 Alpha  occ. eigenvalues --   -0.39689  -0.39362  -0.38878  -0.38588  -0.38085
 Alpha  occ. eigenvalues --   -0.37713  -0.37534  -0.36691  -0.36337  -0.36187
 Alpha  occ. eigenvalues --   -0.35611  -0.35299  -0.35226  -0.34735  -0.34221
 Alpha  occ. eigenvalues --   -0.33741  -0.33691  -0.33100  -0.32565  -0.32446
 Alpha  occ. eigenvalues --   -0.32068  -0.29603  -0.29496  -0.28829  -0.28378
 Alpha  occ. eigenvalues --   -0.27967  -0.27830  -0.25933  -0.25142  -0.24125
 Alpha  occ. eigenvalues --   -0.23858  -0.23036  -0.22435  -0.22006  -0.19006
 Alpha virt. eigenvalues --   -0.13718  -0.08204  -0.04243  -0.02912  -0.02417
 Alpha virt. eigenvalues --    0.00391   0.01842   0.01928   0.02226   0.02583
 Alpha virt. eigenvalues --    0.02833   0.03791   0.03864   0.04266   0.04737

 Mulliken charges:
               1
     1  O   -0.239700
     2  O   -0.263830
     3  O   -0.189588
     4  O   -0.185434
     5  O   -0.270075
     6  O   -0.249910
     7  N   -0.031988
     8  N   -0.169316
     9  N   -0.067718
    10  N   -0.253686
    11  C    0.055379
    12  C    0.309665
    13  C   -0.127985
    14  C   -0.084530
    15  C   -0.074113
    16  C    0.024785
    17  C   -0.196112
    18  C    0.120698
    19  C   -0.062910
    20  C   -0.106179
    21  C    0.017100
    22  C    0.093778
    23  C   -0.115554
    24  C   -0.016368
    25  C    0.098857
    26  C   -0.098373
    27  C    0.137864
    28  C    0.179572
    29  C    0.219091
    30  C    0.043921
    31  C    0.098689
    32  C    0.078570
    33  C   -0.067749
    34  C    0.101312
    35  C    0.037019
    36  C   -0.098908
    37  C    0.163442
    38  C    0.071253
    39  C   -0.141498
    40  C    0.084638
    41  C   -0.054040
    42  C    0.087946
    43  C   -0.123275
    44  H    0.029439
    45  H   -0.042574
    46  H   -0.018815
    47  H    0.110523
    48  H    0.191285
    49  H    0.015743
    50  H    0.034439
    51  H    0.006806
    52  H    0.036370
    53  H   -0.005105
    54  H    0.063515
    55  H   -0.008518
    56  H    0.047795
    57  H    0.014138
    58  H   -0.021968
    59  H   -0.064564
    60  H    0.134443
    61  H    0.019073
    62  H   -0.059471
    63  H   -0.041957
    64  H   -0.002497
    65  H    0.032392
    66  H   -0.008434
    67  H    0.065660
    68  H    0.039970
    69  H   -0.035928
    70  H    0.033125
    71  H    0.050308
    72  H    0.219437
    73  H    0.028839
    74  H    0.008128
    75  H    0.044857
    76  H    0.037515
    77  H    0.189013
    78  H    0.060055
    79  H    0.062223
 Sum of Mulliken charges =  -0.00000

 Dipole moment (field-independent basis, Debye):
    X=              4.4135    Y=              3.8032    Z=             -1.2054  Tot=              5.9495
 Quadrupole moment (field-independent basis, Debye-Ang):
   XX=           -235.5937   YY=           -239.2441   ZZ=           -267.0334
   XY=              3.7592   XZ=            -23.2538   YZ=            -11.7238

 Normal termination of Gaussian 16 at Fri Jul 26 11:23:34 2019.
