 Gaussian 16, Revision A.03,
 Gaussian 16:  ES64L-G16RevA.03 25-Dec-2016

 --------------------------
 # td=(NStates=1) B3LYP/SVP
 --------------------------

 --
 TD
 --
 Symbolic Z-matrix:
 Charge =  0 Multiplicity = 1

                         Standard orientation:
 ---------------------------------------------------------------------
 Center     Atomic      Atomic             Coordinates (Angstroms)
 Number     Number       Type             X           Y           Z
 ---------------------------------------------------------------------
      1          8           0        4.931552   -0.369668   -3.390757
      2          8           0       -2.854004   -2.907800    3.536263
      3          8           0       -3.416360   -0.741901    3.040155
      4          8           0       -1.902600    7.283511    1.343612
      5          8           0       -0.518753    7.009995   -0.416510
      6          8           0       -1.653612   -3.870565    0.315699
      7          7           0        2.399840    1.079164    0.638480
      8          7           0        4.171217   -0.730117   -1.155719
      9          7           0       -1.693622    0.715536   -0.441361
     10          7           0       -2.506717   -1.861759   -0.407805
     11          6           0        4.729760   -1.232579    0.181682
     12          6           0        4.415770   -0.121455    1.266044
     13          6           0        2.882272    0.125101    1.449101
     14          6           0        1.981624   -0.579520    2.281686
     15          6           0        0.760501    0.093481    1.855797
     16          6           0        0.984068    1.074385    0.825994
     17          6           0        6.176125   -1.253903   -0.179220
     18          6           0       -0.518438   -0.133005    2.537978
     19          6           0        6.437355   -0.916229   -1.494087
     20          6           0        0.176000    2.149054    0.140447
     21          6           0       -1.128359    1.902215   -0.357615
     22          6           0        5.179414   -0.693733   -2.216441
     23          6           0       -1.993911    2.884199   -1.092400
     24          6           0        2.244535   -1.751765    3.159977
     25          6           0        7.179646   -1.663752    0.922943
     26          6           0       -3.122950    2.251681   -1.475425
     27          6           0       -1.068102   -1.592081    2.815874
     28          6           0       -2.910515    0.822422   -1.154482
     29          6           0       -1.658381    4.308432   -0.943047
     30          6           0        7.693884   -0.827083   -2.264805
     31          6           0       -1.867633    5.117864    0.383915
     32          6           0       -4.321824    2.917695   -2.027954
     33          6           0       -3.836494   -0.200132   -1.595728
     34          6           0       -2.580385   -1.707075    3.167783
     35          6           0       -3.605142   -1.634445   -1.139774
     36          6           0        8.933536   -0.570923   -1.718871
     37          6           0       -1.324762    6.573246    0.413875
     38          6           0       -4.457922   -2.744735   -1.456095
     39          6           0       -3.702002   -3.883718   -0.963352
     40          6           0       -2.470039   -3.260631   -0.345288
     41          6           0       -5.701815   -2.661441   -2.143514
     42          6           0       -4.064424   -5.381143   -1.041320
     43          6           0       -6.472967   -3.539155   -2.712910
     44          1           0        4.305401   -2.224798    0.329920
     45          1           0        4.971087    0.940057    0.983914
     46          1           0        4.993839   -0.578926    2.332641
     47          1           0        2.654883    1.437653   -0.481257
     48          1           0        3.254310   -1.052738   -1.196049
     49          1           0       -0.407517    0.557111    3.513712
     50          1           0       -1.475132    0.402574    2.018749
     51          1           0        0.648610    3.029021    0.086577
     52          1           0        3.380053   -1.991147    3.458433
     53          1           0        1.640139   -1.637658    4.030452
     54          1           0        1.966890   -2.893508    2.999565
     55          1           0        6.775735   -2.515712    1.586828
     56          1           0        7.509270   -0.795292    1.596965
     57          1           0        8.301370   -2.092121    0.628737
     58          1           0       -0.936786   -2.017563    1.743879
     59          1           0       -0.238520   -2.200522    3.230606
     60          1           0       -1.487731   -0.347375   -0.453143
     61          1           0       -2.068830    4.972257   -1.818724
     62          1           0       -0.684262    4.367856   -1.328399
     63          1           0        7.183338   -0.864192   -3.407882
     64          1           0       -1.341404    4.573075    1.327532
     65          1           0       -2.951703    5.123995    0.725119
     66          1           0       -4.265821    3.894109   -2.339065
     67          1           0       -5.238822    2.670497   -1.306736
     68          1           0       -4.496996    2.554637   -2.851041
     69          1           0       -4.752383    0.074989   -2.053564
     70          1           0        9.196024   -0.379588   -0.631304
     71          1           0        9.855894   -0.358199   -2.304397
     72          1           0       -3.670903   -2.940806    3.903252
     73          1           0       -5.889170   -1.586622   -2.305948
     74          1           0       -5.302068   -5.409189   -0.686737
     75          1           0       -4.189140   -5.689847   -2.149929
     76          1           0       -3.260273   -6.115515   -0.524372
     77          1           0       -1.530611    8.202097    1.290434
     78          1           0       -7.368427   -3.367932   -3.502897
     79          1           0       -6.175678   -4.616664   -2.793327
 ---------------------------------------------------------------------

 SCF Done:  E(RB3LYP) =  -1947.73590532     A.U. after   16 cycles

 Excitation energies and oscillator strengths:

 Excited State   1:      Singlet-A      1.8241 eV  679.70 nm  f=0.3441  <S**2>=0.000
     153 ->156        -0.10553
     155 ->156         0.70227
     155 <-156        -0.11684
 This state for optimization and/or second-order correction.
 Total Energy, E(TD-HF/TD-DFT) =  -1947.66887107
 Copying the excited state density for this state as the 1-particle RhoCI density.

 The electronic state is 1-A.
 Alpha  occ. eigenvalues --  -19.20286 -19.18600 -19.12631 -19.11484 -19.10770
 Alpha  occ. eigenvalues --  -19.10745 -14.38350 -14.36596 -14.34190 -14.29721
 Alpha  occ. eigenvalues --  -10.32939 -10.31902 -10.29671 -10.26969 -10.25201
 Alpha  occ. eigenvalues --  -10.24963 -10.24211 -10.24192 -10.24117 -10.23417
 Alpha  occ. eigenvalues --  -10.23042 -10.23040 -10.22862 -10.22805 -10.22358
 Alpha  occ. eigenvalues --  -10.22079 -10.21895 -10.21236 -10.21060 -10.21013
 Alpha  occ. eigenvalues --  -10.20912 -10.20847 -10.20715 -10.20563 -10.20495
 Alpha  occ. eigenvalues --  -10.20412 -10.20345 -10.20237 -10.19954 -10.19669
 Alpha  occ. eigenvalues --  -10.19183 -10.19116 -10.18445  -1.11992  -1.11653
 Alpha  occ. eigenvalues --   -1.02151  -1.01483  -1.00168  -0.98279  -0.96862
 Alpha  occ. eigenvalues --   -0.96598  -0.92490  -0.92260  -0.82547  -0.81119
 Alpha  occ. eigenvalues --   -0.81101  -0.80161  -0.80010  -0.77902  -0.76616
 Alpha  occ. eigenvalues --   -0.75881  -0.74938  -0.74233  -0.73242  -0.72927
 Alpha  occ. eigenvalues --   -0.71394  -0.70397  -0.69939  -0.68943  -0.67957
 Alpha  occ. eigenvalues --   -0.67081  -0.64859  -0.62902  -0.61662  -0.61345
 Alpha  occ. eigenvalues --   -0.61113  -0.59663  -0.58837  -0.57269  -0.56246
 Alpha  occ. eigenvalues --   -0.55791  -0.55385  -0.53639  -0.52555  -0.52293
 Alpha  occ. eigenvalues --   -0.52109  -0.50016  -0.49656  -0.49467  -0.49089
 Alpha  occ. eigenvalues --   -0.48916  -0.48264  -0.47904  -0.47521  -0.47185
 Alpha  occ. eigenvalues --   -0.46875  -0.46290  -0.45921  -0.45833  -0.45444
 Alpha  occ. eigenvalues --   -0.45011  -0.44600  -0.44218  -0.43453  -0.43196
 Alpha  occ. eigenvalues --   -0.43019  -0.42412  -0.42312  -0.42057  -0.41843
 Alpha  occ. eigenvalues --   -0.41737  -0.41343  -0.41191  -0.41035  -0.40519
 Alpha  occ. eigenvalues --   -0.40249  -0.40129  -0.39768  -0.39638  -0.39578
 Alpha  occ. eigenvalues --   -0.38761  -0.38601  -0.38414  -0.38267  -0.37600
 Alpha  occ. eigenvalues --   -0.37347  -0.37117  -0.36726  -0.36359  -0.35681
 Alpha  occ. eigenvalues --   -0.35347  -0.35233  -0.34955  -0.33736  -0.33295
 Alpha  occ. eigenvalues --   -0.32968  -0.32614  -0.32262  -0.31268  -0.31087
 Alpha  occ. eigenvalues --   -0.30263  -0.29877  -0.29269  -0.28279  -0.28161
 Alpha  occ. eigenvalues --   -0.26987  -0.26175  -0.26059  -0.25889  -0.24504
 Alpha  occ. eigenvalues --   -0.24202  -0.23667  -0.23192  -0.22328  -0.18428
 Alpha virt. eigenvalues --   -0.11270  -0.06891  -0.06634  -0.01413  -0.00637
 Alpha virt. eigenvalues --   -0.00442  -0.00264   0.00719   0.02139   0.02769
 Alpha virt. eigenvalues --    0.03555   0.03893   0.04502   0.04720   0.05196

 Mulliken charges:
               1
     1  O   -0.235663
     2  O   -0.051850
     3  O   -0.299679
     4  O   -0.140101
     5  O   -0.256659
     6  O   -0.195437
     7  N   -0.159083
     8  N   -0.267184
     9  N   -0.054053
    10  N   -0.284731
    11  C    0.096982
    12  C    0.019353
    13  C   -0.050267
    14  C   -0.027702
    15  C   -0.092897
    16  C    0.038666
    17  C   -0.133194
    18  C   -0.048270
    19  C   -0.084985
    20  C   -0.048391
    21  C    0.079269
    22  C    0.216760
    23  C   -0.090971
    24  C   -0.000042
    25  C   -0.035532
    26  C   -0.145911
    27  C   -0.036409
    28  C    0.070632
    29  C    0.116997
    30  C    0.011828
    31  C   -0.033967
    32  C    0.264187
    33  C   -0.080316
    34  C    0.171056
    35  C    0.074149
    36  C   -0.083709
    37  C    0.123008
    38  C    0.038070
    39  C   -0.165034
    40  C    0.148334
    41  C    0.031704
    42  C   -0.038416
    43  C   -0.102329
    44  H    0.036740
    45  H    0.043512
    46  H    0.038191
    47  H    0.220601
    48  H    0.110392
    49  H    0.024225
    50  H    0.051133
    51  H   -0.039460
    52  H    0.020799
    53  H    0.023455
    54  H    0.049731
    55  H    0.037942
    56  H    0.055657
    57  H    0.050317
    58  H    0.076185
    59  H   -0.005990
    60  H    0.186695
    61  H    0.004888
    62  H   -0.006012
    63  H    0.074371
    64  H    0.061216
    65  H    0.044623
    66  H   -0.025007
    67  H    0.045083
    68  H   -0.066872
    69  H   -0.031260
    70  H    0.041820
    71  H    0.037885
    72  H    0.138445
    73  H   -0.015087
    74  H    0.060463
    75  H    0.056036
    76  H    0.074622
    77  H    0.195801
    78  H    0.053508
    79  H    0.017138
 Sum of Mulliken charges =  -0.00000

 Dipole moment (field-independent basis, Debye):
    X=             -0.5724    Y=              0.5656    Z=              2.4912  Tot=              2.6179
 Quadrupole moment (field-independent basis, Debye-Ang):
   XX=           -221.6277   YY=           -233.5285   ZZ=           -259.0369
   XY=             -7.0934   XZ=             33.4044   YZ=              2.5842

 Normal termination of Gaussian 16 at Fri Oct  4 15:01:50 2019.
