 Gaussian 16, Revision A.03,
 Gaussian 16:  ES64L-G16RevA.03 25-Dec-2016

 --------------------------
 # td=(NStates=1) B3LYP/SVP
 --------------------------

 --
 TD
 --
 Symbolic Z-matrix:
 Charge =  0 Multiplicity = 1

                         Standard orientation:
 ---------------------------------------------------------------------
 Center     Atomic      Atomic             Coordinates (Angstroms)
 Number     Number       Type             X           Y           Z
 ---------------------------------------------------------------------
      1          8           0       -3.295235   -1.423824   -2.802811
      2          8           0        3.322838    3.278377    3.039765
      3          8           0        3.817271    1.526115    4.389758
      4          8           0        7.668651   -1.622898   -0.690747
      5          8           0        6.591145   -3.053783   -2.118774
      6          8           0       -2.662999    1.666419    1.341055
      7          7           0       -0.148670   -2.376930    1.109114
      8          7           0       -2.595420   -1.188617   -0.564178
      9          7           0        1.159944    0.040954   -0.761490
     10          7           0       -0.992447    1.464341   -0.190926
     11          6           0       -3.242736   -1.320053    0.693805
     12          6           0       -2.626567   -2.409654    1.732388
     13          6           0       -1.144021   -1.991188    1.941977
     14          6           0       -0.566316   -1.057677    2.815111
     15          6           0        0.747245   -0.892671    2.564943
     16          6           0        1.038633   -1.682135    1.399713
     17          6           0       -4.627156   -1.839152    0.343905
     18          6           0        1.850235   -0.145919    3.276160
     19          6           0       -4.759696   -2.070057   -0.952009
     20          6           0        2.188196   -1.763996    0.558021
     21          6           0        2.130374   -0.894693   -0.646802
     22          6           0       -3.445479   -1.502221   -1.597561
     23          6           0        2.976352   -0.781116   -1.839451
     24          6           0       -1.410859   -0.157187    3.728138
     25          6           0       -5.752727   -1.994512    1.493839
     26          6           0        2.516342    0.449040   -2.558838
     27          6           0        2.022287    1.325736    2.717049
     28          6           0        1.321913    0.826274   -1.835483
     29          6           0        4.177738   -1.608878   -2.068684
     30          6           0       -5.909807   -2.567856   -1.679421
     31          6           0        5.312997   -1.239642   -1.126470
     32          6           0        2.955463    0.873670   -3.815900
     33          6           0        0.453720    1.893229   -2.063105
     34          6           0        3.105218    1.983249    3.430287
     35          6           0       -0.678409    2.312492   -1.301856
     36          6           0       -6.873244   -3.430386   -1.417744
     37          6           0        6.542673   -2.052430   -1.428792
     38          6           0       -1.462812    3.372442   -1.380992
     39          6           0       -2.349419    3.325733   -0.327745
     40          6           0       -1.988153    2.049723    0.388909
     41          6           0       -1.507212    4.296090   -2.539964
     42          6           0       -3.469999    4.217981    0.027948
     43          6           0       -1.865470    5.584045   -2.472908
     44          1           0       -3.279348   -0.441574    1.145300
     45          1           0       -2.814378   -3.293809    1.372668
     46          1           0       -2.964821   -2.501094    2.733103
     47          1           0       -0.231839   -2.831190    0.083053
     48          1           0       -2.137231   -0.409804   -0.845122
     49          1           0        1.790621   -0.081114    4.327874
     50          1           0        2.778542   -0.648560    3.213707
     51          1           0        2.996915   -2.653452    0.485894
     52          1           0       -2.126966   -0.634712    4.489251
     53          1           0       -0.670646    0.077719    4.586823
     54          1           0       -1.809984    0.703570    3.169797
     55          1           0       -5.738168   -1.079368    2.120903
     56          1           0       -5.757208   -3.046878    2.040336
     57          1           0       -6.751481   -1.983427    0.967824
     58          1           0        2.047825    1.463206    1.687147
     59          1           0        0.990775    1.702710    2.993004
     60          1           0        0.342163    0.340346   -0.327303
     61          1           0        4.522202   -1.435847   -3.054270
     62          1           0        4.052127   -2.683429   -1.825742
     63          1           0       -6.165939   -2.184504   -2.747709
     64          1           0        5.145434   -1.519512   -0.081375
     65          1           0        5.704281   -0.109799   -1.258209
     66          1           0        3.850622    0.233095   -4.243258
     67          1           0        3.051858    2.080638   -3.870280
     68          1           0        2.124526    0.730989   -4.757932
     69          1           0        0.476898    2.486746   -2.947734
     70          1           0       -7.080522   -4.045343   -0.521051
     71          1           0       -7.606578   -3.945190   -2.152671
     72          1           0        4.046927    3.375812    3.729196
     73          1           0       -1.246953    3.734452   -3.720362
     74          1           0       -4.172634    4.343405   -0.771293
     75          1           0       -3.959232    3.694796    0.920673
     76          1           0       -3.124496    5.204769    0.306473
     77          1           0        8.421555   -2.242676   -0.920568
     78          1           0       -1.891398    6.121436   -3.659987
     79          1           0       -2.266488    6.286436   -1.432566
 ---------------------------------------------------------------------

 SCF Done:  E(RB3LYP) =  -1947.76477456     A.U. after   23 cycles

 Excitation energies and oscillator strengths:

 Excited State   1:      Singlet-A      0.6096 eV 2033.72 nm  f=0.0003  <S**2>=0.000
     155 ->156         0.70395
 This state for optimization and/or second-order correction.
 Total Energy, E(TD-HF/TD-DFT) =  -1947.74237063
 Copying the excited state density for this state as the 1-particle RhoCI density.

 The electronic state is 1-A.
 Alpha  occ. eigenvalues --  -19.18737 -19.18209 -19.14583 -19.12705 -19.10936
 Alpha  occ. eigenvalues --  -19.09442 -14.37718 -14.37483 -14.33455 -14.29686
 Alpha  occ. eigenvalues --  -10.33598 -10.32251 -10.27683 -10.27090 -10.26942
 Alpha  occ. eigenvalues --  -10.26626 -10.25190 -10.24816 -10.24432 -10.24345
 Alpha  occ. eigenvalues --  -10.23887 -10.23875 -10.23644 -10.23472 -10.22341
 Alpha  occ. eigenvalues --  -10.21856 -10.21651 -10.21319 -10.20648 -10.20611
 Alpha  occ. eigenvalues --  -10.20586 -10.20486 -10.20339 -10.19973 -10.19815
 Alpha  occ. eigenvalues --  -10.19566 -10.18912 -10.18740 -10.18587 -10.18346
 Alpha  occ. eigenvalues --  -10.17618 -10.17378 -10.16403  -1.08862  -1.08817
 Alpha  occ. eigenvalues --   -1.02781  -1.01750  -1.01745  -1.00750  -0.97404
 Alpha  occ. eigenvalues --   -0.96290  -0.94618  -0.94070  -0.84967  -0.82909
 Alpha  occ. eigenvalues --   -0.82214  -0.80788  -0.80598  -0.80301  -0.78433
 Alpha  occ. eigenvalues --   -0.76889  -0.76565  -0.75663  -0.74562  -0.73343
 Alpha  occ. eigenvalues --   -0.72440  -0.70343  -0.70026  -0.68665  -0.67865
 Alpha  occ. eigenvalues --   -0.66424  -0.66160  -0.63754  -0.61204  -0.60803
 Alpha  occ. eigenvalues --   -0.59736  -0.58927  -0.57811  -0.56914  -0.56506
 Alpha  occ. eigenvalues --   -0.56053  -0.55604  -0.54449  -0.53591  -0.53224
 Alpha  occ. eigenvalues --   -0.52411  -0.51919  -0.51289  -0.50856  -0.50485
 Alpha  occ. eigenvalues --   -0.49734  -0.48916  -0.48643  -0.48530  -0.48142
 Alpha  occ. eigenvalues --   -0.47617  -0.47134  -0.46768  -0.46271  -0.45853
 Alpha  occ. eigenvalues --   -0.45636  -0.45133  -0.44804  -0.44071  -0.43691
 Alpha  occ. eigenvalues --   -0.43526  -0.43226  -0.42913  -0.42400  -0.42278
 Alpha  occ. eigenvalues --   -0.42120  -0.41681  -0.41614  -0.41354  -0.41204
 Alpha  occ. eigenvalues --   -0.41066  -0.40487  -0.40209  -0.40010  -0.39841
 Alpha  occ. eigenvalues --   -0.39431  -0.39076  -0.38734  -0.38582  -0.38453
 Alpha  occ. eigenvalues --   -0.38284  -0.37955  -0.37088  -0.36951  -0.36490
 Alpha  occ. eigenvalues --   -0.36358  -0.35772  -0.35495  -0.34829  -0.33849
 Alpha  occ. eigenvalues --   -0.33377  -0.33226  -0.32539  -0.31708  -0.31441
 Alpha  occ. eigenvalues --   -0.31101  -0.29699  -0.29522  -0.29356  -0.28792
 Alpha  occ. eigenvalues --   -0.28223  -0.26409  -0.26254  -0.25319  -0.24537
 Alpha  occ. eigenvalues --   -0.24090  -0.23837  -0.23405  -0.22513  -0.19239
 Alpha virt. eigenvalues --   -0.14169  -0.08935  -0.03100  -0.02180  -0.01746
 Alpha virt. eigenvalues --   -0.01679   0.00614   0.00656   0.01729   0.01897
 Alpha virt. eigenvalues --    0.02159   0.02317   0.03683   0.03936   0.04493

 Mulliken charges:
               1
     1  O   -0.220456
     2  O   -0.196469
     3  O   -0.310479
     4  O   -0.248522
     5  O   -0.224427
     6  O   -0.239144
     7  N   -0.100707
     8  N   -0.125978
     9  N    0.050748
    10  N   -0.289139
    11  C    0.166415
    12  C    0.324716
    13  C   -0.112785
    14  C   -0.146595
    15  C   -0.035322
    16  C   -0.019556
    17  C   -0.206424
    18  C    0.142563
    19  C    0.018437
    20  C   -0.081393
    21  C    0.036436
    22  C    0.096326
    23  C   -0.089648
    24  C    0.033196
    25  C    0.035864
    26  C   -0.040468
    27  C    0.007673
    28  C    0.092308
    29  C    0.158318
    30  C   -0.008934
    31  C   -0.047513
    32  C   -0.076181
    33  C   -0.041419
    34  C    0.187494
    35  C    0.039392
    36  C   -0.131408
    37  C    0.142233
    38  C    0.066033
    39  C   -0.188128
    40  C    0.118801
    41  C   -0.072307
    42  C    0.102266
    43  C   -0.144761
    44  H   -0.024832
    45  H   -0.090531
    46  H   -0.004515
    47  H    0.162638
    48  H    0.103135
    49  H   -0.007795
    50  H   -0.018234
    51  H    0.042406
    52  H    0.001936
    53  H   -0.007767
    54  H    0.074511
    55  H    0.039497
    56  H    0.052610
    57  H    0.027269
    58  H    0.011848
    59  H    0.068231
    60  H    0.112130
    61  H   -0.005389
    62  H    0.031083
    63  H    0.031992
    64  H    0.057672
    65  H    0.067512
    66  H    0.053907
    67  H    0.059855
    68  H    0.063400
    69  H   -0.048969
    70  H   -0.003105
    71  H    0.030198
    72  H    0.178393
    73  H    0.070191
    74  H    0.031050
    75  H    0.043820
    76  H    0.028854
    77  H    0.199885
    78  H    0.059771
    79  H    0.086288
 Sum of Mulliken charges =  -0.00000

 Dipole moment (field-independent basis, Debye):
    X=              2.5626    Y=              2.0335    Z=             -2.3769  Tot=              4.0437
 Quadrupole moment (field-independent basis, Debye-Ang):
   XX=           -241.3182   YY=           -240.2712   ZZ=           -266.8434
   XY=             -2.6746   XZ=            -22.0390   YZ=            -15.6351

 Normal termination of Gaussian 16 at Sun Jul 28 02:22:38 2019.
