 Gaussian 16, Revision A.03,
 Gaussian 16:  ES64L-G16RevA.03 25-Dec-2016

 --------------------------
 # td=(NStates=1) B3LYP/SVP
 --------------------------

 --
 TD
 --
 Symbolic Z-matrix:
 Charge =  0 Multiplicity = 1

                         Standard orientation:
 ---------------------------------------------------------------------
 Center     Atomic      Atomic             Coordinates (Angstroms)
 Number     Number       Type             X           Y           Z
 ---------------------------------------------------------------------
      1          8           0       -3.184227   -1.076178   -3.030189
      2          8           0        3.458171    2.503162    3.595007
      3          8           0        3.764937    0.525204    4.508645
      4          8           0        7.686104   -1.423994   -0.901182
      5          8           0        6.722668   -2.348952   -2.794919
      6          8           0       -2.690282    1.364064    1.649148
      7          7           0       -0.328542   -2.537274    0.609070
      8          7           0       -2.662351   -1.271530   -0.698888
      9          7           0        1.106241    0.301834   -0.692770
     10          7           0       -1.105199    1.490958    0.005607
     11          6           0       -3.332498   -1.449097    0.515282
     12          6           0       -2.663554   -2.523509    1.395346
     13          6           0       -1.218557   -2.282215    1.566287
     14          6           0       -0.527473   -1.644909    2.702701
     15          6           0        0.813004   -1.527535    2.327372
     16          6           0        0.889476   -2.063210    0.932235
     17          6           0       -4.686341   -1.901686   -0.002507
     18          6           0        1.855117   -0.874136    3.086669
     19          6           0       -4.848701   -1.795583   -1.360084
     20          6           0        1.984123   -1.912475   -0.069177
     21          6           0        2.004258   -0.703091   -0.820642
     22          6           0       -3.492431   -1.317795   -1.831753
     23          6           0        2.964726   -0.401874   -1.845495
     24          6           0       -1.226453   -1.096827    3.868384
     25          6           0       -5.777838   -2.415058    0.996904
     26          6           0        2.472606    0.795618   -2.371544
     27          6           0        2.037353    0.663960    2.849682
     28          6           0        1.190883    1.196488   -1.654832
     29          6           0        4.243018   -1.180294   -2.200274
     30          6           0       -5.826534   -2.021896   -2.320704
     31          6           0        5.405759   -0.904026   -1.318528
     32          6           0        2.932444    1.490080   -3.543289
     33          6           0        0.444153    2.370378   -1.664072
     34          6           0        3.109568    1.117089    3.682270
     35          6           0       -0.627623    2.505558   -0.810097
     36          6           0       -6.868068   -2.778517   -2.173103
     37          6           0        6.638958   -1.634088   -1.780378
     38          6           0       -1.495090    3.751390   -0.751311
     39          6           0       -2.314448    3.453347    0.294929
     40          6           0       -2.047642    1.971731    0.775104
     41          6           0       -1.244315    4.925566   -1.540993
     42          6           0       -3.478132    4.161505    0.809476
     43          6           0       -1.909737    6.164675   -1.437285
     44          1           0       -3.475754   -0.715953    1.150708
     45          1           0       -2.518845   -3.526708    0.751066
     46          1           0       -3.141306   -2.676323    2.458171
     47          1           0       -0.768860   -2.758662   -0.469373
     48          1           0       -1.956847   -0.462924   -0.656158
     49          1           0        1.553577   -1.075094    4.280739
     50          1           0        2.778067   -1.134573    2.761223
     51          1           0        2.636433   -2.640363   -0.248149
     52          1           0       -1.892592   -1.831783    4.522110
     53          1           0       -0.591978   -0.524577    4.604180
     54          1           0       -1.995654   -0.229898    3.537494
     55          1           0       -5.573434   -2.122756    1.953952
     56          1           0       -5.701145   -3.535783    1.069076
     57          1           0       -6.722582   -2.226806    0.552945
     58          1           0        2.326846    0.764496    1.794497
     59          1           0        1.202285    1.260015    3.129397
     60          1           0        0.254544    0.338124   -0.115319
     61          1           0        4.496317   -0.987120   -3.306817
     62          1           0        4.108041   -2.405536   -2.141775
     63          1           0       -5.486784   -1.357423   -3.281771
     64          1           0        5.292689   -1.245209   -0.220058
     65          1           0        5.858209   -0.005706   -1.324058
     66          1           0        3.672848    1.046557   -4.166031
     67          1           0        3.279051    2.520874   -3.251464
     68          1           0        2.020012    1.748998   -4.118904
     69          1           0        0.992615    3.056871   -2.398654
     70          1           0       -6.927415   -3.421242   -1.243776
     71          1           0       -7.585085   -2.915018   -2.973501
     72          1           0        3.997244    2.575444    4.400477
     73          1           0       -0.490700    4.710228   -2.304370
     74          1           0       -3.992802    4.707023   -0.091661
     75          1           0       -4.020325    3.593266    1.515706
     76          1           0       -3.102329    5.195400    1.336905
     77          1           0        8.448888   -2.109268   -1.213744
     78          1           0       -1.853209    6.954842   -2.202292
     79          1           0       -2.650095    6.364861   -0.703420
 ---------------------------------------------------------------------

 SCF Done:  E(RB3LYP) =  -1947.85165534     A.U. after   19 cycles

 Excitation energies and oscillator strengths:

 Excited State   1:      Singlet-A      0.7976 eV 1554.46 nm  f=0.0028  <S**2>=0.000
     155 ->156         0.70370
 This state for optimization and/or second-order correction.
 Total Energy, E(TD-HF/TD-DFT) =  -1947.82234401
 Copying the excited state density for this state as the 1-particle RhoCI density.

 The electronic state is 1-A.
 Alpha  occ. eigenvalues --  -19.20264 -19.15479 -19.14399 -19.12539 -19.11355
 Alpha  occ. eigenvalues --  -19.09538 -14.38519 -14.38463 -14.34223 -14.31291
 Alpha  occ. eigenvalues --  -10.33767 -10.31329 -10.27903 -10.27705 -10.27279
 Alpha  occ. eigenvalues --  -10.26310 -10.26130 -10.24433 -10.23375 -10.23226
 Alpha  occ. eigenvalues --  -10.22881 -10.22449 -10.22094 -10.21803 -10.21336
 Alpha  occ. eigenvalues --  -10.21264 -10.21247 -10.21116 -10.21013 -10.20956
 Alpha  occ. eigenvalues --  -10.20918 -10.20823 -10.20598 -10.20333 -10.19982
 Alpha  occ. eigenvalues --  -10.19460 -10.19223 -10.18793 -10.18681 -10.18250
 Alpha  occ. eigenvalues --  -10.18158 -10.17804 -10.17172  -1.08722  -1.07941
 Alpha  occ. eigenvalues --   -1.02625  -1.01761  -1.00293  -0.99689  -0.98009
 Alpha  occ. eigenvalues --   -0.97555  -0.93891  -0.93252  -0.84885  -0.83116
 Alpha  occ. eigenvalues --   -0.81762  -0.81695  -0.81167  -0.81060  -0.78955
 Alpha  occ. eigenvalues --   -0.77388  -0.76922  -0.75703  -0.75112  -0.74035
 Alpha  occ. eigenvalues --   -0.71302  -0.70637  -0.70034  -0.69862  -0.68120
 Alpha  occ. eigenvalues --   -0.66773  -0.65677  -0.63419  -0.61942  -0.61365
 Alpha  occ. eigenvalues --   -0.60526  -0.59869  -0.57864  -0.57057  -0.56821
 Alpha  occ. eigenvalues --   -0.55836  -0.55314  -0.54576  -0.53608  -0.53215
 Alpha  occ. eigenvalues --   -0.52084  -0.51904  -0.51366  -0.50803  -0.50301
 Alpha  occ. eigenvalues --   -0.50081  -0.49373  -0.49128  -0.48941  -0.48788
 Alpha  occ. eigenvalues --   -0.47738  -0.47404  -0.46935  -0.46683  -0.46491
 Alpha  occ. eigenvalues --   -0.45535  -0.44945  -0.44561  -0.44284  -0.44156
 Alpha  occ. eigenvalues --   -0.43945  -0.43542  -0.43244  -0.42974  -0.42765
 Alpha  occ. eigenvalues --   -0.42564  -0.41960  -0.41812  -0.41770  -0.41236
 Alpha  occ. eigenvalues --   -0.40883  -0.40709  -0.40535  -0.40230  -0.39614
 Alpha  occ. eigenvalues --   -0.39574  -0.39078  -0.38758  -0.38594  -0.38289
 Alpha  occ. eigenvalues --   -0.37836  -0.37716  -0.37292  -0.37157  -0.37039
 Alpha  occ. eigenvalues --   -0.36620  -0.36329  -0.35938  -0.35614  -0.34826
 Alpha  occ. eigenvalues --   -0.34294  -0.33434  -0.33407  -0.31933  -0.31768
 Alpha  occ. eigenvalues --   -0.30994  -0.30870  -0.29674  -0.29397  -0.28798
 Alpha  occ. eigenvalues --   -0.27643  -0.27238  -0.26142  -0.25733  -0.24402
 Alpha  occ. eigenvalues --   -0.23291  -0.23138  -0.22932  -0.22832  -0.18347
 Alpha virt. eigenvalues --   -0.12745  -0.07620  -0.04198  -0.03195  -0.01799
 Alpha virt. eigenvalues --   -0.00267   0.01112   0.01321   0.02061   0.02365
 Alpha virt. eigenvalues --    0.03043   0.03134   0.03398   0.03888   0.04963

 Mulliken charges:
               1
     1  O   -0.273465
     2  O   -0.253019
     3  O   -0.228473
     4  O   -0.258589
     5  O   -0.251618
     6  O   -0.243034
     7  N   -0.066724
     8  N   -0.242514
     9  N   -0.002349
    10  N   -0.287228
    11  C    0.223481
    12  C    0.115146
    13  C   -0.155967
    14  C   -0.045830
    15  C   -0.084021
    16  C   -0.039248
    17  C   -0.229780
    18  C    0.089389
    19  C   -0.046706
    20  C   -0.023291
    21  C    0.047932
    22  C    0.162424
    23  C   -0.007147
    24  C   -0.031222
    25  C    0.154334
    26  C   -0.155005
    27  C    0.069861
    28  C    0.029750
    29  C    0.026074
    30  C   -0.020933
    31  C    0.068460
    32  C    0.101777
    33  C   -0.132969
    34  C    0.114613
    35  C    0.166770
    36  C   -0.041888
    37  C    0.137441
    38  C    0.064572
    39  C   -0.221747
    40  C    0.164712
    41  C   -0.002709
    42  C    0.051024
    43  C   -0.023450
    44  H   -0.025956
    45  H   -0.004037
    46  H    0.022687
    47  H    0.193985
    48  H    0.165434
    49  H    0.051549
    50  H   -0.045985
    51  H   -0.051874
    52  H    0.025043
    53  H    0.001499
    54  H    0.057399
    55  H   -0.015024
    56  H    0.025525
    57  H    0.022677
    58  H    0.039024
    59  H    0.037294
    60  H    0.177368
    61  H    0.042780
    62  H    0.055558
    63  H    0.046067
    64  H    0.064524
    65  H    0.001380
    66  H    0.018379
    67  H    0.026486
    68  H    0.034292
    69  H    0.012206
    70  H    0.025167
    71  H    0.018821
    72  H    0.170624
    73  H   -0.008655
    74  H    0.048195
    75  H    0.030787
    76  H    0.039504
    77  H    0.233608
    78  H    0.036189
    79  H    0.008648
 Sum of Mulliken charges =  -0.00000

 Dipole moment (field-independent basis, Debye):
    X=              2.9889    Y=              2.0615    Z=             -1.1719  Tot=              3.8153
 Quadrupole moment (field-independent basis, Debye-Ang):
   XX=           -237.0709   YY=           -238.5129   ZZ=           -272.5971
   XY=              0.9985   XZ=            -20.5116   YZ=            -10.8313

 Normal termination of Gaussian 16 at Sun Jul 28 14:56:19 2019.
