 Gaussian 16, Revision A.03,
 Gaussian 16:  ES64L-G16RevA.03 25-Dec-2016

 --------------------------
 # td=(NStates=1) B3LYP/SVP
 --------------------------

 --
 TD
 --
 Symbolic Z-matrix:
 Charge =  0 Multiplicity = 1

                         Standard orientation:
 ---------------------------------------------------------------------
 Center     Atomic      Atomic             Coordinates (Angstroms)
 Number     Number       Type             X           Y           Z
 ---------------------------------------------------------------------
      1          8           0       -3.185751   -1.357978   -2.814739
      2          8           0        3.242513    3.173101    3.119000
      3          8           0        3.802461    1.432288    4.321054
      4          8           0        7.704765   -1.535008   -0.785935
      5          8           0        6.688972   -3.063189   -2.050587
      6          8           0       -2.577297    1.663231    1.410947
      7          7           0       -0.308820   -2.250984    0.946452
      8          7           0       -2.702410   -1.150764   -0.492756
      9          7           0        1.111908    0.074041   -0.710569
     10          7           0       -1.053716    1.360826   -0.250760
     11          6           0       -3.385236   -1.290898    0.733528
     12          6           0       -2.650949   -2.207553    1.770750
     13          6           0       -1.244003   -1.879712    1.913824
     14          6           0       -0.571174   -1.082304    2.955063
     15          6           0        0.773878   -0.983852    2.555972
     16          6           0        0.896522   -1.821690    1.330796
     17          6           0       -4.801198   -1.857909    0.361520
     18          6           0        1.826377   -0.201160    3.242547
     19          6           0       -4.782962   -2.001883   -1.014545
     20          6           0        2.046350   -1.817462    0.461611
     21          6           0        2.079205   -0.777915   -0.636733
     22          6           0       -3.478603   -1.489588   -1.608810
     23          6           0        3.068790   -0.749986   -1.778607
     24          6           0       -1.294180   -0.380359    4.058015
     25          6           0       -5.765035   -2.250483    1.372973
     26          6           0        2.577055    0.367974   -2.494557
     27          6           0        2.045658    1.222133    2.857942
     28          6           0        1.304852    0.856627   -1.884414
     29          6           0        4.120998   -1.592684   -1.923989
     30          6           0       -5.750454   -2.461944   -1.907454
     31          6           0        5.447186   -1.065112   -1.257931
     32          6           0        2.917482    0.842361   -3.876299
     33          6           0        0.431557    1.827293   -2.173697
     34          6           0        3.067099    1.886543    3.496352
     35          6           0       -0.622666    2.147570   -1.237156
     36          6           0       -6.779369   -3.333704   -1.770735
     37          6           0        6.671170   -1.990360   -1.446322
     38          6           0       -1.456170    3.451220   -1.337666
     39          6           0       -2.339001    3.310280   -0.262917
     40          6           0       -2.002094    2.136459    0.417410
     41          6           0       -1.373035    4.339704   -2.433948
     42          6           0       -3.543448    4.198297    0.099989
     43          6           0       -1.778870    5.752592   -2.455659
     44          1           0       -3.415387   -0.392450    1.216535
     45          1           0       -2.833671   -3.267582    1.557330
     46          1           0       -3.242257   -1.959936    2.572762
     47          1           0       -0.649390   -2.631651    0.064120
     48          1           0       -1.825414   -0.559044   -0.493425
     49          1           0        1.619541   -0.549333    4.159445
     50          1           0        2.847532   -0.631121    2.865792
     51          1           0        2.780611   -2.533375    0.505566
     52          1           0       -2.048219   -1.049780    4.454594
     53          1           0       -0.704187    0.083274    4.825515
     54          1           0       -1.629993    0.686082    3.724988
     55          1           0       -5.882187   -1.575691    2.152346
     56          1           0       -5.384601   -3.242688    1.850586
     57          1           0       -6.689117   -2.400436    0.787895
     58          1           0        2.096588    1.218530    1.730159
     59          1           0        0.951211    1.708581    3.163668
     60          1           0        0.224781    0.347589   -0.078895
     61          1           0        4.438148   -1.903491   -3.069299
     62          1           0        4.128284   -2.823534   -1.525010
     63          1           0       -5.595757   -1.989305   -2.925608
     64          1           0        5.315842   -0.723106   -0.119608
     65          1           0        5.551495   -0.306626   -1.973818
     66          1           0        3.863204    0.475541   -4.225194
     67          1           0        3.311466    1.916461   -3.680872
     68          1           0        2.053549    0.706170   -4.593411
     69          1           0        0.535020    2.549702   -2.954459
     70          1           0       -6.823604   -3.801382   -0.810572
     71          1           0       -7.542470   -3.652860   -2.628497
     72          1           0        4.084628    3.443001    3.603851
     73          1           0       -1.013271    3.849086   -3.622843
     74          1           0       -4.136306    4.582615   -0.906696
     75          1           0       -4.520281    3.510075    0.699398
     76          1           0       -3.219744    5.189472    0.618454
     77          1           0        8.597000   -2.098885   -0.717564
     78          1           0       -1.724067    6.108556   -3.559728
     79          1           0       -2.187406    6.371190   -1.473107
 ---------------------------------------------------------------------

 SCF Done:  E(RB3LYP) =  -1947.75836929     A.U. after   20 cycles

 Excitation energies and oscillator strengths:

 Excited State   1:      Singlet-A      0.7400 eV 1675.37 nm  f=0.0038  <S**2>=0.000
     155 ->156         0.70097
 This state for optimization and/or second-order correction.
 Total Energy, E(TD-HF/TD-DFT) =  -1947.73117332
 Copying the excited state density for this state as the 1-particle RhoCI density.

 The electronic state is 1-A.
 Alpha  occ. eigenvalues --  -19.19964 -19.17060 -19.12977 -19.11880 -19.11640
 Alpha  occ. eigenvalues --  -19.08363 -14.37573 -14.36913 -14.32979 -14.32337
 Alpha  occ. eigenvalues --  -10.33378 -10.30545 -10.28082 -10.27091 -10.26012
 Alpha  occ. eigenvalues --  -10.25932 -10.25417 -10.25031 -10.24837 -10.23679
 Alpha  occ. eigenvalues --  -10.23387 -10.23115 -10.23093 -10.22903 -10.22896
 Alpha  occ. eigenvalues --  -10.21947 -10.21646 -10.21222 -10.20818 -10.20750
 Alpha  occ. eigenvalues --  -10.20657 -10.20638 -10.20503 -10.20125 -10.19590
 Alpha  occ. eigenvalues --  -10.18603 -10.18402 -10.18225 -10.18155 -10.18011
 Alpha  occ. eigenvalues --  -10.17874 -10.17526 -10.17438  -1.10359  -1.09641
 Alpha  occ. eigenvalues --   -1.02887  -1.00137  -0.99661  -0.99603  -0.98912
 Alpha  occ. eigenvalues --   -0.96825  -0.94439  -0.91668  -0.84418  -0.82246
 Alpha  occ. eigenvalues --   -0.81764  -0.81578  -0.80743  -0.78704  -0.78535
 Alpha  occ. eigenvalues --   -0.77093  -0.76009  -0.75273  -0.73973  -0.73118
 Alpha  occ. eigenvalues --   -0.70670  -0.69758  -0.69418  -0.68965  -0.67549
 Alpha  occ. eigenvalues --   -0.66935  -0.65789  -0.63597  -0.62650  -0.61255
 Alpha  occ. eigenvalues --   -0.59936  -0.59558  -0.58905  -0.56794  -0.56026
 Alpha  occ. eigenvalues --   -0.55518  -0.55103  -0.54854  -0.53229  -0.53051
 Alpha  occ. eigenvalues --   -0.51616  -0.51120  -0.50952  -0.50423  -0.49943
 Alpha  occ. eigenvalues --   -0.49257  -0.48843  -0.48638  -0.48027  -0.47684
 Alpha  occ. eigenvalues --   -0.47468  -0.47349  -0.46694  -0.46206  -0.45778
 Alpha  occ. eigenvalues --   -0.45409  -0.45121  -0.45019  -0.44691  -0.43697
 Alpha  occ. eigenvalues --   -0.43489  -0.43062  -0.42846  -0.42563  -0.42323
 Alpha  occ. eigenvalues --   -0.41942  -0.41560  -0.41462  -0.41057  -0.40830
 Alpha  occ. eigenvalues --   -0.40322  -0.40266  -0.39877  -0.39433  -0.39303
 Alpha  occ. eigenvalues --   -0.39070  -0.38889  -0.38436  -0.38157  -0.38014
 Alpha  occ. eigenvalues --   -0.37839  -0.37648  -0.37407  -0.36756  -0.36097
 Alpha  occ. eigenvalues --   -0.35734  -0.34916  -0.34755  -0.34708  -0.33532
 Alpha  occ. eigenvalues --   -0.33001  -0.32530  -0.31885  -0.31651  -0.31589
 Alpha  occ. eigenvalues --   -0.30908  -0.30021  -0.29727  -0.28696  -0.28596
 Alpha  occ. eigenvalues --   -0.27598  -0.26410  -0.26342  -0.24469  -0.24064
 Alpha  occ. eigenvalues --   -0.23799  -0.22793  -0.22060  -0.21030  -0.18043
 Alpha virt. eigenvalues --   -0.12957  -0.08706  -0.04317  -0.03811  -0.00805
 Alpha virt. eigenvalues --   -0.00265   0.00781   0.01162   0.01469   0.02458
 Alpha virt. eigenvalues --    0.02650   0.02875   0.03189   0.03964   0.04425

 Mulliken charges:
               1
     1  O   -0.263805
     2  O   -0.210073
     3  O   -0.215893
     4  O   -0.205427
     5  O   -0.243751
     6  O   -0.211872
     7  N   -0.033431
     8  N   -0.238649
     9  N   -0.115715
    10  N   -0.303979
    11  C    0.102328
    12  C    0.240992
    13  C   -0.142796
    14  C   -0.084981
    15  C   -0.154978
    16  C    0.020130
    17  C   -0.166950
    18  C    0.121705
    19  C   -0.057061
    20  C   -0.046063
    21  C   -0.007066
    22  C    0.189500
    23  C    0.114088
    24  C    0.095326
    25  C    0.115751
    26  C   -0.151038
    27  C   -0.013538
    28  C    0.170644
    29  C   -0.185376
    30  C   -0.057602
    31  C    0.003004
    32  C    0.098901
    33  C   -0.083699
    34  C    0.122524
    35  C    0.034237
    36  C   -0.053890
    37  C    0.142163
    38  C    0.086965
    39  C   -0.111393
    40  C    0.163656
    41  C   -0.165792
    42  C   -0.066524
    43  C   -0.071019
    44  H   -0.006149
    45  H   -0.019435
    46  H   -0.054961
    47  H    0.126388
    48  H    0.153675
    49  H   -0.005463
    50  H   -0.010496
    51  H   -0.031006
    52  H    0.023106
    53  H   -0.024208
    54  H    0.037174
    55  H    0.007955
    56  H    0.046087
    57  H    0.030478
    58  H    0.052787
    59  H    0.065233
    60  H    0.247694
    61  H    0.057602
    62  H    0.067830
    63  H    0.017610
    64  H    0.081308
    65  H    0.019071
    66  H   -0.004278
    67  H    0.025483
    68  H    0.072132
    69  H   -0.035519
    70  H   -0.000767
    71  H    0.050206
    72  H    0.191048
    73  H    0.080793
    74  H    0.050292
    75  H    0.076525
    76  H    0.061660
    77  H    0.240341
    78  H    0.062714
    79  H    0.087531
 Sum of Mulliken charges =  -0.00000

 Dipole moment (field-independent basis, Debye):
    X=              3.3941    Y=              4.0674    Z=             -1.0171  Tot=              5.3943
 Quadrupole moment (field-independent basis, Debye-Ang):
   XX=           -227.2489   YY=           -239.7894   ZZ=           -266.3052
   XY=              1.1361   XZ=            -20.0970   YZ=            -18.1389

 Normal termination of Gaussian 16 at Mon Jul 29 20:34:05 2019.
