 Gaussian 16, Revision A.03,
 Gaussian 16:  ES64L-G16RevA.03 25-Dec-2016

 --------------------------
 # td=(NStates=1) B3LYP/SVP
 --------------------------

 --
 TD
 --
 Symbolic Z-matrix:
 Charge =  0 Multiplicity = 1

                         Standard orientation:
 ---------------------------------------------------------------------
 Center     Atomic      Atomic             Coordinates (Angstroms)
 Number     Number       Type             X           Y           Z
 ---------------------------------------------------------------------
      1          8           0       -3.166903   -1.144916   -2.924809
      2          8           0        3.093921    2.979676    3.309329
      3          8           0        3.887499    1.151261    4.264838
      4          8           0        7.714053   -1.393201   -0.868724
      5          8           0        6.567706   -2.946017   -2.158853
      6          8           0       -2.705766    1.330339    1.533115
      7          7           0       -0.167842   -2.482740    0.854527
      8          7           0       -2.546176   -1.324486   -0.686771
      9          7           0        1.119571    0.223597   -0.752061
     10          7           0       -0.973841    1.458893   -0.028189
     11          6           0       -3.282234   -1.442053    0.596543
     12          6           0       -2.561909   -2.531377    1.509393
     13          6           0       -1.161743   -2.181713    1.668520
     14          6           0       -0.517900   -1.368292    2.769634
     15          6           0        0.825305   -1.198749    2.405580
     16          6           0        1.057329   -1.870438    1.212401
     17          6           0       -4.695185   -1.924024    0.121514
     18          6           0        2.046145   -0.504233    3.181265
     19          6           0       -4.716269   -2.030341   -1.168323
     20          6           0        2.164931   -1.761856    0.233521
     21          6           0        2.100618   -0.759328   -0.705838
     22          6           0       -3.440333   -1.543687   -1.747141
     23          6           0        2.989854   -0.471074   -1.845357
     24          6           0       -1.336241   -0.685059    3.904853
     25          6           0       -5.717677   -2.265858    1.155082
     26          6           0        2.517691    0.668888   -2.484473
     27          6           0        2.009856    0.870136    2.823682
     28          6           0        1.344948    1.116713   -1.764945
     29          6           0        4.188516   -1.314803   -2.243094
     30          6           0       -5.843214   -2.346544   -2.006984
     31          6           0        5.385812   -1.017090   -1.310197
     32          6           0        3.046728    1.389855   -3.672660
     33          6           0        0.348109    2.141735   -1.901134
     34          6           0        3.105475    1.671471    3.488713
     35          6           0       -0.666401    2.327619   -1.021797
     36          6           0       -6.887225   -3.044754   -1.685707
     37          6           0        6.553632   -1.891219   -1.534029
     38          6           0       -1.656401    3.473916   -1.119082
     39          6           0       -2.429951    3.192384   -0.016627
     40          6           0       -2.108756    2.002844    0.612663
     41          6           0       -1.503222    4.766247   -1.888637
     42          6           0       -3.516174    4.187624    0.520688
     43          6           0       -2.191268    5.881050   -1.947697
     44          1           0       -3.301985   -0.532900    1.143516
     45          1           0       -2.603944   -3.552133    1.169358
     46          1           0       -3.000482   -2.341647    2.554021
     47          1           0       -0.289269   -2.920285   -0.077573
     48          1           0       -1.828653   -0.639949   -0.737768
     49          1           0        1.827506   -0.745029    4.164069
     50          1           0        2.989513   -0.887351    2.981383
     51          1           0        2.958223   -2.705696    0.050527
     52          1           0       -2.108202   -1.354316    4.401181
     53          1           0       -0.661141   -0.290678    4.484939
     54          1           0       -1.733474    0.248324    3.443997
     55          1           0       -5.621299   -1.798796    2.074839
     56          1           0       -6.001226   -3.384456    1.165295
     57          1           0       -6.592629   -1.984546    0.492754
     58          1           0        2.094333    1.263645    1.732037
     59          1           0        1.077986    1.180268    3.203624
     60          1           0        0.283438    0.228141   -0.106257
     61          1           0        4.410347   -1.383631   -3.248051
     62          1           0        3.954639   -2.446459   -2.100964
     63          1           0       -5.440007   -2.394777   -3.181945
     64          1           0        5.047904   -0.883786   -0.220382
     65          1           0        5.641138    0.052807   -1.543052
     66          1           0        3.942970    0.810294   -4.101033
     67          1           0        3.388310    2.407886   -3.314781
     68          1           0        2.298130    1.359510   -4.518323
     69          1           0        0.491638    2.751349   -2.773429
     70          1           0       -7.397215   -3.230090   -0.647974
     71          1           0       -7.495430   -3.301549   -2.563971
     72          1           0        3.937055    3.435610    3.660518
     73          1           0       -0.441961    4.609308   -2.399039
     74          1           0       -4.233322    4.342749   -0.322530
     75          1           0       -4.053996    3.783540    1.419453
     76          1           0       -3.103556    5.171564    0.793125
     77          1           0        8.630540   -1.865632   -0.891437
     78          1           0       -1.841669    6.641219   -2.552086
     79          1           0       -3.087352    6.185547   -1.427722
 ---------------------------------------------------------------------

 SCF Done:  E(RB3LYP) =  -1947.87411662     A.U. after   21 cycles

 Excitation energies and oscillator strengths:

 Excited State   1:      Singlet-A      0.8278 eV 1497.72 nm  f=0.0111  <S**2>=0.000
     155 ->156         0.70451
 This state for optimization and/or second-order correction.
 Total Energy, E(TD-HF/TD-DFT) =  -1947.84369491
 Copying the excited state density for this state as the 1-particle RhoCI density.

 The electronic state is 1-A.
 Alpha  occ. eigenvalues --  -19.18199 -19.17785 -19.14365 -19.11347 -19.10947
 Alpha  occ. eigenvalues --  -19.08192 -14.37399 -14.37303 -14.32574 -14.30201
 Alpha  occ. eigenvalues --  -10.34035 -10.30670 -10.27317 -10.27036 -10.26882
 Alpha  occ. eigenvalues --  -10.25610 -10.24321 -10.24142 -10.23424 -10.23197
 Alpha  occ. eigenvalues --  -10.23037 -10.22630 -10.22502 -10.22176 -10.21761
 Alpha  occ. eigenvalues --  -10.21548 -10.20668 -10.20565 -10.20460 -10.20458
 Alpha  occ. eigenvalues --  -10.20079 -10.19926 -10.19759 -10.19696 -10.19642
 Alpha  occ. eigenvalues --  -10.19392 -10.19178 -10.18873 -10.17919 -10.17649
 Alpha  occ. eigenvalues --  -10.17494 -10.17367 -10.16673  -1.09236  -1.07044
 Alpha  occ. eigenvalues --   -1.00031  -0.99399  -0.99350  -0.99001  -0.98159
 Alpha  occ. eigenvalues --   -0.96827  -0.92617  -0.90460  -0.83896  -0.82515
 Alpha  occ. eigenvalues --   -0.82079  -0.81281  -0.80702  -0.79398  -0.78205
 Alpha  occ. eigenvalues --   -0.76752  -0.76082  -0.75761  -0.75022  -0.73165
 Alpha  occ. eigenvalues --   -0.71362  -0.70376  -0.69736  -0.69512  -0.67474
 Alpha  occ. eigenvalues --   -0.66870  -0.66038  -0.63518  -0.61746  -0.60235
 Alpha  occ. eigenvalues --   -0.59498  -0.59366  -0.58983  -0.57805  -0.57469
 Alpha  occ. eigenvalues --   -0.56712  -0.55813  -0.55065  -0.53593  -0.53026
 Alpha  occ. eigenvalues --   -0.52110  -0.51248  -0.50554  -0.50432  -0.49635
 Alpha  occ. eigenvalues --   -0.48633  -0.48461  -0.47995  -0.47666  -0.47294
 Alpha  occ. eigenvalues --   -0.47046  -0.46809  -0.46637  -0.46579  -0.45997
 Alpha  occ. eigenvalues --   -0.45449  -0.44864  -0.44254  -0.44008  -0.43847
 Alpha  occ. eigenvalues --   -0.43701  -0.43224  -0.43017  -0.42762  -0.42142
 Alpha  occ. eigenvalues --   -0.42057  -0.41442  -0.41148  -0.40618  -0.40559
 Alpha  occ. eigenvalues --   -0.40391  -0.39945  -0.39707  -0.39552  -0.39387
 Alpha  occ. eigenvalues --   -0.39255  -0.38965  -0.38730  -0.38186  -0.38080
 Alpha  occ. eigenvalues --   -0.37810  -0.36915  -0.36242  -0.36105  -0.35927
 Alpha  occ. eigenvalues --   -0.35602  -0.35371  -0.35081  -0.34982  -0.33997
 Alpha  occ. eigenvalues --   -0.33534  -0.32609  -0.32240  -0.31796  -0.31569
 Alpha  occ. eigenvalues --   -0.31293  -0.30558  -0.29457  -0.28974  -0.28607
 Alpha  occ. eigenvalues --   -0.27468  -0.26685  -0.25511  -0.24663  -0.24264
 Alpha  occ. eigenvalues --   -0.23915  -0.23534  -0.23053  -0.22099  -0.18315
 Alpha virt. eigenvalues --   -0.12944  -0.08050  -0.03693  -0.02506  -0.01061
 Alpha virt. eigenvalues --    0.01249   0.01503   0.01937   0.02341   0.02881
 Alpha virt. eigenvalues --    0.03524   0.03738   0.04690   0.05077   0.05373

 Mulliken charges:
               1
     1  O   -0.289851
     2  O   -0.189322
     3  O   -0.247947
     4  O   -0.300505
     5  O   -0.216817
     6  O   -0.270572
     7  N   -0.041277
     8  N   -0.209503
     9  N   -0.118287
    10  N   -0.322496
    11  C    0.075244
    12  C    0.238140
    13  C   -0.152796
    14  C   -0.180487
    15  C   -0.135795
    16  C   -0.042590
    17  C   -0.164583
    18  C    0.242130
    19  C   -0.047824
    20  C   -0.137630
    21  C    0.124008
    22  C    0.172720
    23  C   -0.073799
    24  C    0.171429
    25  C    0.090491
    26  C   -0.124204
    27  C   -0.000653
    28  C    0.101387
    29  C    0.098280
    30  C   -0.026313
    31  C   -0.036771
    32  C    0.062082
    33  C   -0.110191
    34  C    0.099329
    35  C    0.134038
    36  C   -0.076730
    37  C    0.215864
    38  C    0.019267
    39  C   -0.162505
    40  C    0.189597
    41  C   -0.000813
    42  C    0.065378
    43  C    0.003592
    44  H    0.036226
    45  H   -0.020105
    46  H   -0.001046
    47  H    0.119777
    48  H    0.116533
    49  H   -0.008715
    50  H   -0.030168
    51  H    0.058299
    52  H    0.028296
    53  H   -0.069964
    54  H    0.037105
    55  H    0.017187
    56  H    0.043388
    57  H    0.037190
    58  H    0.045098
    59  H    0.018105
    60  H    0.212753
    61  H   -0.006120
    62  H    0.028764
    63  H    0.048156
    64  H    0.073316
    65  H    0.038574
    66  H    0.025230
    67  H    0.053092
    68  H    0.055296
    69  H   -0.026787
    70  H    0.040135
    71  H    0.025205
    72  H    0.209827
    73  H    0.019487
    74  H    0.036870
    75  H    0.031753
    76  H    0.031929
    77  H    0.223108
    78  H    0.007413
    79  H    0.022075
 Sum of Mulliken charges =  -0.00000

 Dipole moment (field-independent basis, Debye):
    X=              3.2652    Y=              3.2169    Z=             -1.2417  Tot=              4.7488
 Quadrupole moment (field-independent basis, Debye-Ang):
   XX=           -228.8043   YY=           -231.8226   ZZ=           -269.7812
   XY=             11.8938   XZ=            -22.8670   YZ=            -10.4376

 Normal termination of Gaussian 16 at Sun Jul 28 12:54:45 2019.
