 Gaussian 16, Revision A.03,
 Gaussian 16:  ES64L-G16RevA.03 25-Dec-2016

 --------------------------
 # td=(NStates=1) B3LYP/SVP
 --------------------------

 --
 TD
 --
 Symbolic Z-matrix:
 Charge =  0 Multiplicity = 1

                         Standard orientation:
 ---------------------------------------------------------------------
 Center     Atomic      Atomic             Coordinates (Angstroms)
 Number     Number       Type             X           Y           Z
 ---------------------------------------------------------------------
      1          8           0        5.425712    0.062568   -3.299951
      2          8           0       -3.138289   -2.964625    3.055016
      3          8           0       -3.280282   -0.785284    3.089588
      4          8           0       -1.720043    7.118237    1.566860
      5          8           0       -0.585789    6.988617   -0.375068
      6          8           0       -1.747483   -3.931980    0.001160
      7          7           0        2.343653    0.810056    0.639405
      8          7           0        4.352993   -0.600781   -1.211121
      9          7           0       -1.808178    0.698655   -0.432292
     10          7           0       -2.589082   -1.783833   -0.555182
     11          6           0        4.795258   -1.194800   -0.048210
     12          6           0        4.408415   -0.467615    1.300242
     13          6           0        2.975312   -0.164959    1.294436
     14          6           0        2.002110   -0.694850    2.192251
     15          6           0        0.712927   -0.153100    1.828226
     16          6           0        0.986613    0.865135    0.879837
     17          6           0        6.348534   -1.306149   -0.174561
     18          6           0       -0.593337   -0.367415    2.468161
     19          6           0        6.707023   -0.775656   -1.455512
     20          6           0        0.159922    1.893877    0.246478
     21          6           0       -1.107117    1.851844   -0.263420
     22          6           0        5.448453   -0.307049   -2.120857
     23          6           0       -1.963322    2.972511   -0.835853
     24          6           0        2.111856   -1.878055    3.136391
     25          6           0        7.271227   -1.889955    0.884726
     26          6           0       -3.102353    2.395306   -1.244655
     27          6           0       -1.178401   -1.774043    2.530401
     28          6           0       -3.049125    0.933383   -1.039643
     29          6           0       -1.580606    4.416665   -0.913664
     30          6           0        7.982690   -0.684515   -2.066549
     31          6           0       -1.753688    5.045726    0.491000
     32          6           0       -4.353000    2.989308   -1.910225
     33          6           0       -3.936437    0.054224   -1.353890
     34          6           0       -2.649739   -1.769307    2.906003
     35          6           0       -3.738473   -1.353109   -1.200149
     36          6           0        9.183688   -0.653305   -1.412454
     37          6           0       -1.274119    6.452554    0.478177
     38          6           0       -4.583883   -2.567426   -1.573403
     39          6           0       -3.891347   -3.667969   -1.099388
     40          6           0       -2.630431   -3.239692   -0.501479
     41          6           0       -5.894467   -2.373173   -2.133082
     42          6           0       -4.357626   -5.052407   -1.073688
     43          6           0       -6.637784   -3.403902   -2.633031
     44          1           0        4.383712   -2.289420    0.217612
     45          1           0        4.963267    0.392693    1.198464
     46          1           0        4.669300   -1.103889    2.162680
     47          1           0        2.778272    1.353781   -0.138422
     48          1           0        3.355816   -0.498823   -1.481805
     49          1           0       -0.450051   -0.137551    3.530038
     50          1           0       -1.347322    0.506942    2.367881
     51          1           0        0.695853    2.893022    0.046735
     52          1           0        3.233954   -2.110070    3.382196
     53          1           0        1.660700   -1.726911    4.056848
     54          1           0        1.489357   -2.641544    2.624951
     55          1           0        6.665974   -2.385617    1.573049
     56          1           0        7.607333   -0.976577    1.583051
     57          1           0        8.084663   -2.502454    0.345538
     58          1           0       -1.080231   -2.322984    1.386261
     59          1           0       -0.646054   -2.610027    3.150370
     60          1           0       -1.683326   -0.436215   -0.441514
     61          1           0       -2.060441    4.994704   -1.630622
     62          1           0       -0.410025    4.462799   -1.250225
     63          1           0        8.055375   -0.642650   -2.960802
     64          1           0       -1.072574    4.503343    1.176723
     65          1           0       -2.909100    5.081269    0.888810
     66          1           0       -4.262058    4.122559   -2.069381
     67          1           0       -5.244140    2.798775   -1.356484
     68          1           0       -4.507154    2.515385   -3.001763
     69          1           0       -4.977703    0.179547   -1.945861
     70          1           0        9.215782   -0.722848   -0.335159
     71          1           0       10.224736   -0.702553   -1.899155
     72          1           0       -4.159369   -3.036811    3.555736
     73          1           0       -6.271765   -1.344667   -2.036562
     74          1           0       -5.356462   -5.324737   -0.665118
     75          1           0       -4.335156   -5.423295   -2.157088
     76          1           0       -3.544616   -5.707725   -0.750457
     77          1           0       -1.343119    7.967017    1.528679
     78          1           0       -7.611612   -3.166990   -2.755197
     79          1           0       -6.450784   -4.518914   -2.782216
 ---------------------------------------------------------------------

 SCF Done:  E(RB3LYP) =  -1947.86873975     A.U. after   16 cycles

 Excitation energies and oscillator strengths:

 Excited State   1:      Singlet-A      1.8669 eV  664.11 nm  f=0.3604  <S**2>=0.000
     155 ->156         0.70255
     155 <-156        -0.10752
 This state for optimization and/or second-order correction.
 Total Energy, E(TD-HF/TD-DFT) =  -1947.80013203
 Copying the excited state density for this state as the 1-particle RhoCI density.

 The electronic state is 1-A.
 Alpha  occ. eigenvalues --  -19.18381 -19.17027 -19.13113 -19.11549 -19.10774
 Alpha  occ. eigenvalues --  -19.09644 -14.38324 -14.36361 -14.34736 -14.29997
 Alpha  occ. eigenvalues --  -10.32339 -10.29498 -10.29275 -10.27438 -10.25520
 Alpha  occ. eigenvalues --  -10.24007 -10.23997 -10.23292 -10.23022 -10.22366
 Alpha  occ. eigenvalues --  -10.22309 -10.22298 -10.22169 -10.21593 -10.21443
 Alpha  occ. eigenvalues --  -10.21389 -10.21036 -10.20988 -10.20988 -10.20890
 Alpha  occ. eigenvalues --  -10.20504 -10.20316 -10.20251 -10.20144 -10.19870
 Alpha  occ. eigenvalues --  -10.19747 -10.19517 -10.19258 -10.19050 -10.18445
 Alpha  occ. eigenvalues --  -10.18401 -10.18367 -10.18216  -1.10631  -1.08106
 Alpha  occ. eigenvalues --   -1.01568  -1.01558  -1.00951  -0.98875  -0.98511
 Alpha  occ. eigenvalues --   -0.96607  -0.94397  -0.90707  -0.82386  -0.81902
 Alpha  occ. eigenvalues --   -0.81638  -0.80711  -0.80231  -0.79847  -0.77736
 Alpha  occ. eigenvalues --   -0.77018  -0.76214  -0.74905  -0.74784  -0.71730
 Alpha  occ. eigenvalues --   -0.71287  -0.70497  -0.69971  -0.68601  -0.67759
 Alpha  occ. eigenvalues --   -0.66023  -0.65822  -0.64391  -0.61584  -0.61158
 Alpha  occ. eigenvalues --   -0.60135  -0.58681  -0.58057  -0.57532  -0.56148
 Alpha  occ. eigenvalues --   -0.55990  -0.55416  -0.54425  -0.54093  -0.53535
 Alpha  occ. eigenvalues --   -0.51999  -0.51523  -0.51112  -0.50278  -0.49181
 Alpha  occ. eigenvalues --   -0.48736  -0.48354  -0.48257  -0.47937  -0.47406
 Alpha  occ. eigenvalues --   -0.47097  -0.46129  -0.46001  -0.45559  -0.45464
 Alpha  occ. eigenvalues --   -0.45187  -0.44822  -0.44210  -0.43762  -0.43560
 Alpha  occ. eigenvalues --   -0.43258  -0.42883  -0.42701  -0.42484  -0.42131
 Alpha  occ. eigenvalues --   -0.41847  -0.41672  -0.41244  -0.41057  -0.40903
 Alpha  occ. eigenvalues --   -0.40743  -0.40380  -0.40201  -0.39713  -0.39676
 Alpha  occ. eigenvalues --   -0.39322  -0.39047  -0.38698  -0.38663  -0.38553
 Alpha  occ. eigenvalues --   -0.37861  -0.37747  -0.37428  -0.37096  -0.36839
 Alpha  occ. eigenvalues --   -0.36034  -0.35332  -0.35133  -0.35088  -0.34589
 Alpha  occ. eigenvalues --   -0.34422  -0.33026  -0.32902  -0.31753  -0.31150
 Alpha  occ. eigenvalues --   -0.30373  -0.29875  -0.28753  -0.28505  -0.28147
 Alpha  occ. eigenvalues --   -0.26344  -0.25825  -0.25806  -0.25586  -0.24559
 Alpha  occ. eigenvalues --   -0.24014  -0.23265  -0.23093  -0.22324  -0.18554
 Alpha virt. eigenvalues --   -0.11166  -0.06406  -0.06069  -0.01280  -0.00461
 Alpha virt. eigenvalues --   -0.00180   0.00490   0.01691   0.03096   0.03509
 Alpha virt. eigenvalues --    0.03887   0.04055   0.04592   0.04688   0.05379

 Mulliken charges:
               1
     1  O   -0.228626
     2  O   -0.235103
     3  O   -0.212146
     4  O   -0.152679
     5  O   -0.235792
     6  O   -0.206159
     7  N   -0.037456
     8  N   -0.210789
     9  N   -0.137163
    10  N   -0.378749
    11  C   -0.018558
    12  C    0.305977
    13  C   -0.133692
    14  C   -0.172428
    15  C   -0.059474
    16  C    0.049568
    17  C   -0.173149
    18  C    0.089040
    19  C   -0.009288
    20  C   -0.129265
    21  C    0.098700
    22  C    0.195694
    23  C   -0.061062
    24  C    0.104474
    25  C    0.094961
    26  C   -0.113619
    27  C   -0.153155
    28  C    0.202645
    29  C    0.070394
    30  C    0.098178
    31  C   -0.023959
    32  C    0.073168
    33  C   -0.166701
    34  C    0.123685
    35  C    0.014500
    36  C   -0.053131
    37  C    0.117536
    38  C    0.088447
    39  C   -0.193379
    40  C    0.211090
    41  C   -0.059128
    42  C    0.091186
    43  C    0.010521
    44  H    0.032272
    45  H   -0.050781
    46  H   -0.005810
    47  H    0.119144
    48  H    0.147107
    49  H   -0.009734
    50  H    0.038372
    51  H    0.000428
    52  H    0.008012
    53  H   -0.007416
    54  H    0.054186
    55  H   -0.009654
    56  H    0.053404
    57  H    0.075808
    58  H    0.109167
    59  H    0.041559
    60  H    0.208496
    61  H   -0.007029
    62  H    0.045774
    63  H   -0.130559
    64  H    0.052481
    65  H    0.075439
    66  H    0.020458
    67  H    0.023015
    68  H    0.041878
    69  H    0.015044
    70  H    0.005346
    71  H    0.043173
    72  H    0.247791
    73  H    0.010877
    74  H    0.043490
    75  H    0.020676
    76  H    0.008909
    77  H    0.155065
    78  H   -0.008219
    79  H    0.046720
 Sum of Mulliken charges =  -0.00000

 Dipole moment (field-independent basis, Debye):
    X=             -1.6868    Y=              0.1357    Z=              2.9453  Tot=              3.3968
 Quadrupole moment (field-independent basis, Debye-Ang):
   XX=           -212.4065   YY=           -243.9411   ZZ=           -261.6228
   XY=             -3.5236   XZ=             30.9420   YZ=              4.0445

 Normal termination of Gaussian 16 at Fri Sep 13 12:59:44 2019.
