 Gaussian 16, Revision A.03,
 Gaussian 16:  ES64L-G16RevA.03 25-Dec-2016

 --------------------------
 # td=(NStates=1) B3LYP/SVP
 --------------------------

 --
 TD
 --
 Symbolic Z-matrix:
 Charge =  0 Multiplicity = 1

                         Standard orientation:
 ---------------------------------------------------------------------
 Center     Atomic      Atomic             Coordinates (Angstroms)
 Number     Number       Type             X           Y           Z
 ---------------------------------------------------------------------
      1          8           0        5.272219   -0.293380   -3.287586
      2          8           0       -3.077895   -2.828546    3.324526
      3          8           0       -3.422679   -0.590465    3.059057
      4          8           0       -1.513454    7.240070    1.321136
      5          8           0       -0.295997    7.023312   -0.553260
      6          8           0       -1.685445   -3.936895    0.277583
      7          7           0        2.303981    1.050369    0.700107
      8          7           0        4.344494   -0.581670   -1.243809
      9          7           0       -1.757876    0.744846   -0.545951
     10          7           0       -2.492204   -1.954497   -0.472186
     11          6           0        4.732635   -1.252040    0.050110
     12          6           0        4.320246   -0.329832    1.355761
     13          6           0        2.897442    0.051869    1.400327
     14          6           0        1.859529   -0.616592    2.123452
     15          6           0        0.615206   -0.002384    1.860895
     16          6           0        0.946633    1.050974    0.871385
     17          6           0        6.246909   -1.476047   -0.166181
     18          6           0       -0.724227   -0.135309    2.618704
     19          6           0        6.577915   -1.025700   -1.362263
     20          6           0        0.182158    2.033161    0.205312
     21          6           0       -1.135667    1.907664   -0.324062
     22          6           0        5.366716   -0.505661   -2.106772
     23          6           0       -2.064031    3.036043   -0.848894
     24          6           0        2.126008   -1.680389    3.091494
     25          6           0        6.995674   -2.011481    0.996141
     26          6           0       -3.157677    2.291519   -1.310364
     27          6           0       -1.202431   -1.532186    2.616194
     28          6           0       -3.034499    0.877857   -1.009521
     29          6           0       -1.537427    4.340839   -0.927920
     30          6           0        7.893183   -0.898165   -2.073728
     31          6           0       -1.808829    5.206208    0.356592
     32          6           0       -4.348780    3.014223   -1.999905
     33          6           0       -3.878304   -0.218523   -1.377366
     34          6           0       -2.669728   -1.552158    2.994332
     35          6           0       -3.571809   -1.590207   -1.110014
     36          6           0        9.061558   -0.677921   -1.462981
     37          6           0       -1.109340    6.552409    0.237800
     38          6           0       -4.441784   -2.713981   -1.467395
     39          6           0       -3.741870   -3.863885   -1.043866
     40          6           0       -2.548965   -3.359299   -0.358548
     41          6           0       -5.730964   -2.563467   -2.157157
     42          6           0       -4.197508   -5.301259   -1.191096
     43          6           0       -6.571726   -3.436081   -2.572499
     44          1           0        4.158008   -2.297181    0.088175
     45          1           0        5.157319    0.673240    1.423204
     46          1           0        4.541189   -0.962369    2.053685
     47          1           0        2.687314    1.407756   -0.183369
     48          1           0        3.455189   -0.576131   -1.407144
     49          1           0       -0.776701    0.234834    3.538470
     50          1           0       -1.513841    0.534458    2.088119
     51          1           0        0.731064    2.987241   -0.033701
     52          1           0        3.175227   -1.820459    3.329036
     53          1           0        1.390436   -1.520745    4.077000
     54          1           0        1.745802   -2.576485    2.500256
     55          1           0        6.297489   -2.983631    1.417095
     56          1           0        7.138736   -1.065872    1.779114
     57          1           0        8.188967   -2.136331    0.719387
     58          1           0       -0.885612   -2.015875    1.696219
     59          1           0       -0.449253   -2.259986    3.193831
     60          1           0       -1.586386   -0.394244   -0.513282
     61          1           0       -1.940867    4.868158   -1.893181
     62          1           0       -0.463102    4.422710   -1.091716
     63          1           0        7.667147   -1.018424   -3.188943
     64          1           0       -1.661906    4.595789    1.363211
     65          1           0       -2.904195    5.558598    0.279040
     66          1           0       -4.529668    4.128358   -1.833308
     67          1           0       -5.348545    2.673242   -1.764466
     68          1           0       -4.332361    2.804800   -3.226678
     69          1           0       -4.722639    0.007730   -2.177899
     70          1           0        9.171647   -0.674705   -0.420174
     71          1           0       10.067478   -0.602062   -2.112212
     72          1           0       -4.083669   -2.777715    3.403585
     73          1           0       -5.869476   -1.441859   -2.431295
     74          1           0       -5.335212   -5.629799   -1.134734
     75          1           0       -3.908487   -5.843584   -2.305567
     76          1           0       -3.674057   -5.956025   -0.309019
     77          1           0       -1.055480    8.156536    1.084793
     78          1           0       -7.470855   -3.346140   -3.067351
     79          1           0       -6.140932   -4.601151   -2.586772
 ---------------------------------------------------------------------

 SCF Done:  E(RB3LYP) =  -1947.80288826     A.U. after   25 cycles

 Excitation energies and oscillator strengths:

 Excited State   1:      Singlet-A      1.8948 eV  654.33 nm  f=0.4684  <S**2>=0.000
     155 ->156         0.70766
     155 <-156        -0.14399
 This state for optimization and/or second-order correction.
 Total Energy, E(TD-HF/TD-DFT) =  -1947.73325431
 Copying the excited state density for this state as the 1-particle RhoCI density.

 The electronic state is 1-A.
 Alpha  occ. eigenvalues --  -19.19395 -19.16700 -19.14333 -19.12033 -19.10197
 Alpha  occ. eigenvalues --  -19.10111 -14.39396 -14.36776 -14.35003 -14.29117
 Alpha  occ. eigenvalues --  -10.33274 -10.31234 -10.28567 -10.26781 -10.26601
 Alpha  occ. eigenvalues --  -10.24925 -10.24748 -10.24673 -10.23844 -10.23744
 Alpha  occ. eigenvalues --  -10.23396 -10.23278 -10.22881 -10.22321 -10.22233
 Alpha  occ. eigenvalues --  -10.22105 -10.21659 -10.21533 -10.21454 -10.21390
 Alpha  occ. eigenvalues --  -10.21143 -10.20904 -10.20709 -10.20659 -10.20636
 Alpha  occ. eigenvalues --  -10.20409 -10.20391 -10.20281 -10.20231 -10.19978
 Alpha  occ. eigenvalues --  -10.19588 -10.18939 -10.18425  -1.10430  -1.06892
 Alpha  occ. eigenvalues --   -1.03748  -1.01620  -1.00600  -0.99864  -0.98503
 Alpha  occ. eigenvalues --   -0.98368  -0.94731  -0.92795  -0.83105  -0.82790
 Alpha  occ. eigenvalues --   -0.82215  -0.81415  -0.80507  -0.79199  -0.77427
 Alpha  occ. eigenvalues --   -0.77212  -0.76586  -0.75629  -0.74446  -0.72162
 Alpha  occ. eigenvalues --   -0.71539  -0.71097  -0.69550  -0.68242  -0.67435
 Alpha  occ. eigenvalues --   -0.66172  -0.65978  -0.63916  -0.62707  -0.60804
 Alpha  occ. eigenvalues --   -0.59012  -0.58615  -0.58394  -0.57714  -0.57227
 Alpha  occ. eigenvalues --   -0.55795  -0.55534  -0.55105  -0.53559  -0.53035
 Alpha  occ. eigenvalues --   -0.52467  -0.51775  -0.50363  -0.50125  -0.49769
 Alpha  occ. eigenvalues --   -0.49693  -0.49194  -0.48635  -0.47859  -0.47127
 Alpha  occ. eigenvalues --   -0.46960  -0.46716  -0.46461  -0.46014  -0.45640
 Alpha  occ. eigenvalues --   -0.45233  -0.44904  -0.44172  -0.43973  -0.43756
 Alpha  occ. eigenvalues --   -0.43417  -0.43320  -0.43026  -0.42826  -0.42248
 Alpha  occ. eigenvalues --   -0.42016  -0.41877  -0.41336  -0.41074  -0.40795
 Alpha  occ. eigenvalues --   -0.40480  -0.40411  -0.39970  -0.39639  -0.39503
 Alpha  occ. eigenvalues --   -0.39143  -0.39041  -0.38851  -0.38689  -0.38167
 Alpha  occ. eigenvalues --   -0.37974  -0.37653  -0.37551  -0.37319  -0.36919
 Alpha  occ. eigenvalues --   -0.36170  -0.36013  -0.35651  -0.34741  -0.33898
 Alpha  occ. eigenvalues --   -0.33799  -0.33014  -0.32691  -0.31282  -0.31025
 Alpha  occ. eigenvalues --   -0.30890  -0.30172  -0.29771  -0.28914  -0.27993
 Alpha  occ. eigenvalues --   -0.27532  -0.27228  -0.25865  -0.25483  -0.25385
 Alpha  occ. eigenvalues --   -0.25259  -0.24386  -0.23975  -0.22615  -0.18482
 Alpha virt. eigenvalues --   -0.11365  -0.07161  -0.05237  -0.01591  -0.00673
 Alpha virt. eigenvalues --    0.00294   0.00519   0.00618   0.01679   0.02543
 Alpha virt. eigenvalues --    0.03128   0.03710   0.03869   0.03992   0.04476

 Mulliken charges:
               1
     1  O   -0.208621
     2  O   -0.219163
     3  O   -0.238413
     4  O   -0.208601
     5  O   -0.243103
     6  O   -0.191926
     7  N   -0.034356
     8  N   -0.112522
     9  N   -0.099851
    10  N   -0.276693
    11  C   -0.004178
    12  C    0.219149
    13  C   -0.093748
    14  C   -0.143540
    15  C   -0.062735
    16  C    0.039275
    17  C   -0.132797
    18  C    0.150456
    19  C   -0.096431
    20  C   -0.123106
    21  C    0.040023
    22  C    0.139768
    23  C    0.000764
    24  C    0.033981
    25  C   -0.046720
    26  C   -0.107656
    27  C   -0.065795
    28  C    0.098471
    29  C    0.025855
    30  C    0.010892
    31  C   -0.070147
    32  C    0.007119
    33  C   -0.138466
    34  C    0.199880
    35  C    0.061866
    36  C   -0.038628
    37  C    0.157285
    38  C    0.023695
    39  C   -0.135269
    40  C    0.138639
    41  C    0.019329
    42  C   -0.081561
    43  C   -0.044966
    44  H    0.053132
    45  H    0.045320
    46  H   -0.082590
    47  H    0.128139
    48  H    0.065026
    49  H   -0.028295
    50  H    0.030885
    51  H    0.009265
    52  H    0.012536
    53  H    0.061468
    54  H    0.056434
    55  H    0.071703
    56  H    0.066017
    57  H    0.057840
    58  H    0.052050
    59  H    0.027190
    60  H    0.211593
    61  H    0.032901
    62  H    0.023297
    63  H    0.041931
    64  H    0.093818
    65  H    0.058023
    66  H    0.029071
    67  H    0.015112
    68  H    0.037401
    69  H    0.028013
    70  H    0.003586
    71  H    0.052248
    72  H    0.192305
    73  H    0.000847
    74  H    0.056068
    75  H    0.054990
    76  H    0.054488
    77  H    0.202999
    78  H    0.001093
    79  H    0.036638
 Sum of Mulliken charges =  -0.00000

 Dipole moment (field-independent basis, Debye):
    X=              0.5308    Y=              1.8918    Z=              2.2368  Tot=              2.9772
 Quadrupole moment (field-independent basis, Debye-Ang):
   XX=           -224.3296   YY=           -246.8527   ZZ=           -266.2333
   XY=             -8.8100   XZ=             35.9201   YZ=              4.3272

 Normal termination of Gaussian 16 at Mon Sep 23 11:45:11 2019.
