 Gaussian 16, Revision A.03,
 Gaussian 16:  ES64L-G16RevA.03 25-Dec-2016

 --------------------------
 # td=(NStates=1) B3LYP/SVP
 --------------------------

 --
 TD
 --
 Symbolic Z-matrix:
 Charge =  0 Multiplicity = 1

                         Standard orientation:
 ---------------------------------------------------------------------
 Center     Atomic      Atomic             Coordinates (Angstroms)
 Number     Number       Type             X           Y           Z
 ---------------------------------------------------------------------
      1          8           0        5.486384   -0.023893   -3.206741
      2          8           0       -2.999716   -2.955274    3.347249
      3          8           0       -3.355707   -0.820053    2.989780
      4          8           0       -1.536359    7.146077    1.561354
      5          8           0       -0.130937    6.787058   -0.096172
      6          8           0       -1.861997   -3.950212   -0.033484
      7          7           0        2.400647    0.921328    0.623259
      8          7           0        4.303275   -0.575797   -1.255353
      9          7           0       -1.884939    0.690703   -0.414459
     10          7           0       -2.560421   -1.781674   -0.557704
     11          6           0        4.757250   -1.272172    0.042054
     12          6           0        4.358080   -0.405614    1.253590
     13          6           0        2.894792   -0.148603    1.374421
     14          6           0        1.837877   -0.756478    2.103877
     15          6           0        0.649263   -0.152881    1.663266
     16          6           0        1.004287    0.932477    0.784016
     17          6           0        6.326184   -1.449226   -0.145567
     18          6           0       -0.627232   -0.302659    2.375671
     19          6           0        6.680826   -0.874818   -1.300353
     20          6           0        0.128673    1.949421    0.257227
     21          6           0       -1.055767    1.869778   -0.380601
     22          6           0        5.467899   -0.462813   -2.166663
     23          6           0       -1.799610    2.970560   -0.896403
     24          6           0        2.078496   -1.876917    3.001044
     25          6           0        7.030115   -2.160347    0.813700
     26          6           0       -3.037511    2.474188   -1.290660
     27          6           0       -1.255149   -1.760817    2.361247
     28          6           0       -3.063267    1.012363   -1.099659
     29          6           0       -1.446472    4.398997   -0.900342
     30          6           0        7.961443   -0.725412   -2.043745
     31          6           0       -1.817678    4.955524    0.465138
     32          6           0       -4.134207    3.217609   -1.916979
     33          6           0       -3.857903    0.101980   -1.468500
     34          6           0       -2.641967   -1.793859    3.022645
     35          6           0       -3.716139   -1.365997   -1.080604
     36          6           0        9.123738   -0.868953   -1.330808
     37          6           0       -1.140237    6.443501    0.563339
     38          6           0       -4.651044   -2.463505   -1.335995
     39          6           0       -4.043181   -3.585955   -1.005109
     40          6           0       -2.772258   -3.225464   -0.484977
     41          6           0       -5.862200   -2.262950   -2.292722
     42          6           0       -4.458897   -4.968681   -1.082400
     43          6           0       -6.737444   -3.266159   -2.658648
     44          1           0        4.177140   -2.097653   -0.026196
     45          1           0        4.953232    0.486656    1.214152
     46          1           0        4.552460   -0.830956    2.259022
     47          1           0        2.873141    1.455528   -0.060749
     48          1           0        3.385214   -0.699178   -1.609308
     49          1           0       -0.462786   -0.089976    3.590658
     50          1           0       -1.430357    0.307771    2.061271
     51          1           0        0.464721    2.983410    0.179531
     52          1           0        3.111542   -1.905832    3.205261
     53          1           0        1.697288   -1.545233    4.129739
     54          1           0        1.475070   -2.749458    2.612363
     55          1           0        6.589753   -3.276936    1.219039
     56          1           0        7.331346   -1.405930    1.611096
     57          1           0        7.991973   -2.418456    0.397246
     58          1           0       -1.326170   -2.092951    1.367060
     59          1           0       -0.674386   -2.563333    2.748009
     60          1           0       -1.659391   -0.393005   -0.185688
     61          1           0       -1.857534    4.946898   -1.911341
     62          1           0       -0.340975    4.412513   -0.981677
     63          1           0        7.858801   -0.564883   -3.099378
     64          1           0       -1.362640    4.481623    1.147786
     65          1           0       -3.031192    5.303051    0.508902
     66          1           0       -4.152343    4.279613   -2.047549
     67          1           0       -5.116896    3.049774   -1.382097
     68          1           0       -4.372924    2.859999   -3.005707
     69          1           0       -4.812248    0.288363   -2.007203
     70          1           0        9.267524   -0.869058   -0.240547
     71          1           0       10.138691   -0.817551   -1.960964
     72          1           0       -3.975422   -2.998078    3.573657
     73          1           0       -6.086440   -1.396124   -2.488300
     74          1           0       -5.725737   -4.995239   -0.741870
     75          1           0       -4.381597   -5.318090   -2.036532
     76          1           0       -3.970178   -5.682919   -0.311126
     77          1           0       -0.583145    7.980861    1.443849
     78          1           0       -7.714181   -3.015020   -3.129403
     79          1           0       -6.539202   -4.418463   -2.512078
 ---------------------------------------------------------------------

 SCF Done:  E(RB3LYP) =  -1947.74548132     A.U. after   16 cycles

 Excitation energies and oscillator strengths:

 Excited State   1:      Singlet-A      1.7398 eV  712.64 nm  f=0.2919  <S**2>=0.000
     155 ->156         0.70778
     155 <-156        -0.10874
 This state for optimization and/or second-order correction.
 Total Energy, E(TD-HF/TD-DFT) =  -1947.68154552
 Copying the excited state density for this state as the 1-particle RhoCI density.

 The electronic state is 1-A.
 Alpha  occ. eigenvalues --  -19.20408 -19.18467 -19.12798 -19.11856 -19.11534
 Alpha  occ. eigenvalues --  -19.09610 -14.37196 -14.33813 -14.33318 -14.30230
 Alpha  occ. eigenvalues --  -10.32269 -10.29566 -10.28483 -10.27168 -10.24106
 Alpha  occ. eigenvalues --  -10.23600 -10.22699 -10.22623 -10.22431 -10.22157
 Alpha  occ. eigenvalues --  -10.21967 -10.21705 -10.21599 -10.21450 -10.21350
 Alpha  occ. eigenvalues --  -10.21287 -10.20855 -10.20729 -10.20645 -10.20635
 Alpha  occ. eigenvalues --  -10.20534 -10.20144 -10.20070 -10.19959 -10.19916
 Alpha  occ. eigenvalues --  -10.19875 -10.19644 -10.19599 -10.18486 -10.18413
 Alpha  occ. eigenvalues --  -10.18068 -10.17964 -10.16571  -1.11415  -1.10259
 Alpha  occ. eigenvalues --   -1.07801  -1.01161  -0.99045  -0.98407  -0.96413
 Alpha  occ. eigenvalues --   -0.94896  -0.92550  -0.90591  -0.83190  -0.82355
 Alpha  occ. eigenvalues --   -0.81424  -0.80883  -0.80541  -0.78652  -0.77355
 Alpha  occ. eigenvalues --   -0.76863  -0.76438  -0.75027  -0.74500  -0.71738
 Alpha  occ. eigenvalues --   -0.70853  -0.70670  -0.70282  -0.67704  -0.66888
 Alpha  occ. eigenvalues --   -0.66308  -0.65206  -0.63508  -0.60933  -0.60039
 Alpha  occ. eigenvalues --   -0.59681  -0.58382  -0.57247  -0.56942  -0.56645
 Alpha  occ. eigenvalues --   -0.55675  -0.55177  -0.54453  -0.53253  -0.53129
 Alpha  occ. eigenvalues --   -0.51680  -0.51158  -0.50364  -0.49497  -0.49192
 Alpha  occ. eigenvalues --   -0.48916  -0.48418  -0.48027  -0.47765  -0.47247
 Alpha  occ. eigenvalues --   -0.47198  -0.46910  -0.46464  -0.45989  -0.45552
 Alpha  occ. eigenvalues --   -0.45427  -0.44952  -0.44294  -0.44052  -0.43902
 Alpha  occ. eigenvalues --   -0.43556  -0.43454  -0.43430  -0.42875  -0.42430
 Alpha  occ. eigenvalues --   -0.41906  -0.41833  -0.41483  -0.41241  -0.40941
 Alpha  occ. eigenvalues --   -0.40750  -0.40502  -0.40325  -0.40061  -0.39918
 Alpha  occ. eigenvalues --   -0.39610  -0.38806  -0.38776  -0.38170  -0.38055
 Alpha  occ. eigenvalues --   -0.37665  -0.36907  -0.36685  -0.36360  -0.36121
 Alpha  occ. eigenvalues --   -0.35839  -0.34763  -0.34633  -0.34078  -0.33897
 Alpha  occ. eigenvalues --   -0.33629  -0.33163  -0.32399  -0.31722  -0.31597
 Alpha  occ. eigenvalues --   -0.31034  -0.30623  -0.28913  -0.28198  -0.28152
 Alpha  occ. eigenvalues --   -0.26818  -0.25685  -0.25666  -0.24979  -0.24511
 Alpha  occ. eigenvalues --   -0.23949  -0.23882  -0.23447  -0.22583  -0.17997
 Alpha virt. eigenvalues --   -0.11036  -0.06071  -0.05365  -0.03775  -0.01746
 Alpha virt. eigenvalues --    0.00116   0.01081   0.01776   0.02725   0.03090
 Alpha virt. eigenvalues --    0.03594   0.04068   0.04366   0.04884   0.05705

 Mulliken charges:
               1
     1  O   -0.107609
     2  O   -0.103894
     3  O   -0.249420
     4  O   -0.229005
     5  O   -0.305766
     6  O   -0.214210
     7  N   -0.069931
     8  N   -0.322139
     9  N   -0.227579
    10  N   -0.308207
    11  C    0.169720
    12  C    0.214447
    13  C   -0.112281
    14  C   -0.139129
    15  C   -0.054193
    16  C    0.091822
    17  C   -0.153434
    18  C    0.044364
    19  C   -0.086104
    20  C   -0.134471
    21  C    0.139435
    22  C    0.154751
    23  C   -0.087216
    24  C    0.103338
    25  C    0.040689
    26  C   -0.074346
    27  C    0.009432
    28  C    0.240685
    29  C    0.041956
    30  C    0.036345
    31  C    0.100023
    32  C    0.050410
    33  C   -0.152916
    34  C    0.082771
    35  C    0.039431
    36  C   -0.070124
    37  C    0.138517
    38  C    0.022814
    39  C   -0.132286
    40  C    0.155614
    41  C    0.125029
    42  C    0.032892
    43  C   -0.064607
    44  H   -0.029288
    45  H   -0.022293
    46  H   -0.001350
    47  H    0.105150
    48  H    0.116694
    49  H    0.020424
    50  H    0.009218
    51  H   -0.035658
    52  H   -0.024061
    53  H    0.017823
    54  H    0.070145
    55  H    0.062827
    56  H    0.045354
    57  H    0.010180
    58  H    0.030597
    59  H   -0.018575
    60  H    0.219761
    61  H    0.051936
    62  H    0.023438
    63  H    0.015165
    64  H   -0.022172
    65  H    0.076928
    66  H   -0.001069
    67  H    0.021417
    68  H    0.029477
    69  H   -0.027567
    70  H    0.035828
    71  H    0.039996
    72  H    0.192364
    73  H   -0.118713
    74  H    0.042063
    75  H    0.023924
    76  H    0.053921
    77  H    0.260791
    78  H    0.037186
    79  H    0.052519
 Sum of Mulliken charges =  -0.00000

 Dipole moment (field-independent basis, Debye):
    X=             -0.8945    Y=             -0.0022    Z=              1.5521  Tot=              1.7914
 Quadrupole moment (field-independent basis, Debye-Ang):
   XX=           -212.5792   YY=           -239.6721   ZZ=           -257.3900
   XY=             -2.4353   XZ=             29.8483   YZ=              1.1170

 Normal termination of Gaussian 16 at Fri Sep 13 18:07:28 2019.
