 Gaussian 16, Revision A.03,
 Gaussian 16:  ES64L-G16RevA.03 25-Dec-2016

 --------------------------
 # td=(NStates=1) B3LYP/SVP
 --------------------------

 --
 TD
 --
 Symbolic Z-matrix:
 Charge =  0 Multiplicity = 1

                         Standard orientation:
 ---------------------------------------------------------------------
 Center     Atomic      Atomic             Coordinates (Angstroms)
 Number     Number       Type             X           Y           Z
 ---------------------------------------------------------------------
      1          8           0       -3.488593   -1.278541   -2.853683
      2          8           0        3.206500    3.145310    3.083571
      3          8           0        3.688091    1.404317    4.444381
      4          8           0        7.736202   -1.892042   -0.608557
      5          8           0        6.588881   -2.998516   -2.218203
      6          8           0       -2.689510    1.709464    1.509708
      7          7           0       -0.267576   -2.485307    0.995264
      8          7           0       -2.730409   -1.308860   -0.640222
      9          7           0        1.124529    0.114528   -0.690375
     10          7           0       -1.155473    1.449415   -0.236939
     11          6           0       -3.333203   -1.348004    0.643605
     12          6           0       -2.634626   -2.265583    1.666128
     13          6           0       -1.180307   -2.105221    1.873372
     14          6           0       -0.525983   -1.156250    2.812258
     15          6           0        0.780500   -1.105192    2.369544
     16          6           0        0.965549   -1.912603    1.139410
     17          6           0       -4.756783   -1.822948    0.386952
     18          6           0        1.994143   -0.375746    3.059589
     19          6           0       -4.903990   -2.022409   -1.023013
     20          6           0        2.074988   -1.967699    0.230367
     21          6           0        2.076794   -0.972106   -0.642244
     22          6           0       -3.608811   -1.497920   -1.676955
     23          6           0        3.024241   -0.593467   -1.681484
     24          6           0       -1.168845   -0.351405    3.919464
     25          6           0       -5.776003   -2.231299    1.375008
     26          6           0        2.626228    0.446892   -2.429574
     27          6           0        2.111556    1.079691    2.623110
     28          6           0        1.360262    0.953882   -1.731754
     29          6           0        4.154257   -1.444394   -2.029861
     30          6           0       -5.964745   -2.502871   -1.892471
     31          6           0        5.437061   -1.152242   -1.259838
     32          6           0        3.104565    1.081802   -3.641941
     33          6           0        0.526247    2.032006   -2.016332
     34          6           0        3.111719    1.838000    3.494535
     35          6           0       -0.604109    2.281517   -1.274810
     36          6           0       -7.109965   -3.247405   -1.677813
     37          6           0        6.577343   -2.163569   -1.405680
     38          6           0       -1.415333    3.464124   -1.311253
     39          6           0       -2.350146    3.386712   -0.275942
     40          6           0       -2.069548    2.121981    0.493986
     41          6           0       -1.114045    4.655359   -2.243487
     42          6           0       -3.378245    4.386626    0.169942
     43          6           0       -1.686505    5.880785   -2.163189
     44          1           0       -3.463397   -0.239795    1.030769
     45          1           0       -2.741436   -3.462359    1.242498
     46          1           0       -3.230188   -2.298201    2.640745
     47          1           0       -0.633253   -3.088070    0.136788
     48          1           0       -2.211914   -0.379666   -0.669976
     49          1           0        1.825073   -0.288326    4.209085
     50          1           0        2.779515   -0.960325    2.996794
     51          1           0        3.003262   -2.544783    0.331332
     52          1           0       -1.881645   -1.095765    4.286472
     53          1           0       -0.364929   -0.142521    4.612161
     54          1           0       -1.785122    0.476973    3.445991
     55          1           0       -5.828326   -1.725757    2.450117
     56          1           0       -5.636183   -3.270463    1.432882
     57          1           0       -6.835428   -1.952333    0.957351
     58          1           0        2.495789    1.275446    1.537167
     59          1           0        1.060907    1.589288    2.700961
     60          1           0        0.329312    0.314242   -0.176926
     61          1           0        4.415940   -1.153432   -3.120587
     62          1           0        4.121553   -2.558743   -1.937973
     63          1           0       -5.814299   -2.421728   -2.896936
     64          1           0        5.038264   -1.185897   -0.208320
     65          1           0        5.684023   -0.010922   -1.456394
     66          1           0        3.822130    0.316877   -4.164395
     67          1           0        3.488935    2.074346   -3.522211
     68          1           0        2.424245    1.154107   -4.561573
     69          1           0        0.923037    2.724588   -2.800439
     70          1           0       -7.388441   -3.492401   -0.638661
     71          1           0       -7.838130   -3.356640   -2.415376
     72          1           0        4.003984    3.505798    3.510622
     73          1           0       -0.366473    4.473106   -2.986198
     74          1           0       -3.983607    4.790109   -0.658520
     75          1           0       -4.153485    3.942056    1.036290
     76          1           0       -3.140098    5.330281    0.699685
     77          1           0        8.435730   -2.520341   -1.029776
     78          1           0       -1.444887    6.689204   -2.977849
     79          1           0       -2.306104    6.157424   -1.165175
 ---------------------------------------------------------------------

 SCF Done:  E(RB3LYP) =  -1947.88275808     A.U. after   19 cycles

 Excitation energies and oscillator strengths:

 Excited State   1:      Singlet-A      0.7084 eV 1750.23 nm  f=0.0001  <S**2>=0.000
     155 ->156         0.70347
 This state for optimization and/or second-order correction.
 Total Energy, E(TD-HF/TD-DFT) =  -1947.85672525
 Copying the excited state density for this state as the 1-particle RhoCI density.

 The electronic state is 1-A.
 Alpha  occ. eigenvalues --  -19.18742 -19.17517 -19.15764 -19.12917 -19.11737
 Alpha  occ. eigenvalues --  -19.08503 -14.38376 -14.38277 -14.32482 -14.30303
 Alpha  occ. eigenvalues --  -10.34178 -10.31561 -10.28080 -10.27905 -10.26460
 Alpha  occ. eigenvalues --  -10.26395 -10.26035 -10.24019 -10.23816 -10.23454
 Alpha  occ. eigenvalues --  -10.23308 -10.23110 -10.22490 -10.22277 -10.22222
 Alpha  occ. eigenvalues --  -10.21940 -10.21866 -10.21744 -10.21626 -10.21355
 Alpha  occ. eigenvalues --  -10.21104 -10.21099 -10.20868 -10.20772 -10.20088
 Alpha  occ. eigenvalues --  -10.20084 -10.18544 -10.18478 -10.17886 -10.17693
 Alpha  occ. eigenvalues --  -10.17561 -10.17276 -10.16831  -1.11291  -1.09145
 Alpha  occ. eigenvalues --   -1.01374  -1.01255  -1.00922  -1.00885  -1.00174
 Alpha  occ. eigenvalues --   -0.97352  -0.92715  -0.92416  -0.86298  -0.84102
 Alpha  occ. eigenvalues --   -0.80278  -0.80005  -0.79694  -0.79388  -0.79103
 Alpha  occ. eigenvalues --   -0.76777  -0.75537  -0.75120  -0.74757  -0.73742
 Alpha  occ. eigenvalues --   -0.71100  -0.69822  -0.69507  -0.68578  -0.67546
 Alpha  occ. eigenvalues --   -0.66243  -0.66123  -0.63696  -0.60899  -0.60433
 Alpha  occ. eigenvalues --   -0.59396  -0.59000  -0.58589  -0.58095  -0.56524
 Alpha  occ. eigenvalues --   -0.55820  -0.54860  -0.53818  -0.53225  -0.52620
 Alpha  occ. eigenvalues --   -0.52329  -0.52307  -0.51599  -0.50657  -0.50142
 Alpha  occ. eigenvalues --   -0.49688  -0.48987  -0.48900  -0.48389  -0.48151
 Alpha  occ. eigenvalues --   -0.47649  -0.47534  -0.47256  -0.46510  -0.46081
 Alpha  occ. eigenvalues --   -0.45834  -0.45246  -0.44651  -0.44343  -0.44010
 Alpha  occ. eigenvalues --   -0.43879  -0.43557  -0.43306  -0.42908  -0.42541
 Alpha  occ. eigenvalues --   -0.42030  -0.41639  -0.41371  -0.41297  -0.40873
 Alpha  occ. eigenvalues --   -0.40772  -0.40447  -0.40253  -0.39934  -0.39813
 Alpha  occ. eigenvalues --   -0.38979  -0.38739  -0.38583  -0.38219  -0.37984
 Alpha  occ. eigenvalues --   -0.37829  -0.37242  -0.37134  -0.36791  -0.36447
 Alpha  occ. eigenvalues --   -0.36330  -0.35756  -0.35418  -0.35005  -0.34413
 Alpha  occ. eigenvalues --   -0.33875  -0.33379  -0.32891  -0.32348  -0.31786
 Alpha  occ. eigenvalues --   -0.30734  -0.30611  -0.29406  -0.29033  -0.28702
 Alpha  occ. eigenvalues --   -0.28175  -0.27772  -0.25679  -0.25313  -0.24273
 Alpha  occ. eigenvalues --   -0.23515  -0.23064  -0.22721  -0.21268  -0.18671
 Alpha virt. eigenvalues --   -0.13517  -0.07970  -0.04314  -0.02472  -0.02335
 Alpha virt. eigenvalues --    0.00453   0.01038   0.01948   0.02443   0.02779
 Alpha virt. eigenvalues --    0.02847   0.04012   0.04208   0.04897   0.05108

 Mulliken charges:
               1
     1  O   -0.213497
     2  O   -0.207539
     3  O   -0.200967
     4  O   -0.273313
     5  O   -0.162322
     6  O   -0.251732
     7  N   -0.030765
     8  N   -0.191663
     9  N   -0.046256
    10  N   -0.362049
    11  C    0.078248
    12  C    0.064848
    13  C   -0.096656
    14  C   -0.158731
    15  C   -0.131007
    16  C   -0.006353
    17  C   -0.182461
    18  C    0.153623
    19  C   -0.063083
    20  C   -0.112445
    21  C    0.185018
    22  C    0.123238
    23  C   -0.051555
    24  C    0.130706
    25  C    0.028607
    26  C   -0.062666
    27  C   -0.069343
    28  C    0.049680
    29  C    0.037514
    30  C   -0.004505
    31  C   -0.069068
    32  C    0.043030
    33  C   -0.101361
    34  C    0.131698
    35  C    0.181913
    36  C   -0.025234
    37  C    0.179639
    38  C    0.025453
    39  C   -0.145246
    40  C    0.199845
    41  C    0.016586
    42  C   -0.013915
    43  C   -0.075626
    44  H    0.081798
    45  H   -0.003989
    46  H    0.016120
    47  H    0.154616
    48  H    0.159600
    49  H    0.021198
    50  H   -0.047816
    51  H    0.010466
    52  H   -0.003383
    53  H    0.004207
    54  H    0.063383
    55  H    0.038272
    56  H    0.036857
    57  H    0.053061
    58  H    0.041521
    59  H    0.076631
    60  H    0.124744
    61  H    0.020196
    62  H    0.037488
    63  H   -0.029880
    64  H    0.037155
    65  H    0.061486
    66  H    0.030277
    67  H    0.043354
    68  H    0.048320
    69  H    0.000604
    70  H    0.001128
    71  H    0.009078
    72  H    0.175470
    73  H   -0.019422
    74  H    0.033871
    75  H    0.049882
    76  H    0.044622
    77  H    0.206878
    78  H    0.049366
    79  H    0.052548
 Sum of Mulliken charges =  -0.00000

 Dipole moment (field-independent basis, Debye):
    X=              5.3773    Y=              2.7937    Z=             -2.3120  Tot=              6.4858
 Quadrupole moment (field-independent basis, Debye-Ang):
   XX=           -239.9140   YY=           -235.7113   ZZ=           -269.2352
   XY=              1.4703   XZ=            -28.0918   YZ=            -14.5261

 Normal termination of Gaussian 16 at Sat Jul 27 13:17:06 2019.
