 Gaussian 16, Revision A.03,
 Gaussian 16:  ES64L-G16RevA.03 25-Dec-2016

 --------------------------
 # td=(NStates=1) B3LYP/SVP
 --------------------------

 --
 TD
 --
 Symbolic Z-matrix:
 Charge =  0 Multiplicity = 1

                         Standard orientation:
 ---------------------------------------------------------------------
 Center     Atomic      Atomic             Coordinates (Angstroms)
 Number     Number       Type             X           Y           Z
 ---------------------------------------------------------------------
      1          8           0        5.450984   -0.294421   -3.209167
      2          8           0       -3.209427   -2.747852    3.228677
      3          8           0       -3.444223   -0.627773    2.804159
      4          8           0       -1.742371    7.082670    1.456935
      5          8           0       -0.891985    6.973248   -0.622982
      6          8           0       -1.496876   -3.931971    0.078244
      7          7           0        2.355496    0.985245    0.608471
      8          7           0        4.438540   -0.570567   -1.219458
      9          7           0       -1.846560    0.759441   -0.447429
     10          7           0       -2.353054   -1.868457   -0.454480
     11          6           0        4.825735   -1.177611   -0.004378
     12          6           0        4.386562   -0.251772    1.328661
     13          6           0        2.888865   -0.008840    1.346056
     14          6           0        1.836789   -0.620443    2.099642
     15          6           0        0.637410    0.094995    1.726915
     16          6           0        0.948800    1.108620    0.874721
     17          6           0        6.284260   -1.188605   -0.076765
     18          6           0       -0.672085   -0.080660    2.460035
     19          6           0        6.619959   -0.870384   -1.334875
     20          6           0        0.121484    2.116889    0.122231
     21          6           0       -1.186512    1.752825   -0.321768
     22          6           0        5.426922   -0.461501   -2.006459
     23          6           0       -2.031234    2.969152   -0.904504
     24          6           0        2.089119   -1.640177    3.167276
     25          6           0        7.183026   -1.742648    0.969809
     26          6           0       -3.270290    2.321710   -1.324793
     27          6           0       -1.147367   -1.527499    2.541473
     28          6           0       -3.105791    0.811703   -1.092706
     29          6           0       -1.643772    4.364608   -1.092733
     30          6           0        7.943029   -0.675581   -1.977302
     31          6           0       -1.696366    5.019385    0.313468
     32          6           0       -4.571359    2.823303   -1.954092
     33          6           0       -3.986592   -0.305936   -1.345071
     34          6           0       -2.732521   -1.559614    2.921470
     35          6           0       -3.564297   -1.568758   -1.157240
     36          6           0        9.183033   -0.604492   -1.399923
     37          6           0       -1.379362    6.482428    0.338976
     38          6           0       -4.354152   -2.821368   -1.433696
     39          6           0       -3.636919   -3.852727   -1.031422
     40          6           0       -2.405272   -3.234213   -0.447813
     41          6           0       -5.696463   -2.744646   -2.063373
     42          6           0       -3.907021   -5.372087   -1.094509
     43          6           0       -6.652377   -3.767812   -2.241224
     44          1           0        4.582001   -2.261256    0.197077
     45          1           0        4.972978    0.609436    1.392573
     46          1           0        4.759611   -0.918285    2.193185
     47          1           0        2.776076    1.619101   -0.107940
     48          1           0        3.521464   -0.593718   -1.716571
     49          1           0       -0.561939    0.417963    3.407610
     50          1           0       -1.410963    0.461157    1.900956
     51          1           0        0.401707    3.153403    0.075168
     52          1           0        3.140532   -1.655263    3.677312
     53          1           0        1.467451   -1.490306    4.000420
     54          1           0        1.931446   -2.684394    2.935381
     55          1           0        6.743595   -2.716696    1.502487
     56          1           0        7.450535   -1.131089    1.936160
     57          1           0        8.194152   -2.055354    0.727854
     58          1           0       -1.221225   -1.939853    1.468636
     59          1           0       -0.487361   -2.204719    3.259276
     60          1           0       -1.557402   -0.184870   -0.397834
     61          1           0       -2.274869    5.146066   -1.843223
     62          1           0       -0.493241    4.406982   -1.345239
     63          1           0        7.702217   -0.552870   -3.097550
     64          1           0       -1.079285    4.569161    1.024130
     65          1           0       -2.677194    4.665291    0.743064
     66          1           0       -4.289592    3.880263   -2.665603
     67          1           0       -5.382027    2.812695   -1.257468
     68          1           0       -4.680794    2.271275   -2.961546
     69          1           0       -4.799602    0.041051   -2.037021
     70          1           0        9.438246   -0.690408   -0.397984
     71          1           0       10.038884   -0.449979   -1.955635
     72          1           0       -4.123587   -2.813059    3.455168
     73          1           0       -6.041753   -1.611326   -2.200650
     74          1           0       -4.635991   -5.710099   -0.294656
     75          1           0       -4.423679   -5.684814   -2.078301
     76          1           0       -2.941425   -5.773639   -0.809928
     77          1           0       -1.754595    8.027414    1.215781
     78          1           0       -7.659087   -3.691607   -2.608759
     79          1           0       -6.526496   -4.767963   -2.069505
 ---------------------------------------------------------------------

 SCF Done:  E(RB3LYP) =  -1947.82681863     A.U. after   24 cycles

 Excitation energies and oscillator strengths:

 Excited State   1:      Singlet-A      1.9864 eV  624.16 nm  f=0.3964  <S**2>=0.000
     152 ->156        -0.11918
     155 ->156         0.69948
     155 <-156        -0.12094
 This state for optimization and/or second-order correction.
 Total Energy, E(TD-HF/TD-DFT) =  -1947.75381897
 Copying the excited state density for this state as the 1-particle RhoCI density.

 The electronic state is 1-A.
 Alpha  occ. eigenvalues --  -19.20054 -19.16012 -19.13624 -19.10191 -19.08682
 Alpha  occ. eigenvalues --  -19.08407 -14.38259 -14.37817 -14.36478 -14.29768
 Alpha  occ. eigenvalues --  -10.32656 -10.29891 -10.26839 -10.26385 -10.25712
 Alpha  occ. eigenvalues --  -10.25610 -10.25533 -10.23843 -10.23331 -10.23261
 Alpha  occ. eigenvalues --  -10.23224 -10.22927 -10.22869 -10.22813 -10.22640
 Alpha  occ. eigenvalues --  -10.22261 -10.22257 -10.21879 -10.21255 -10.20693
 Alpha  occ. eigenvalues --  -10.20634 -10.20173 -10.20020 -10.19799 -10.19619
 Alpha  occ. eigenvalues --  -10.19521 -10.19193 -10.19003 -10.18917 -10.18723
 Alpha  occ. eigenvalues --  -10.18615 -10.18394 -10.17659  -1.12522  -1.09182
 Alpha  occ. eigenvalues --   -1.04453  -1.03535  -1.02674  -0.99658  -0.98721
 Alpha  occ. eigenvalues --   -0.97489  -0.96485  -0.90696  -0.83049  -0.82714
 Alpha  occ. eigenvalues --   -0.81782  -0.80516  -0.79786  -0.78932  -0.77470
 Alpha  occ. eigenvalues --   -0.76683  -0.75167  -0.74292  -0.73792  -0.72317
 Alpha  occ. eigenvalues --   -0.71765  -0.70972  -0.70115  -0.69030  -0.68422
 Alpha  occ. eigenvalues --   -0.67430  -0.66314  -0.64126  -0.62613  -0.62031
 Alpha  occ. eigenvalues --   -0.61467  -0.59700  -0.59436  -0.58604  -0.57203
 Alpha  occ. eigenvalues --   -0.56475  -0.55811  -0.55211  -0.54200  -0.53228
 Alpha  occ. eigenvalues --   -0.52247  -0.52012  -0.51640  -0.50901  -0.50371
 Alpha  occ. eigenvalues --   -0.49707  -0.49399  -0.48264  -0.47518  -0.47198
 Alpha  occ. eigenvalues --   -0.47004  -0.46810  -0.46266  -0.45930  -0.45658
 Alpha  occ. eigenvalues --   -0.44976  -0.44807  -0.44552  -0.44189  -0.43773
 Alpha  occ. eigenvalues --   -0.43408  -0.43295  -0.42981  -0.42920  -0.42624
 Alpha  occ. eigenvalues --   -0.42374  -0.41714  -0.41046  -0.40881  -0.40573
 Alpha  occ. eigenvalues --   -0.40386  -0.40208  -0.40111  -0.39621  -0.39336
 Alpha  occ. eigenvalues --   -0.39180  -0.39058  -0.38593  -0.38384  -0.37988
 Alpha  occ. eigenvalues --   -0.37455  -0.37171  -0.36913  -0.36593  -0.36127
 Alpha  occ. eigenvalues --   -0.36015  -0.34855  -0.34787  -0.34235  -0.33993
 Alpha  occ. eigenvalues --   -0.33462  -0.33285  -0.32998  -0.32338  -0.31092
 Alpha  occ. eigenvalues --   -0.31008  -0.30823  -0.29572  -0.28352  -0.27679
 Alpha  occ. eigenvalues --   -0.26942  -0.25804  -0.25672  -0.24628  -0.24473
 Alpha  occ. eigenvalues --   -0.23780  -0.23437  -0.23198  -0.22359  -0.19532
 Alpha virt. eigenvalues --   -0.11839  -0.06322  -0.05460  -0.01576   0.00041
 Alpha virt. eigenvalues --    0.01326   0.01632   0.02147   0.03029   0.03562
 Alpha virt. eigenvalues --    0.03829   0.04094   0.04384   0.04835   0.05412

 Mulliken charges:
               1
     1  O   -0.248518
     2  O   -0.147312
     3  O   -0.208835
     4  O   -0.148513
     5  O   -0.202105
     6  O   -0.263815
     7  N   -0.104220
     8  N   -0.049098
     9  N    0.125167
    10  N   -0.316277
    11  C    0.047256
    12  C    0.169656
    13  C   -0.050610
    14  C   -0.090401
    15  C   -0.134486
    16  C    0.041017
    17  C   -0.127351
    18  C    0.150365
    19  C   -0.053330
    20  C   -0.059125
    21  C    0.010156
    22  C    0.026526
    23  C   -0.128668
    24  C    0.084394
    25  C    0.008735
    26  C   -0.111754
    27  C   -0.091599
    28  C    0.002736
    29  C    0.034986
    30  C    0.001808
    31  C   -0.047767
    32  C    0.016487
    33  C   -0.073587
    34  C    0.100085
    35  C    0.139643
    36  C    0.008792
    37  C    0.128274
    38  C    0.055072
    39  C   -0.186865
    40  C    0.143615
    41  C   -0.033979
    42  C    0.077678
    43  C   -0.013232
    44  H    0.049814
    45  H   -0.018621
    46  H    0.011858
    47  H    0.128998
    48  H    0.143061
    49  H    0.005695
    50  H   -0.016941
    51  H    0.002012
    52  H    0.008168
    53  H   -0.002701
    54  H    0.025591
    55  H    0.026198
    56  H    0.035740
    57  H    0.022795
    58  H    0.099755
    59  H    0.036546
    60  H    0.125515
    61  H    0.070083
    62  H    0.038561
    63  H    0.039208
    64  H    0.017906
    65  H    0.037042
    66  H    0.031969
    67  H    0.060761
    68  H    0.047938
    69  H    0.008732
    70  H   -0.007943
    71  H    0.005315
    72  H    0.164844
    73  H    0.024718
    74  H    0.031389
    75  H    0.043756
    76  H    0.033420
    77  H    0.180999
    78  H    0.019597
    79  H   -0.012781
 Sum of Mulliken charges =  -0.00000

 Dipole moment (field-independent basis, Debye):
    X=             -1.5795    Y=              3.3513    Z=              3.2437  Tot=              4.9242
 Quadrupole moment (field-independent basis, Debye-Ang):
   XX=           -222.6521   YY=           -239.9955   ZZ=           -262.4751
   XY=             -6.4973   XZ=             35.1237   YZ=              1.4034

 Normal termination of Gaussian 16 at Wed Oct  9 18:54:21 2019.
