 Gaussian 16, Revision A.03,
 Gaussian 16:  ES64L-G16RevA.03 25-Dec-2016

 --------------------------
 # td=(NStates=1) B3LYP/SVP
 --------------------------

 --
 TD
 --
 Symbolic Z-matrix:
 Charge =  0 Multiplicity = 1

                         Standard orientation:
 ---------------------------------------------------------------------
 Center     Atomic      Atomic             Coordinates (Angstroms)
 Number     Number       Type             X           Y           Z
 ---------------------------------------------------------------------
      1          8           0        5.449828   -0.092021   -3.285772
      2          8           0       -3.138559   -3.055559    3.176613
      3          8           0       -3.482673   -0.902348    3.078665
      4          8           0       -1.400360    7.020864    1.817750
      5          8           0       -0.437511    7.071430   -0.215283
      6          8           0       -1.839295   -3.918147   -0.013232
      7          7           0        2.406344    0.783332    0.608897
      8          7           0        4.437723   -0.651663   -1.218225
      9          7           0       -1.785381    0.755827   -0.528296
     10          7           0       -2.581942   -1.738278   -0.556546
     11          6           0        4.821213   -1.327511   -0.022123
     12          6           0        4.309201   -0.477827    1.261494
     13          6           0        2.921377   -0.165332    1.319774
     14          6           0        1.897663   -0.831690    2.049294
     15          6           0        0.738841   -0.100222    1.876038
     16          6           0        1.005660    0.901241    0.812929
     17          6           0        6.226955   -1.398129   -0.175016
     18          6           0       -0.559869   -0.306589    2.559978
     19          6           0        6.670583   -0.896829   -1.443412
     20          6           0        0.202410    1.978519    0.217008
     21          6           0       -1.126287    1.920881   -0.365260
     22          6           0        5.460622   -0.512686   -2.151705
     23          6           0       -1.838492    3.068785   -0.933175
     24          6           0        2.197664   -1.904514    2.969036
     25          6           0        7.036101   -2.089445    0.808779
     26          6           0       -3.072526    2.479161   -1.453125
     27          6           0       -1.121491   -1.762463    2.569543
     28          6           0       -3.015136    1.030641   -1.144382
     29          6           0       -1.454220    4.441612   -0.886910
     30          6           0        8.110799   -0.697256   -1.981165
     31          6           0       -1.566661    5.089943    0.548654
     32          6           0       -4.139249    3.090224   -2.181874
     33          6           0       -3.933028    0.055996   -1.497810
     34          6           0       -2.652952   -1.766249    2.960096
     35          6           0       -3.788936   -1.346370   -1.069786
     36          6           0        9.217329   -0.838054   -1.411619
     37          6           0       -0.980656    6.387110    0.542458
     38          6           0       -4.758030   -2.405403   -1.403195
     39          6           0       -4.179425   -3.595004   -0.936811
     40          6           0       -2.816323   -3.219055   -0.448375
     41          6           0       -6.011709   -2.213879   -2.080307
     42          6           0       -4.520427   -5.091379   -1.212565
     43          6           0       -6.817949   -3.147967   -2.549984
     44          1           0        4.274163   -2.322217   -0.049049
     45          1           0        4.990024    0.275999    1.589414
     46          1           0        4.585582   -1.010859    2.067141
     47          1           0        2.808698    1.378996   -0.015582
     48          1           0        3.453460   -0.608332   -1.688721
     49          1           0       -0.756044    0.179361    3.598654
     50          1           0       -1.441078    0.381169    2.177961
     51          1           0        0.700294    2.919732    0.244565
     52          1           0        3.253482   -1.835148    3.178579
     53          1           0        1.681048   -1.750833    3.847671
     54          1           0        1.820873   -2.970687    2.768417
     55          1           0        6.323170   -3.016968    1.243886
     56          1           0        7.338543   -1.463779    1.813587
     57          1           0        7.905912   -2.376389    0.438930
     58          1           0       -1.267528   -2.255017    1.653597
     59          1           0       -0.818028   -2.407025    3.246692
     60          1           0       -1.457173   -0.141219   -0.227147
     61          1           0       -2.204243    4.944610   -1.652806
     62          1           0       -0.480478    4.619747   -1.322626
     63          1           0        7.857462   -0.502583   -2.938226
     64          1           0       -1.146264    4.494461    1.419512
     65          1           0       -2.587907    5.210510    0.706061
     66          1           0       -4.073751    4.198864   -2.039753
     67          1           0       -5.126666    2.870686   -1.664146
     68          1           0       -4.265870    2.924121   -3.151414
     69          1           0       -4.912587    0.513843   -1.978640
     70          1           0        9.407088   -0.889876   -0.240936
     71          1           0       10.142649   -0.795849   -1.975041
     72          1           0       -4.196220   -3.168672    3.251341
     73          1           0       -6.157390   -1.123323   -2.223560
     74          1           0       -5.459109   -5.144617   -0.735544
     75          1           0       -4.792404   -5.312951   -2.359440
     76          1           0       -3.754885   -6.055667   -0.909400
     77          1           0       -0.963382    7.976217    1.992908
     78          1           0       -7.698666   -2.759276   -3.069582
     79          1           0       -6.309728   -4.116849   -2.486953
 ---------------------------------------------------------------------

 SCF Done:  E(RB3LYP) =  -1947.78071146     A.U. after   18 cycles

 Excitation energies and oscillator strengths:

 Excited State   1:      Singlet-A      1.7636 eV  703.00 nm  f=0.3768  <S**2>=0.000
     155 ->156         0.70310
     155 <-156        -0.13356
 This state for optimization and/or second-order correction.
 Total Energy, E(TD-HF/TD-DFT) =  -1947.71589914
 Copying the excited state density for this state as the 1-particle RhoCI density.

 The electronic state is 1-A.
 Alpha  occ. eigenvalues --  -19.14902 -19.14868 -19.14807 -19.10951 -19.10825
 Alpha  occ. eigenvalues --  -19.09904 -14.38674 -14.36527 -14.35474 -14.30038
 Alpha  occ. eigenvalues --  -10.32371 -10.30306 -10.27888 -10.27462 -10.25315
 Alpha  occ. eigenvalues --  -10.24747 -10.24693 -10.24008 -10.23404 -10.22537
 Alpha  occ. eigenvalues --  -10.22093 -10.22053 -10.22042 -10.21968 -10.21963
 Alpha  occ. eigenvalues --  -10.21876 -10.21844 -10.21720 -10.21694 -10.21390
 Alpha  occ. eigenvalues --  -10.20625 -10.20509 -10.20508 -10.20438 -10.20315
 Alpha  occ. eigenvalues --  -10.19890 -10.19890 -10.19826 -10.19650 -10.19224
 Alpha  occ. eigenvalues --  -10.18557 -10.18405 -10.18375  -1.09788  -1.05824
 Alpha  occ. eigenvalues --   -1.02747  -1.00387  -0.98522  -0.97946  -0.96885
 Alpha  occ. eigenvalues --   -0.96049  -0.95071  -0.90139  -0.83877  -0.82395
 Alpha  occ. eigenvalues --   -0.81823  -0.81586  -0.81254  -0.80589  -0.78679
 Alpha  occ. eigenvalues --   -0.78055  -0.76719  -0.75906  -0.74656  -0.73677
 Alpha  occ. eigenvalues --   -0.72170  -0.71733  -0.70469  -0.69681  -0.69397
 Alpha  occ. eigenvalues --   -0.67774  -0.66653  -0.64252  -0.61215  -0.60977
 Alpha  occ. eigenvalues --   -0.59101  -0.58114  -0.57446  -0.57088  -0.56652
 Alpha  occ. eigenvalues --   -0.55870  -0.55821  -0.55522  -0.55054  -0.54374
 Alpha  occ. eigenvalues --   -0.52554  -0.51777  -0.51316  -0.50889  -0.49920
 Alpha  occ. eigenvalues --   -0.49286  -0.48564  -0.48084  -0.48041  -0.47887
 Alpha  occ. eigenvalues --   -0.47423  -0.47086  -0.46633  -0.45961  -0.45920
 Alpha  occ. eigenvalues --   -0.45054  -0.44488  -0.44426  -0.44335  -0.43997
 Alpha  occ. eigenvalues --   -0.43176  -0.43101  -0.42976  -0.42766  -0.42338
 Alpha  occ. eigenvalues --   -0.42147  -0.41951  -0.41742  -0.41206  -0.41098
 Alpha  occ. eigenvalues --   -0.40620  -0.40542  -0.40509  -0.40273  -0.39970
 Alpha  occ. eigenvalues --   -0.39583  -0.39256  -0.39120  -0.39087  -0.38811
 Alpha  occ. eigenvalues --   -0.38466  -0.38269  -0.37871  -0.37670  -0.36789
 Alpha  occ. eigenvalues --   -0.36480  -0.36291  -0.35347  -0.35036  -0.34499
 Alpha  occ. eigenvalues --   -0.33999  -0.33626  -0.32360  -0.31532  -0.31321
 Alpha  occ. eigenvalues --   -0.30919  -0.29534  -0.28932  -0.28689  -0.27979
 Alpha  occ. eigenvalues --   -0.26437  -0.25624  -0.25507  -0.25449  -0.24878
 Alpha  occ. eigenvalues --   -0.24275  -0.24136  -0.23526  -0.22408  -0.18403
 Alpha virt. eigenvalues --   -0.11596  -0.07589  -0.06542  -0.00958  -0.00800
 Alpha virt. eigenvalues --    0.00599   0.01659   0.02519   0.02983   0.03148
 Alpha virt. eigenvalues --    0.03688   0.03978   0.04206   0.04466   0.04747

 Mulliken charges:
               1
     1  O   -0.221172
     2  O   -0.296112
     3  O   -0.220732
     4  O   -0.364633
     5  O   -0.131852
     6  O   -0.245857
     7  N    0.042319
     8  N   -0.258484
     9  N   -0.032651
    10  N   -0.328921
    11  C    0.139278
    12  C    0.279551
    13  C   -0.125037
    14  C   -0.125294
    15  C    0.011667
    16  C    0.008180
    17  C   -0.196082
    18  C   -0.043883
    19  C   -0.110607
    20  C   -0.097129
    21  C    0.060589
    22  C    0.133136
    23  C   -0.072589
    24  C    0.144146
    25  C    0.064594
    26  C   -0.123940
    27  C    0.147661
    28  C    0.111555
    29  C    0.045412
    30  C    0.142902
    31  C    0.054143
    32  C    0.126586
    33  C   -0.142901
    34  C    0.088455
    35  C    0.120078
    36  C   -0.047772
    37  C    0.135758
    38  C    0.017969
    39  C   -0.171262
    40  C    0.187379
    41  C   -0.030188
    42  C    0.002418
    43  C    0.042901
    44  H    0.039083
    45  H   -0.023143
    46  H   -0.090282
    47  H    0.077902
    48  H    0.152407
    49  H    0.022364
    50  H    0.025579
    51  H   -0.019482
    52  H   -0.010443
    53  H   -0.019254
    54  H    0.036506
    55  H    0.042714
    56  H    0.045167
    57  H   -0.010704
    58  H    0.045061
    59  H   -0.025421
    60  H    0.144889
    61  H    0.030645
    62  H    0.023508
    63  H   -0.040254
    64  H    0.074903
    65  H    0.032333
    66  H    0.002170
    67  H    0.028240
    68  H    0.006101
    69  H    0.012300
    70  H    0.040318
    71  H    0.025242
    72  H    0.224525
    73  H   -0.020525
    74  H    0.024105
    75  H    0.063406
    76  H    0.081853
    77  H    0.211325
    78  H    0.030805
    79  H   -0.003520
 Sum of Mulliken charges =  -0.00000

 Dipole moment (field-independent basis, Debye):
    X=             -0.1100    Y=              1.2790    Z=              1.9594  Tot=              2.3425
 Quadrupole moment (field-independent basis, Debye-Ang):
   XX=           -217.5726   YY=           -250.5343   ZZ=           -263.2503
   XY=             -5.1252   XZ=             39.9583   YZ=              2.5400

 Normal termination of Gaussian 16 at Sat Oct  5 08:06:08 2019.
