 Gaussian 16, Revision A.03,
 Gaussian 16:  ES64L-G16RevA.03 25-Dec-2016

 --------------------------
 # td=(NStates=1) B3LYP/SVP
 --------------------------

 --
 TD
 --
 Symbolic Z-matrix:
 Charge =  0 Multiplicity = 1

                         Standard orientation:
 ---------------------------------------------------------------------
 Center     Atomic      Atomic             Coordinates (Angstroms)
 Number     Number       Type             X           Y           Z
 ---------------------------------------------------------------------
      1          8           0       -3.168864   -1.515470   -2.867220
      2          8           0        3.226388    3.122457    3.071759
      3          8           0        4.095205    1.367110    4.190107
      4          8           0        7.680998   -1.563008   -0.691315
      5          8           0        6.673910   -2.989782   -2.062402
      6          8           0       -2.510570    1.809881    1.647895
      7          7           0       -0.299003   -2.360228    0.887834
      8          7           0       -2.743642   -1.107857   -0.610860
      9          7           0        1.078741    0.136605   -0.735101
     10          7           0       -1.063775    1.458687   -0.232071
     11          6           0       -3.381009   -1.271231    0.710936
     12          6           0       -2.645800   -2.250559    1.666903
     13          6           0       -1.241415   -1.987683    1.795872
     14          6           0       -0.575245   -1.286723    2.835529
     15          6           0        0.792828   -1.154477    2.453227
     16          6           0        0.965692   -1.800150    1.264649
     17          6           0       -4.728322   -1.855278    0.339210
     18          6           0        1.857121   -0.379104    3.209181
     19          6           0       -4.856311   -1.964606   -1.075336
     20          6           0        2.086445   -1.891866    0.192614
     21          6           0        2.028216   -0.902017   -0.781292
     22          6           0       -3.553001   -1.481343   -1.643835
     23          6           0        3.060961   -0.626284   -1.779294
     24          6           0       -1.184474   -0.593026    3.985299
     25          6           0       -5.846323   -2.109733    1.304107
     26          6           0        2.435028    0.415737   -2.528480
     27          6           0        2.011895    1.007270    2.800816
     28          6           0        1.191242    0.950386   -1.899366
     29          6           0        4.240579   -1.385072   -2.156398
     30          6           0       -5.847367   -2.547603   -1.925024
     31          6           0        5.534635   -1.011828   -1.294984
     32          6           0        3.045619    1.080452   -3.769184
     33          6           0        0.341532    2.066808   -2.087695
     34          6           0        3.225424    1.783785    3.441735
     35          6           0       -0.741105    2.288992   -1.213350
     36          6           0       -6.801560   -3.464368   -1.584950
     37          6           0        6.614980   -1.978505   -1.394999
     38          6           0       -1.477335    3.484949   -1.268926
     39          6           0       -2.293887    3.390343   -0.131691
     40          6           0       -2.004862    2.225268    0.556959
     41          6           0       -1.424952    4.545069   -2.222909
     42          6           0       -3.335333    4.318297    0.530949
     43          6           0       -2.247219    5.645910   -2.340809
     44          1           0       -3.681295   -0.262892    1.218980
     45          1           0       -2.767210   -3.297181    1.172369
     46          1           0       -3.277803   -2.268523    2.622595
     47          1           0       -0.793630   -2.514770    0.076081
     48          1           0       -1.950708   -0.402814   -0.670459
     49          1           0        1.846922   -0.539028    4.344714
     50          1           0        2.872879   -1.044438    3.238738
     51          1           0        2.869778   -2.753517    0.179569
     52          1           0       -2.036613   -1.311608    4.395289
     53          1           0       -0.476225   -0.499472    4.818514
     54          1           0       -1.660936    0.169611    3.612682
     55          1           0       -5.761528   -1.560322    2.173000
     56          1           0       -5.663931   -3.179674    1.716446
     57          1           0       -6.772955   -1.837182    0.636406
     58          1           0        2.099761    1.068779    1.678636
     59          1           0        1.116098    1.474690    2.902864
     60          1           0        0.113520   -0.122924   -0.125932
     61          1           0        4.437196   -1.346877   -3.417070
     62          1           0        4.157423   -2.557868   -1.879572
     63          1           0       -5.820831   -2.255640   -3.065734
     64          1           0        5.100755   -1.126376   -0.217445
     65          1           0        6.061827   -0.021801   -1.648273
     66          1           0        3.637821    0.276689   -4.125317
     67          1           0        3.817322    2.017294   -3.359348
     68          1           0        2.371811    1.734725   -4.403527
     69          1           0        0.454692    2.674412   -2.950087
     70          1           0       -6.743922   -4.099815   -0.523044
     71          1           0       -7.399600   -3.894032   -2.506737
     72          1           0        4.117621    3.411675    3.555643
     73          1           0       -0.742331    4.374170   -2.893090
     74          1           0       -4.196872    4.632779   -0.394441
     75          1           0       -3.902692    3.875913    1.474038
     76          1           0       -2.667764    5.170528    0.801585
     77          1           0        8.355625   -2.308113   -0.715891
     78          1           0       -2.128797    6.305854   -3.441601
     79          1           0       -3.248252    5.706948   -1.696568
 ---------------------------------------------------------------------

 SCF Done:  E(RB3LYP) =  -1947.77160023     A.U. after   20 cycles

 Excitation energies and oscillator strengths:

 Excited State   1:      Singlet-A      1.0732 eV 1155.33 nm  f=0.0005  <S**2>=0.000
     155 ->156         0.70349
 This state for optimization and/or second-order correction.
 Total Energy, E(TD-HF/TD-DFT) =  -1947.73216261
 Copying the excited state density for this state as the 1-particle RhoCI density.

 The electronic state is 1-A.
 Alpha  occ. eigenvalues --  -19.19194 -19.18065 -19.13594 -19.13349 -19.12742
 Alpha  occ. eigenvalues --  -19.07666 -14.38229 -14.36313 -14.34059 -14.30741
 Alpha  occ. eigenvalues --  -10.32884 -10.32511 -10.27890 -10.27746 -10.27070
 Alpha  occ. eigenvalues --  -10.25753 -10.24994 -10.24590 -10.24112 -10.23965
 Alpha  occ. eigenvalues --  -10.23943 -10.23645 -10.23617 -10.23533 -10.22939
 Alpha  occ. eigenvalues --  -10.22624 -10.22377 -10.21690 -10.21549 -10.21420
 Alpha  occ. eigenvalues --  -10.21360 -10.21102 -10.21060 -10.20496 -10.20486
 Alpha  occ. eigenvalues --  -10.20275 -10.20124 -10.20045 -10.19995 -10.19394
 Alpha  occ. eigenvalues --  -10.18172 -10.16897 -10.16839  -1.10895  -1.08061
 Alpha  occ. eigenvalues --   -1.01279  -1.01109  -0.99020  -0.98069  -0.97717
 Alpha  occ. eigenvalues --   -0.96888  -0.94395  -0.90914  -0.83631  -0.82105
 Alpha  occ. eigenvalues --   -0.81970  -0.81224  -0.80510  -0.79130  -0.78792
 Alpha  occ. eigenvalues --   -0.77354  -0.77080  -0.75571  -0.74644  -0.72921
 Alpha  occ. eigenvalues --   -0.71210  -0.70588  -0.69690  -0.68910  -0.67278
 Alpha  occ. eigenvalues --   -0.66312  -0.65915  -0.63245  -0.61383  -0.60123
 Alpha  occ. eigenvalues --   -0.59733  -0.59216  -0.58032  -0.56570  -0.55999
 Alpha  occ. eigenvalues --   -0.55711  -0.55404  -0.54977  -0.53262  -0.52710
 Alpha  occ. eigenvalues --   -0.51346  -0.51036  -0.50846  -0.50299  -0.49702
 Alpha  occ. eigenvalues --   -0.49253  -0.48892  -0.48704  -0.48166  -0.47998
 Alpha  occ. eigenvalues --   -0.47932  -0.46580  -0.46385  -0.45888  -0.45671
 Alpha  occ. eigenvalues --   -0.45514  -0.44582  -0.44306  -0.44224  -0.43797
 Alpha  occ. eigenvalues --   -0.43541  -0.43224  -0.42812  -0.42728  -0.41926
 Alpha  occ. eigenvalues --   -0.41907  -0.41813  -0.41442  -0.41066  -0.40836
 Alpha  occ. eigenvalues --   -0.40691  -0.40446  -0.40209  -0.39987  -0.39707
 Alpha  occ. eigenvalues --   -0.39528  -0.38887  -0.38714  -0.38403  -0.38127
 Alpha  occ. eigenvalues --   -0.38000  -0.37355  -0.37176  -0.36724  -0.36603
 Alpha  occ. eigenvalues --   -0.36310  -0.35851  -0.35372  -0.34957  -0.34671
 Alpha  occ. eigenvalues --   -0.33842  -0.33282  -0.32457  -0.32213  -0.31986
 Alpha  occ. eigenvalues --   -0.30196  -0.30058  -0.29690  -0.29216  -0.28834
 Alpha  occ. eigenvalues --   -0.28563  -0.26707  -0.26081  -0.24706  -0.24298
 Alpha  occ. eigenvalues --   -0.23629  -0.23227  -0.22383  -0.22089  -0.19956
 Alpha virt. eigenvalues --   -0.13652  -0.08788  -0.05225  -0.02741  -0.01048
 Alpha virt. eigenvalues --   -0.00270   0.00602   0.00805   0.01407   0.01882
 Alpha virt. eigenvalues --    0.03014   0.03519   0.03774   0.04285   0.04363

 Mulliken charges:
               1
     1  O   -0.305027
     2  O   -0.246957
     3  O   -0.235257
     4  O   -0.199228
     5  O   -0.226681
     6  O   -0.244511
     7  N   -0.046452
     8  N   -0.234389
     9  N   -0.206580
    10  N   -0.329555
    11  C    0.069048
    12  C    0.143322
    13  C   -0.117730
    14  C   -0.161298
    15  C   -0.047590
    16  C   -0.048816
    17  C   -0.230451
    18  C   -0.000342
    19  C   -0.025323
    20  C   -0.082604
    21  C    0.104787
    22  C    0.165242
    23  C    0.034445
    24  C    0.189498
    25  C    0.092960
    26  C   -0.164197
    27  C    0.089496
    28  C    0.194678
    29  C   -0.089875
    30  C   -0.048936
    31  C   -0.022047
    32  C    0.051556
    33  C   -0.111815
    34  C    0.167635
    35  C    0.142262
    36  C   -0.114978
    37  C    0.108620
    38  C    0.033296
    39  C   -0.164214
    40  C    0.179940
    41  C    0.081957
    42  C   -0.020592
    43  C   -0.085517
    44  H    0.070165
    45  H    0.000914
    46  H    0.010540
    47  H    0.091003
    48  H    0.166453
    49  H    0.011896
    50  H    0.008934
    51  H    0.048509
    52  H   -0.008526
    53  H    0.011007
    54  H   -0.013516
    55  H   -0.008156
    56  H    0.041564
    57  H    0.076673
    58  H    0.040593
    59  H    0.002909
    60  H    0.262806
    61  H    0.075753
    62  H    0.062105
    63  H    0.044680
    64  H    0.077812
    65  H    0.079288
    66  H    0.014561
    67  H    0.046886
    68  H    0.048999
    69  H   -0.030064
    70  H    0.055386
    71  H    0.046208
    72  H    0.206745
    73  H   -0.094028
    74  H    0.060425
    75  H    0.073898
    76  H    0.056045
    77  H    0.201001
    78  H    0.066690
    79  H    0.056065
 Sum of Mulliken charges =  -0.00000

 Dipole moment (field-independent basis, Debye):
    X=              2.6873    Y=              2.8112    Z=             -0.6293  Tot=              3.9396
 Quadrupole moment (field-independent basis, Debye-Ang):
   XX=           -236.9009   YY=           -244.7946   ZZ=           -266.8397
   XY=              1.2044   XZ=            -19.3946   YZ=            -20.2423

 Normal termination of Gaussian 16 at Wed Jul 24 12:52:46 2019.
