 Gaussian 16, Revision A.03,
 Gaussian 16:  ES64L-G16RevA.03 25-Dec-2016

 --------------------------
 # td=(NStates=1) B3LYP/SVP
 --------------------------

 --
 TD
 --
 Symbolic Z-matrix:
 Charge =  0 Multiplicity = 1

                         Standard orientation:
 ---------------------------------------------------------------------
 Center     Atomic      Atomic             Coordinates (Angstroms)
 Number     Number       Type             X           Y           Z
 ---------------------------------------------------------------------
      1          8           0        5.138002   -0.157880   -3.192766
      2          8           0       -3.053444   -3.047041    2.966346
      3          8           0       -3.305391   -0.762585    3.155453
      4          8           0       -1.878262    7.025080    1.559066
      5          8           0       -0.512703    6.982201   -0.293636
      6          8           0       -1.645877   -3.936389    0.039896
      7          7           0        2.415036    1.011880    0.600637
      8          7           0        4.332688   -0.642881   -1.137068
      9          7           0       -1.897800    0.753348   -0.358540
     10          7           0       -2.499459   -1.843714   -0.609978
     11          6           0        4.819769   -1.217578    0.128837
     12          6           0        4.461585   -0.237148    1.331394
     13          6           0        2.957358   -0.053689    1.352271
     14          6           0        2.033594   -0.580170    2.139809
     15          6           0        0.753214    0.026330    1.749829
     16          6           0        0.988257    0.961994    0.805524
     17          6           0        6.360195   -1.238081   -0.054527
     18          6           0       -0.554875   -0.180667    2.525216
     19          6           0        6.584618   -0.919401   -1.388354
     20          6           0        0.186198    1.996558    0.168294
     21          6           0       -1.143493    1.886235   -0.300271
     22          6           0        5.307057   -0.514504   -2.019611
     23          6           0       -1.947372    2.869469   -0.993374
     24          6           0        2.033901   -1.767141    2.985698
     25          6           0        7.238150   -1.751937    0.905917
     26          6           0       -3.102457    2.411396   -1.415980
     27          6           0       -1.207134   -1.595701    2.461626
     28          6           0       -3.044430    0.929292   -1.071145
     29          6           0       -1.498004    4.331290   -1.071123
     30          6           0        7.851115   -0.771080   -2.149629
     31          6           0       -1.920153    5.028088    0.254014
     32          6           0       -4.261148    3.090427   -2.103907
     33          6           0       -3.916337   -0.087025   -1.291577
     34          6           0       -2.621332   -1.716545    2.946337
     35          6           0       -3.704907   -1.484069   -0.933293
     36          6           0        9.121629   -0.631171   -1.562161
     37          6           0       -1.388293    6.451839    0.447818
     38          6           0       -4.549766   -2.633072   -1.336546
     39          6           0       -3.861578   -3.833145   -0.978466
     40          6           0       -2.555426   -3.256963   -0.451637
     41          6           0       -5.808683   -2.472336   -1.929069
     42          6           0       -4.171819   -5.276618   -1.095711
     43          6           0       -6.563912   -3.490244   -2.624652
     44          1           0        4.283995   -2.333641    0.335993
     45          1           0        5.105811    0.690829    1.209782
     46          1           0        4.831627   -0.820012    2.367324
     47          1           0        2.807002    1.711093   -0.074232
     48          1           0        3.278294   -0.670890   -1.379505
     49          1           0       -0.221226   -0.135562    3.670450
     50          1           0       -1.493078    0.554389    2.356311
     51          1           0        0.613809    2.952421    0.004344
     52          1           0        3.177581   -1.629843    3.606672
     53          1           0        1.220023   -1.758355    3.884574
     54          1           0        2.162796   -2.761490    2.161452
     55          1           0        6.764693   -2.158056    1.978840
     56          1           0        7.723508   -0.801196    1.191016
     57          1           0        7.943088   -2.611483    0.593267
     58          1           0       -1.449489   -2.042174    1.466064
     59          1           0       -0.386828   -2.261242    2.949899
     60          1           0       -1.675389   -0.206190   -0.196479
     61          1           0       -2.050028    4.663211   -1.886338
     62          1           0       -0.422065    4.341747   -1.383036
     63          1           0        7.606906   -0.933564   -3.264016
     64          1           0       -1.558075    4.140026    0.977640
     65          1           0       -2.862608    4.889740    0.659365
     66          1           0       -4.101002    4.125343   -2.389923
     67          1           0       -5.152250    3.024089   -1.499468
     68          1           0       -4.398612    2.512810   -3.058126
     69          1           0       -4.860287    0.221671   -1.783598
     70          1           0        9.470455   -0.451810   -0.501638
     71          1           0       10.026885   -0.596237   -2.425689
     72          1           0       -3.945612   -3.065668    3.273395
     73          1           0       -6.224718   -1.528417   -1.837683
     74          1           0       -5.321047   -5.401057   -0.745946
     75          1           0       -3.836113   -5.604926   -2.076433
     76          1           0       -3.568096   -5.580402   -0.045102
     77          1           0       -1.424206    7.885892    1.630280
     78          1           0       -7.444260   -3.221753   -3.100993
     79          1           0       -6.266462   -4.564604   -2.597977
 ---------------------------------------------------------------------

 SCF Done:  E(RB3LYP) =  -1947.82053924     A.U. after   16 cycles

 Excitation energies and oscillator strengths:

 Excited State   1:      Singlet-A      1.9779 eV  626.86 nm  f=0.3354  <S**2>=0.000
     154 ->156         0.13761
     155 ->156         0.69144
 This state for optimization and/or second-order correction.
 Total Energy, E(TD-HF/TD-DFT) =  -1947.74785369
 Copying the excited state density for this state as the 1-particle RhoCI density.

 The electronic state is 1-A.
 Alpha  occ. eigenvalues --  -19.19958 -19.16603 -19.13188 -19.12184 -19.11410
 Alpha  occ. eigenvalues --  -19.08233 -14.37420 -14.36080 -14.35565 -14.30281
 Alpha  occ. eigenvalues --  -10.33526 -10.31092 -10.27499 -10.27191 -10.26304
 Alpha  occ. eigenvalues --  -10.24818 -10.24487 -10.24290 -10.23639 -10.23252
 Alpha  occ. eigenvalues --  -10.22831 -10.22522 -10.22139 -10.22097 -10.21995
 Alpha  occ. eigenvalues --  -10.21868 -10.21756 -10.21740 -10.21490 -10.21275
 Alpha  occ. eigenvalues --  -10.21026 -10.20962 -10.20947 -10.20778 -10.20740
 Alpha  occ. eigenvalues --  -10.20711 -10.20701 -10.20453 -10.20073 -10.19575
 Alpha  occ. eigenvalues --  -10.18990 -10.18862 -10.18476  -1.10228  -1.07906
 Alpha  occ. eigenvalues --   -1.01469  -1.01190  -1.00447  -0.99369  -0.99245
 Alpha  occ. eigenvalues --   -0.96301  -0.93495  -0.93110  -0.83707  -0.82389
 Alpha  occ. eigenvalues --   -0.81310  -0.80823  -0.80777  -0.78926  -0.77850
 Alpha  occ. eigenvalues --   -0.76499  -0.75924  -0.75252  -0.74163  -0.72650
 Alpha  occ. eigenvalues --   -0.70934  -0.70691  -0.69749  -0.69206  -0.68097
 Alpha  occ. eigenvalues --   -0.66593  -0.65548  -0.63513  -0.61483  -0.61275
 Alpha  occ. eigenvalues --   -0.60290  -0.59846  -0.57768  -0.57444  -0.56759
 Alpha  occ. eigenvalues --   -0.56083  -0.54908  -0.54307  -0.53295  -0.52908
 Alpha  occ. eigenvalues --   -0.52455  -0.51239  -0.50850  -0.50264  -0.49215
 Alpha  occ. eigenvalues --   -0.48988  -0.48522  -0.47982  -0.47395  -0.47002
 Alpha  occ. eigenvalues --   -0.46865  -0.46449  -0.46124  -0.46063  -0.45786
 Alpha  occ. eigenvalues --   -0.45559  -0.44918  -0.44807  -0.43999  -0.43938
 Alpha  occ. eigenvalues --   -0.43561  -0.43235  -0.43074  -0.42868  -0.42459
 Alpha  occ. eigenvalues --   -0.42197  -0.42010  -0.41593  -0.41196  -0.41007
 Alpha  occ. eigenvalues --   -0.40901  -0.40402  -0.40316  -0.40158  -0.39683
 Alpha  occ. eigenvalues --   -0.39402  -0.39128  -0.39042  -0.38607  -0.38237
 Alpha  occ. eigenvalues --   -0.38167  -0.37535  -0.37170  -0.36566  -0.36238
 Alpha  occ. eigenvalues --   -0.35567  -0.35454  -0.34613  -0.34107  -0.33841
 Alpha  occ. eigenvalues --   -0.33576  -0.32658  -0.32217  -0.31889  -0.31302
 Alpha  occ. eigenvalues --   -0.31037  -0.30227  -0.28945  -0.28828  -0.28656
 Alpha  occ. eigenvalues --   -0.27199  -0.27101  -0.25703  -0.24869  -0.24475
 Alpha  occ. eigenvalues --   -0.24291  -0.23713  -0.23223  -0.22056  -0.19374
 Alpha virt. eigenvalues --   -0.11358  -0.06934  -0.06095  -0.02515  -0.01922
 Alpha virt. eigenvalues --   -0.00094   0.00671   0.01748   0.02196   0.03018
 Alpha virt. eigenvalues --    0.04119   0.04314   0.04626   0.04890   0.05143

 Mulliken charges:
               1
     1  O   -0.257314
     2  O   -0.207178
     3  O   -0.207278
     4  O   -0.162809
     5  O   -0.273870
     6  O   -0.211650
     7  N   -0.175057
     8  N   -0.166418
     9  N   -0.028631
    10  N   -0.275027
    11  C   -0.005680
    12  C    0.097676
    13  C   -0.001336
    14  C   -0.079952
    15  C   -0.037560
    16  C    0.098887
    17  C   -0.111527
    18  C   -0.027070
    19  C   -0.084142
    20  C   -0.054336
    21  C    0.067871
    22  C    0.120160
    23  C   -0.207002
    24  C   -0.073116
    25  C   -0.009282
    26  C   -0.092321
    27  C   -0.059079
    28  C    0.044529
    29  C    0.197310
    30  C    0.006099
    31  C   -0.020815
    32  C    0.123264
    33  C   -0.114124
    34  C    0.138053
    35  C    0.118079
    36  C   -0.106650
    37  C    0.197646
    38  C    0.038223
    39  C   -0.180372
    40  C    0.158429
    41  C   -0.050296
    42  C    0.005460
    43  C   -0.003960
    44  H    0.060995
    45  H    0.014457
    46  H    0.032179
    47  H    0.139111
    48  H    0.164893
    49  H    0.024384
    50  H    0.054797
    51  H   -0.023902
    52  H    0.019474
    53  H    0.072069
    54  H    0.087017
    55  H    0.038796
    56  H    0.046392
    57  H    0.071856
    58  H    0.076484
    59  H    0.038690
    60  H    0.126899
    61  H   -0.022652
    62  H    0.033381
    63  H    0.050917
    64  H    0.055179
    65  H   -0.003445
    66  H    0.014851
    67  H    0.030443
    68  H    0.036868
    69  H   -0.026966
    70  H    0.050020
    71  H    0.051048
    72  H    0.160249
    73  H   -0.032361
    74  H    0.053778
    75  H    0.067106
    76  H    0.075182
    77  H    0.186747
    78  H    0.013459
    79  H    0.033775
 Sum of Mulliken charges =  -0.00000

 Dipole moment (field-independent basis, Debye):
    X=             -2.0276    Y=              1.2779    Z=              3.1161  Tot=              3.9312
 Quadrupole moment (field-independent basis, Debye-Ang):
   XX=           -218.8711   YY=           -248.3182   ZZ=           -264.5242
   XY=             -8.0147   XZ=             35.3066   YZ=              5.6070

 Normal termination of Gaussian 16 at Thu Sep 26 00:39:34 2019.
