 Gaussian 16, Revision A.03,
 Gaussian 16:  ES64L-G16RevA.03 25-Dec-2016

 --------------------------
 # td=(NStates=1) B3LYP/SVP
 --------------------------

 --
 TD
 --
 Symbolic Z-matrix:
 Charge =  0 Multiplicity = 1

                         Standard orientation:
 ---------------------------------------------------------------------
 Center     Atomic      Atomic             Coordinates (Angstroms)
 Number     Number       Type             X           Y           Z
 ---------------------------------------------------------------------
      1          8           0        5.380377   -0.241469   -3.315726
      2          8           0       -3.067002   -3.062657    3.024079
      3          8           0       -3.356318   -0.867920    2.893864
      4          8           0       -1.924097    7.246391    1.479558
      5          8           0       -0.780022    7.070923   -0.509312
      6          8           0       -1.640562   -3.932425    0.139055
      7          7           0        2.275282    1.007181    0.661523
      8          7           0        4.390844   -0.665855   -1.275901
      9          7           0       -1.854684    0.614519   -0.395683
     10          7           0       -2.512836   -1.833745   -0.448845
     11          6           0        4.815149   -1.106361    0.047426
     12          6           0        4.309067   -0.244097    1.288961
     13          6           0        2.901025   -0.037712    1.342885
     14          6           0        1.921961   -0.619484    2.144948
     15          6           0        0.637231   -0.023976    1.859200
     16          6           0        0.925051    1.011725    0.933104
     17          6           0        6.380865   -1.148134   -0.102287
     18          6           0       -0.601682   -0.256403    2.555092
     19          6           0        6.610031   -0.705727   -1.349756
     20          6           0        0.083210    1.977385    0.232329
     21          6           0       -1.211842    1.787407   -0.234015
     22          6           0        5.398911   -0.497350   -2.135202
     23          6           0       -1.986982    2.833210   -0.824831
     24          6           0        2.148857   -1.750945    3.235825
     25          6           0        7.287736   -1.540818    0.980897
     26          6           0       -3.140734    2.353291   -1.359765
     27          6           0       -1.109911   -1.728613    2.551769
     28          6           0       -3.014614    0.880322   -1.037193
     29          6           0       -1.682866    4.412019   -0.852357
     30          6           0        7.938713   -0.700907   -2.133962
     31          6           0       -1.874232    5.124394    0.430877
     32          6           0       -4.320367    2.950209   -2.121249
     33          6           0       -3.959339   -0.118302   -1.319008
     34          6           0       -2.597481   -1.843602    2.870287
     35          6           0       -3.601826   -1.527576   -1.170112
     36          6           0        9.201709   -0.652262   -1.524692
     37          6           0       -1.482478    6.598667    0.296122
     38          6           0       -4.467556   -2.632289   -1.537638
     39          6           0       -3.758966   -3.819647   -1.084234
     40          6           0       -2.522884   -3.324227   -0.437277
     41          6           0       -5.683817   -2.587836   -2.130575
     42          6           0       -4.091084   -5.312505   -1.047499
     43          6           0       -6.458389   -3.581740   -2.588845
     44          1           0        4.434851   -1.969863    0.485330
     45          1           0        4.838904    0.712869    1.504706
     46          1           0        4.357161   -0.718405    2.318540
     47          1           0        2.600727    1.469062   -0.228526
     48          1           0        3.584233   -0.851769   -1.539626
     49          1           0       -0.163271    0.024038    3.594854
     50          1           0       -1.163399    0.638771    2.268734
     51          1           0        0.523119    2.879588   -0.003944
     52          1           0        3.361320   -2.077245    3.278905
     53          1           0        1.494891   -1.333026    4.205696
     54          1           0        1.694818   -2.649160    2.996822
     55          1           0        6.872239   -2.295383    1.668230
     56          1           0        7.494274   -0.704566    1.670182
     57          1           0        8.184569   -2.064477    0.669019
     58          1           0       -1.061364   -2.079966    1.410910
     59          1           0       -0.328376   -2.335248    3.112144
     60          1           0       -1.504516   -0.367319   -0.113806
     61          1           0       -2.463981    4.843244   -1.602537
     62          1           0       -0.637714    4.435857   -1.406042
     63          1           0        7.970836   -0.807498   -3.277033
     64          1           0       -1.133511    4.601271    1.073519
     65          1           0       -2.734449    4.842115    0.938583
     66          1           0       -4.206571    4.071087   -1.904276
     67          1           0       -5.134598    2.655791   -1.373029
     68          1           0       -4.340505    2.698211   -3.078890
     69          1           0       -4.987294    0.209548   -1.735336
     70          1           0        9.122784   -0.527291   -0.611619
     71          1           0       10.102740   -0.617743   -2.070168
     72          1           0       -3.998257   -2.989095    2.893007
     73          1           0       -6.007339   -1.464732   -2.412988
     74          1           0       -5.162412   -5.304996   -0.606085
     75          1           0       -4.257501   -5.838426   -1.950877
     76          1           0       -3.297189   -5.747555   -0.254841
     77          1           0       -1.331585    8.063455    1.217201
     78          1           0       -7.467278   -3.495482   -3.166036
     79          1           0       -6.200406   -4.471801   -2.125892
 ---------------------------------------------------------------------

 SCF Done:  E(RB3LYP) =  -1947.80266925     A.U. after   16 cycles

 Excitation energies and oscillator strengths:

 Excited State   1:      Singlet-A      1.8041 eV  687.24 nm  f=0.3402  <S**2>=0.000
     154 ->156         0.13794
     155 ->156         0.69281
     155 <-156        -0.11343
 This state for optimization and/or second-order correction.
 Total Energy, E(TD-HF/TD-DFT) =  -1947.73636978
 Copying the excited state density for this state as the 1-particle RhoCI density.

 The electronic state is 1-A.
 Alpha  occ. eigenvalues --  -19.18663 -19.17311 -19.15776 -19.11542 -19.10386
 Alpha  occ. eigenvalues --  -19.09877 -14.37827 -14.36608 -14.35293 -14.29492
 Alpha  occ. eigenvalues --  -10.33444 -10.30838 -10.28090 -10.27173 -10.25481
 Alpha  occ. eigenvalues --  -10.24569 -10.23873 -10.23534 -10.22666 -10.22572
 Alpha  occ. eigenvalues --  -10.22443 -10.22359 -10.22301 -10.21535 -10.21336
 Alpha  occ. eigenvalues --  -10.21226 -10.21170 -10.21080 -10.20999 -10.20980
 Alpha  occ. eigenvalues --  -10.20923 -10.20897 -10.20895 -10.20883 -10.20744
 Alpha  occ. eigenvalues --  -10.20487 -10.20069 -10.20048 -10.19798 -10.19568
 Alpha  occ. eigenvalues --  -10.19332 -10.19112 -10.17535  -1.11210  -1.09878
 Alpha  occ. eigenvalues --   -1.03684  -1.02200  -1.01901  -0.99364  -0.97937
 Alpha  occ. eigenvalues --   -0.97735  -0.96059  -0.91236  -0.83072  -0.82773
 Alpha  occ. eigenvalues --   -0.81968  -0.81606  -0.81412  -0.79896  -0.78597
 Alpha  occ. eigenvalues --   -0.76445  -0.75706  -0.74978  -0.74212  -0.73342
 Alpha  occ. eigenvalues --   -0.72579  -0.71224  -0.70486  -0.69296  -0.67529
 Alpha  occ. eigenvalues --   -0.67046  -0.65792  -0.63981  -0.62697  -0.61100
 Alpha  occ. eigenvalues --   -0.59935  -0.59537  -0.58168  -0.57658  -0.57049
 Alpha  occ. eigenvalues --   -0.55977  -0.55768  -0.54793  -0.54372  -0.53476
 Alpha  occ. eigenvalues --   -0.52513  -0.51771  -0.51411  -0.50635  -0.50488
 Alpha  occ. eigenvalues --   -0.49782  -0.49351  -0.48972  -0.48504  -0.47888
 Alpha  occ. eigenvalues --   -0.47476  -0.47234  -0.47011  -0.46676  -0.46197
 Alpha  occ. eigenvalues --   -0.45704  -0.44949  -0.44633  -0.44428  -0.43979
 Alpha  occ. eigenvalues --   -0.43792  -0.43661  -0.43508  -0.43025  -0.42839
 Alpha  occ. eigenvalues --   -0.42232  -0.42164  -0.41868  -0.41718  -0.41533
 Alpha  occ. eigenvalues --   -0.40886  -0.40827  -0.40366  -0.40196  -0.39687
 Alpha  occ. eigenvalues --   -0.39657  -0.39450  -0.39249  -0.38750  -0.38478
 Alpha  occ. eigenvalues --   -0.38223  -0.37960  -0.37704  -0.37428  -0.36687
 Alpha  occ. eigenvalues --   -0.35865  -0.35579  -0.34911  -0.34572  -0.34235
 Alpha  occ. eigenvalues --   -0.34104  -0.33601  -0.33379  -0.32845  -0.31415
 Alpha  occ. eigenvalues --   -0.30838  -0.30627  -0.30261  -0.29039  -0.28705
 Alpha  occ. eigenvalues --   -0.27472  -0.26808  -0.26193  -0.25801  -0.24620
 Alpha  occ. eigenvalues --   -0.24249  -0.24121  -0.23400  -0.21866  -0.18680
 Alpha virt. eigenvalues --   -0.11440  -0.07127  -0.05364  -0.01489  -0.00859
 Alpha virt. eigenvalues --    0.00577   0.01272   0.01488   0.02063   0.03595
 Alpha virt. eigenvalues --    0.04088   0.04373   0.04614   0.05206   0.05302

 Mulliken charges:
               1
     1  O   -0.205631
     2  O   -0.127249
     3  O   -0.265291
     4  O   -0.253521
     5  O   -0.166070
     6  O   -0.196059
     7  N   -0.100767
     8  N   -0.050316
     9  N   -0.040833
    10  N   -0.355937
    11  C    0.167532
    12  C    0.092146
    13  C   -0.102927
    14  C   -0.118372
    15  C   -0.134971
    16  C    0.041473
    17  C   -0.128747
    18  C    0.087086
    19  C   -0.072638
    20  C   -0.084029
    21  C    0.098241
    22  C    0.110801
    23  C   -0.131721
    24  C    0.027719
    25  C    0.109194
    26  C   -0.144066
    27  C   -0.042020
    28  C    0.071226
    29  C   -0.000754
    30  C   -0.085874
    31  C    0.084554
    32  C    0.161524
    33  C   -0.148083
    34  C    0.141017
    35  C    0.119842
    36  C    0.097679
    37  C    0.167734
    38  C    0.085846
    39  C   -0.203713
    40  C    0.168054
    41  C   -0.103134
    42  C    0.053229
    43  C   -0.004004
    44  H   -0.014561
    45  H    0.004170
    46  H    0.009451
    47  H    0.136087
    48  H    0.043494
    49  H    0.018500
    50  H    0.010171
    51  H   -0.045450
    52  H    0.031020
    53  H    0.047679
    54  H    0.035120
    55  H   -0.000325
    56  H    0.040460
    57  H    0.032492
    58  H    0.109245
    59  H    0.029646
    60  H    0.192206
    61  H    0.016879
    62  H    0.049195
    63  H    0.038429
    64  H    0.033088
    65  H    0.007591
    66  H    0.016673
    67  H    0.050111
    68  H    0.021756
    69  H    0.003256
    70  H   -0.074482
    71  H    0.017725
    72  H    0.163534
    73  H    0.005495
    74  H    0.039537
    75  H    0.032016
    76  H    0.068847
    77  H    0.185551
    78  H    0.053732
    79  H   -0.026512
 Sum of Mulliken charges =  -0.00000

 Dipole moment (field-independent basis, Debye):
    X=             -0.3900    Y=              0.9061    Z=              1.9934  Tot=              2.2241
 Quadrupole moment (field-independent basis, Debye-Ang):
   XX=           -225.7443   YY=           -247.8459   ZZ=           -267.7998
   XY=             -2.8088   XZ=             38.1102   YZ=              0.0146

 Normal termination of Gaussian 16 at Tue Sep 17 09:10:27 2019.
