 Gaussian 16, Revision A.03,
 Gaussian 16:  ES64L-G16RevA.03 25-Dec-2016

 --------------------------
 # td=(NStates=1) B3LYP/SVP
 --------------------------

 --
 TD
 --
 Symbolic Z-matrix:
 Charge =  0 Multiplicity = 1

                         Standard orientation:
 ---------------------------------------------------------------------
 Center     Atomic      Atomic             Coordinates (Angstroms)
 Number     Number       Type             X           Y           Z
 ---------------------------------------------------------------------
      1          8           0        5.417246   -0.030991   -3.276283
      2          8           0       -3.023443   -3.008096    3.041515
      3          8           0       -3.251110   -0.782462    3.075352
      4          8           0       -1.163280    7.083033    1.755680
      5          8           0       -0.304150    6.939000   -0.381463
      6          8           0       -1.930421   -3.902872   -0.136423
      7          7           0        2.433260    0.950484    0.641724
      8          7           0        4.438621   -0.651892   -1.293126
      9          7           0       -1.864553    0.730591   -0.361782
     10          7           0       -2.787644   -1.746555   -0.506876
     11          6           0        4.777562   -1.405909   -0.031558
     12          6           0        4.379498   -0.566355    1.194501
     13          6           0        2.977242   -0.136565    1.394633
     14          6           0        1.954686   -0.777489    2.066481
     15          6           0        0.735518   -0.067739    1.690762
     16          6           0        1.033709    0.934762    0.798569
     17          6           0        6.194464   -1.516427   -0.197578
     18          6           0       -0.596552   -0.300136    2.278215
     19          6           0        6.745604   -0.970050   -1.339083
     20          6           0        0.318790    1.862250    0.121574
     21          6           0       -1.079438    1.924742   -0.289426
     22          6           0        5.451536   -0.506719   -2.185250
     23          6           0       -1.965368    2.963436   -0.765356
     24          6           0        2.111692   -1.869327    3.070558
     25          6           0        7.068120   -2.208062    0.892227
     26          6           0       -3.101492    2.450956   -1.278731
     27          6           0       -1.172678   -1.769049    2.510581
     28          6           0       -3.133169    1.066433   -0.980870
     29          6           0       -1.412950    4.480864   -0.883435
     30          6           0        8.032927   -0.710925   -2.062142
     31          6           0       -1.559602    5.107655    0.497269
     32          6           0       -4.231175    3.127121   -2.023279
     33          6           0       -4.071994    0.086393   -1.279804
     34          6           0       -2.580143   -1.753664    2.942988
     35          6           0       -3.923034   -1.314721   -1.068960
     36          6           0        9.336041   -0.915967   -1.404936
     37          6           0       -1.014569    6.490602    0.535128
     38          6           0       -4.798096   -2.425935   -1.473522
     39          6           0       -4.138922   -3.616415   -1.080210
     40          6           0       -2.870899   -3.150924   -0.538133
     41          6           0       -6.189279   -2.202228   -1.919680
     42          6           0       -4.539195   -5.048452   -1.140970
     43          6           0       -7.055297   -3.150019   -2.489876
     44          1           0        4.178367   -2.323551    0.108512
     45          1           0        4.872533    0.346969    1.168615
     46          1           0        4.670924   -1.136872    2.026485
     47          1           0        3.067567    1.588005   -0.141142
     48          1           0        3.456419   -0.453679   -1.563562
     49          1           0       -0.431673    0.113275    3.326576
     50          1           0       -1.312385    0.215866    1.766477
     51          1           0        0.953836    2.829434    0.006287
     52          1           0        3.219745   -2.254365    3.271060
     53          1           0        1.865896   -1.881416    4.238547
     54          1           0        1.562226   -2.860169    2.735797
     55          1           0        6.641374   -3.101789    1.413516
     56          1           0        7.494646   -1.346647    1.676421
     57          1           0        8.023145   -2.786495    0.398768
     58          1           0       -1.118845   -2.447041    1.494052
     59          1           0       -0.398485   -2.245670    3.257396
     60          1           0       -1.729245   -0.304883   -0.416293
     61          1           0       -2.130740    4.797394   -1.614637
     62          1           0       -0.305102    4.481495   -1.379177
     63          1           0        7.945304   -0.315874   -3.007606
     64          1           0       -0.970390    4.650320    1.299248
     65          1           0       -2.784388    4.941918    0.764958
     66          1           0       -3.872234    4.124957   -2.291381
     67          1           0       -5.174727    3.384583   -1.278856
     68          1           0       -4.516356    2.605794   -3.026378
     69          1           0       -4.927281    0.404294   -1.629459
     70          1           0        9.430660   -1.131133   -0.299329
     71          1           0       10.126288   -0.841101   -2.284394
     72          1           0       -4.011693   -2.841561    3.202893
     73          1           0       -6.349101   -1.173230   -1.853340
     74          1           0       -5.475735   -5.149509   -0.527512
     75          1           0       -4.548167   -5.303550   -2.132550
     76          1           0       -3.704787   -5.714674   -0.726598
     77          1           0       -0.723814    7.915278    1.811862
     78          1           0       -8.037726   -2.644283   -2.710297
     79          1           0       -6.583792   -4.174172   -2.435677
 ---------------------------------------------------------------------

 SCF Done:  E(RB3LYP) =  -1947.83144483     A.U. after   20 cycles

 Excitation energies and oscillator strengths:

 Excited State   1:      Singlet-A      1.8978 eV  653.29 nm  f=0.4482  <S**2>=0.000
     154 ->156         0.17214
     155 ->156         0.68800
     155 <-156        -0.14040
 This state for optimization and/or second-order correction.
 Total Energy, E(TD-HF/TD-DFT) =  -1947.76170060
 Copying the excited state density for this state as the 1-particle RhoCI density.

 The electronic state is 1-A.
 Alpha  occ. eigenvalues --  -19.19056 -19.16857 -19.13333 -19.10974 -19.10531
 Alpha  occ. eigenvalues --  -19.09892 -14.39333 -14.35692 -14.35126 -14.28837
 Alpha  occ. eigenvalues --  -10.33161 -10.29763 -10.28479 -10.25880 -10.25627
 Alpha  occ. eigenvalues --  -10.25019 -10.24177 -10.23869 -10.23163 -10.23093
 Alpha  occ. eigenvalues --  -10.23006 -10.22961 -10.22941 -10.22489 -10.22391
 Alpha  occ. eigenvalues --  -10.22306 -10.22169 -10.22163 -10.21724 -10.21452
 Alpha  occ. eigenvalues --  -10.21197 -10.20881 -10.20853 -10.20675 -10.20391
 Alpha  occ. eigenvalues --  -10.20351 -10.20249 -10.20053 -10.19866 -10.19379
 Alpha  occ. eigenvalues --  -10.18913 -10.18271 -10.17941  -1.09581  -1.08935
 Alpha  occ. eigenvalues --   -1.03803  -1.00444  -0.99777  -0.98830  -0.97125
 Alpha  occ. eigenvalues --   -0.95328  -0.94115  -0.91419  -0.82622  -0.81907
 Alpha  occ. eigenvalues --   -0.81056  -0.80690  -0.79871  -0.79567  -0.77931
 Alpha  occ. eigenvalues --   -0.77303  -0.75521  -0.74919  -0.74253  -0.72068
 Alpha  occ. eigenvalues --   -0.70953  -0.69585  -0.69123  -0.68754  -0.68478
 Alpha  occ. eigenvalues --   -0.66786  -0.66591  -0.64225  -0.61234  -0.60812
 Alpha  occ. eigenvalues --   -0.60558  -0.58867  -0.57795  -0.56765  -0.56164
 Alpha  occ. eigenvalues --   -0.55810  -0.54972  -0.54102  -0.53591  -0.53113
 Alpha  occ. eigenvalues --   -0.52286  -0.51181  -0.50895  -0.50328  -0.49341
 Alpha  occ. eigenvalues --   -0.48606  -0.48273  -0.47939  -0.47348  -0.46996
 Alpha  occ. eigenvalues --   -0.46745  -0.46658  -0.46381  -0.46154  -0.45851
 Alpha  occ. eigenvalues --   -0.45455  -0.44931  -0.44347  -0.44004  -0.43359
 Alpha  occ. eigenvalues --   -0.43189  -0.42875  -0.42546  -0.42246  -0.41979
 Alpha  occ. eigenvalues --   -0.41594  -0.41233  -0.41103  -0.40828  -0.40530
 Alpha  occ. eigenvalues --   -0.40282  -0.40205  -0.39983  -0.39780  -0.39586
 Alpha  occ. eigenvalues --   -0.39316  -0.39218  -0.38958  -0.38909  -0.38425
 Alpha  occ. eigenvalues --   -0.38212  -0.37700  -0.37384  -0.36904  -0.36513
 Alpha  occ. eigenvalues --   -0.36271  -0.35704  -0.35494  -0.34592  -0.34096
 Alpha  occ. eigenvalues --   -0.33832  -0.32923  -0.32907  -0.32188  -0.31125
 Alpha  occ. eigenvalues --   -0.30849  -0.30625  -0.28713  -0.28584  -0.27415
 Alpha  occ. eigenvalues --   -0.27038  -0.26868  -0.25838  -0.25512  -0.24749
 Alpha  occ. eigenvalues --   -0.24434  -0.23758  -0.23166  -0.21978  -0.18679
 Alpha virt. eigenvalues --   -0.11512  -0.07503  -0.06948  -0.01921  -0.01279
 Alpha virt. eigenvalues --    0.00145   0.00219   0.01285   0.02347   0.02587
 Alpha virt. eigenvalues --    0.02890   0.03358   0.04533   0.04850   0.05239

 Mulliken charges:
               1
     1  O   -0.197861
     2  O   -0.183920
     3  O   -0.215728
     4  O   -0.178223
     5  O   -0.252920
     6  O   -0.256757
     7  N   -0.234000
     8  N   -0.235709
     9  N   -0.179300
    10  N   -0.287120
    11  C    0.173706
    12  C    0.245498
    13  C   -0.075408
    14  C   -0.020004
    15  C   -0.094515
    16  C    0.182639
    17  C   -0.168559
    18  C    0.120930
    19  C   -0.056586
    20  C   -0.137682
    21  C    0.108069
    22  C    0.126754
    23  C   -0.132835
    24  C   -0.069259
    25  C   -0.046653
    26  C   -0.106854
    27  C   -0.124297
    28  C    0.107384
    29  C    0.112620
    30  C    0.007297
    31  C   -0.048323
    32  C    0.046656
    33  C   -0.014577
    34  C    0.144735
    35  C    0.085913
    36  C   -0.057967
    37  C    0.170210
    38  C    0.001035
    39  C   -0.205842
    40  C    0.159778
    41  C   -0.029164
    42  C    0.126707
    43  C   -0.001466
    44  H    0.026571
    45  H   -0.036179
    46  H   -0.019516
    47  H    0.192608
    48  H    0.127185
    49  H    0.018777
    50  H   -0.012370
    51  H    0.013132
    52  H    0.008508
    53  H    0.049539
    54  H    0.060760
    55  H    0.031510
    56  H    0.065054
    57  H    0.050349
    58  H    0.112036
    59  H    0.037898
    60  H    0.155873
    61  H   -0.003753
    62  H    0.061895
    63  H   -0.002751
    64  H    0.054555
    65  H    0.077103
    66  H    0.001201
    67  H    0.056346
    68  H    0.057066
    69  H   -0.114044
    70  H    0.058597
    71  H    0.061522
    72  H    0.182796
    73  H   -0.036348
    74  H    0.045642
    75  H    0.017986
    76  H    0.032783
    77  H    0.172956
    78  H    0.048536
    79  H    0.037773
 Sum of Mulliken charges =  -0.00000

 Dipole moment (field-independent basis, Debye):
    X=              0.6091    Y=              2.2220    Z=              3.1624  Tot=              3.9126
 Quadrupole moment (field-independent basis, Debye-Ang):
   XX=           -222.7134   YY=           -245.9379   ZZ=           -262.7016
   XY=            -11.6358   XZ=             30.6051   YZ=              4.1781

 Normal termination of Gaussian 16 at Mon Oct  7 10:39:12 2019.
