 Gaussian 16, Revision A.03,
 Gaussian 16:  ES64L-G16RevA.03 25-Dec-2016

 --------------------------
 # td=(NStates=1) B3LYP/SVP
 --------------------------

 --
 TD
 --
 Symbolic Z-matrix:
 Charge =  0 Multiplicity = 1

                         Standard orientation:
 ---------------------------------------------------------------------
 Center     Atomic      Atomic             Coordinates (Angstroms)
 Number     Number       Type             X           Y           Z
 ---------------------------------------------------------------------
      1          8           0       -3.245793   -1.144182   -2.955893
      2          8           0        3.032029    2.862955    3.051796
      3          8           0        3.654154    1.228881    4.417563
      4          8           0        7.831710   -1.148535   -0.837551
      5          8           0        6.850633   -2.638943   -2.161598
      6          8           0       -2.648909    1.395725    1.698449
      7          7           0       -0.256556   -2.437357    0.657904
      8          7           0       -2.537835   -1.215655   -0.734950
      9          7           0        1.042021    0.114086   -0.832196
     10          7           0       -1.153670    1.399569   -0.061937
     11          6           0       -3.248015   -1.448568    0.549896
     12          6           0       -2.552195   -2.491889    1.389291
     13          6           0       -1.198689   -2.177634    1.596621
     14          6           0       -0.534944   -1.594422    2.752953
     15          6           0        0.837311   -1.505124    2.375077
     16          6           0        1.011015   -1.977932    1.062751
     17          6           0       -4.580650   -1.822103    0.090741
     18          6           0        1.941839   -0.763802    3.080994
     19          6           0       -4.741914   -1.951915   -1.224664
     20          6           0        2.047152   -1.903668    0.062443
     21          6           0        2.044248   -0.859288   -0.715328
     22          6           0       -3.386221   -1.441196   -1.800252
     23          6           0        2.988479   -0.548924   -1.785820
     24          6           0       -1.150457   -0.917211    3.848818
     25          6           0       -5.788200   -2.168680    1.154528
     26          6           0        2.541849    0.645260   -2.371210
     27          6           0        1.915268    0.778476    2.760598
     28          6           0        1.326159    1.042798   -1.780116
     29          6           0        4.282675   -1.330763   -2.066733
     30          6           0       -5.877480   -2.162795   -2.150182
     31          6           0        5.455498   -0.943948   -1.164733
     32          6           0        3.208998    1.431576   -3.455813
     33          6           0        0.425945    2.065425   -1.831711
     34          6           0        2.980825    1.553444    3.489657
     35          6           0       -0.716688    2.245040   -1.012422
     36          6           0       -6.995807   -2.903965   -1.976262
     37          6           0        6.706653   -1.654902   -1.461080
     38          6           0       -1.544722    3.449449   -0.883354
     39          6           0       -2.453915    3.234268    0.134479
     40          6           0       -2.123067    2.009177    0.780475
     41          6           0       -1.405064    4.716085   -1.764026
     42          6           0       -3.466760    4.246133    0.723093
     43          6           0       -2.194425    5.864026   -1.925001
     44          1           0       -3.299882   -0.539958    1.240938
     45          1           0       -2.781363   -3.332904    0.778572
     46          1           0       -3.095027   -2.639456    2.451321
     47          1           0       -0.472662   -2.950168   -0.283935
     48          1           0       -1.684534   -0.554964   -0.782656
     49          1           0        1.920212   -0.916971    4.273579
     50          1           0        2.923046   -1.165109    2.877392
     51          1           0        2.664353   -2.759308   -0.254461
     52          1           0       -1.752589   -1.662868    4.561202
     53          1           0       -0.410284   -0.202758    4.273941
     54          1           0       -1.944147   -0.343014    3.574654
     55          1           0       -5.658400   -1.622875    2.073953
     56          1           0       -5.741121   -3.421772    1.242654
     57          1           0       -6.712170   -1.888043    0.691957
     58          1           0        2.181502    0.687858    1.704771
     59          1           0        0.881093    1.114756    2.794782
     60          1           0        0.192081    0.139904   -0.238340
     61          1           0        4.505614   -1.009024   -3.129391
     62          1           0        4.204624   -2.409918   -2.063707
     63          1           0       -5.463762   -1.723601   -3.253675
     64          1           0        5.168816   -1.105430   -0.194356
     65          1           0        5.445445    0.342099   -1.236312
     66          1           0        4.060402    1.141836   -3.991296
     67          1           0        3.923242    2.420637   -3.127316
     68          1           0        2.335531    1.702819   -4.209390
     69          1           0        0.517294    2.855579   -2.631594
     70          1           0       -7.353851   -3.418217   -1.000757
     71          1           0       -7.683505   -2.977086   -2.858567
     72          1           0        3.777704    3.377791    3.722867
     73          1           0       -0.499940    4.816824   -2.561511
     74          1           0       -4.611864    4.272697   -0.049169
     75          1           0       -3.868862    3.648818    1.710791
     76          1           0       -3.140413    5.232223    1.049483
     77          1           0        8.465982   -1.629581   -1.290251
     78          1           0       -1.848426    6.603099   -2.520582
     79          1           0       -3.120670    6.169826   -1.151704
 ---------------------------------------------------------------------

 SCF Done:  E(RB3LYP) =  -1947.80320105     A.U. after   19 cycles

 Excitation energies and oscillator strengths:

 Excited State   1:      Singlet-A      0.8621 eV 1438.09 nm  f=0.0041  <S**2>=0.000
     155 ->156         0.70383
 This state for optimization and/or second-order correction.
 Total Energy, E(TD-HF/TD-DFT) =  -1947.77151788
 Copying the excited state density for this state as the 1-particle RhoCI density.

 The electronic state is 1-A.
 Alpha  occ. eigenvalues --  -19.18611 -19.17540 -19.14859 -19.13502 -19.12753
 Alpha  occ. eigenvalues --  -19.08723 -14.37708 -14.37450 -14.33516 -14.30936
 Alpha  occ. eigenvalues --  -10.34131 -10.31684 -10.28808 -10.26826 -10.26811
 Alpha  occ. eigenvalues --  -10.25662 -10.25107 -10.23944 -10.23900 -10.23882
 Alpha  occ. eigenvalues --  -10.23799 -10.23414 -10.23309 -10.23045 -10.22971
 Alpha  occ. eigenvalues --  -10.22199 -10.22051 -10.21983 -10.21650 -10.21477
 Alpha  occ. eigenvalues --  -10.21029 -10.20487 -10.20406 -10.20293 -10.20156
 Alpha  occ. eigenvalues --  -10.19851 -10.19691 -10.19459 -10.19303 -10.18099
 Alpha  occ. eigenvalues --  -10.17948 -10.17286 -10.17109  -1.11728  -1.08188
 Alpha  occ. eigenvalues --   -1.04080  -1.01965  -1.01546  -1.00648  -0.98586
 Alpha  occ. eigenvalues --   -0.96578  -0.94218  -0.91827  -0.84952  -0.83862
 Alpha  occ. eigenvalues --   -0.80750  -0.80522  -0.79830  -0.79349  -0.79150
 Alpha  occ. eigenvalues --   -0.77677  -0.76368  -0.75198  -0.73858  -0.73117
 Alpha  occ. eigenvalues --   -0.71101  -0.70443  -0.70221  -0.68363  -0.67673
 Alpha  occ. eigenvalues --   -0.66593  -0.65503  -0.63760  -0.61696  -0.60780
 Alpha  occ. eigenvalues --   -0.59218  -0.58629  -0.58514  -0.57876  -0.56846
 Alpha  occ. eigenvalues --   -0.55989  -0.55170  -0.54637  -0.53874  -0.53451
 Alpha  occ. eigenvalues --   -0.52944  -0.52409  -0.51049  -0.50412  -0.50169
 Alpha  occ. eigenvalues --   -0.49831  -0.49140  -0.48747  -0.48531  -0.48249
 Alpha  occ. eigenvalues --   -0.47410  -0.47049  -0.46815  -0.46399  -0.45897
 Alpha  occ. eigenvalues --   -0.45739  -0.45205  -0.45071  -0.44653  -0.44594
 Alpha  occ. eigenvalues --   -0.44278  -0.43514  -0.43456  -0.42404  -0.42229
 Alpha  occ. eigenvalues --   -0.41736  -0.41317  -0.41176  -0.41100  -0.40975
 Alpha  occ. eigenvalues --   -0.40773  -0.40524  -0.40425  -0.39994  -0.39632
 Alpha  occ. eigenvalues --   -0.38997  -0.38927  -0.38458  -0.38077  -0.37731
 Alpha  occ. eigenvalues --   -0.37271  -0.37161  -0.37064  -0.36821  -0.36507
 Alpha  occ. eigenvalues --   -0.36472  -0.35989  -0.35297  -0.34865  -0.34097
 Alpha  occ. eigenvalues --   -0.33776  -0.33478  -0.32659  -0.32355  -0.32000
 Alpha  occ. eigenvalues --   -0.31547  -0.30419  -0.29988  -0.29733  -0.29106
 Alpha  occ. eigenvalues --   -0.28235  -0.27685  -0.26614  -0.25007  -0.24539
 Alpha  occ. eigenvalues --   -0.23832  -0.23240  -0.22775  -0.22614  -0.19218
 Alpha virt. eigenvalues --   -0.13675  -0.08766  -0.03250  -0.03193  -0.02592
 Alpha virt. eigenvalues --    0.00094   0.01015   0.01187   0.01752   0.02912
 Alpha virt. eigenvalues --    0.02963   0.03405   0.03736   0.04199   0.04371

 Mulliken charges:
               1
     1  O   -0.222524
     2  O   -0.290568
     3  O   -0.202013
     4  O   -0.162500
     5  O   -0.227185
     6  O   -0.194846
     7  N   -0.112686
     8  N   -0.258988
     9  N   -0.130724
    10  N   -0.349066
    11  C    0.061165
    12  C    0.197645
    13  C   -0.067740
    14  C   -0.106832
    15  C   -0.090487
    16  C    0.021403
    17  C   -0.189169
    18  C    0.012990
    19  C   -0.075295
    20  C   -0.147171
    21  C    0.160389
    22  C    0.142933
    23  C   -0.082693
    24  C    0.126076
    25  C    0.040919
    26  C   -0.064806
    27  C    0.012089
    28  C    0.179906
    29  C    0.089548
    30  C   -0.040820
    31  C   -0.009320
    32  C   -0.002789
    33  C   -0.119553
    34  C    0.167495
    35  C    0.105129
    36  C   -0.072407
    37  C    0.166787
    38  C    0.069655
    39  C   -0.152285
    40  C    0.195456
    41  C   -0.078351
    42  C   -0.055996
    43  C   -0.027409
    44  H    0.061787
    45  H   -0.048987
    46  H    0.016841
    47  H    0.150177
    48  H    0.162127
    49  H    0.028385
    50  H   -0.010107
    51  H    0.012709
    52  H    0.006610
    53  H    0.012990
    54  H   -0.015875
    55  H    0.021120
    56  H    0.055261
    57  H    0.028264
    58  H    0.024046
    59  H    0.055958
    60  H    0.180622
    61  H    0.027462
    62  H    0.026642
    63  H    0.065649
    64  H    0.022068
    65  H    0.070917
    66  H    0.001277
    67  H    0.043777
    68  H    0.063105
    69  H   -0.005608
    70  H    0.041858
    71  H    0.032721
    72  H    0.234971
    73  H    0.038232
    74  H    0.059062
    75  H    0.052854
    76  H    0.057342
    77  H    0.145105
    78  H    0.005297
    79  H    0.059980
 Sum of Mulliken charges =  -0.00000

 Dipole moment (field-independent basis, Debye):
    X=              3.4740    Y=              3.3279    Z=             -1.7029  Tot=              5.1033
 Quadrupole moment (field-independent basis, Debye-Ang):
   XX=           -246.2685   YY=           -235.5571   ZZ=           -272.0292
   XY=              7.3084   XZ=            -25.0756   YZ=             -9.2833

 Normal termination of Gaussian 16 at Sun Jul 28 20:51:31 2019.
