 Gaussian 16, Revision A.03,
 Gaussian 16:  ES64L-G16RevA.03 25-Dec-2016

 --------------------------
 # td=(NStates=1) B3LYP/SVP
 --------------------------

 --
 TD
 --
 Symbolic Z-matrix:
 Charge =  0 Multiplicity = 1

                         Standard orientation:
 ---------------------------------------------------------------------
 Center     Atomic      Atomic             Coordinates (Angstroms)
 Number     Number       Type             X           Y           Z
 ---------------------------------------------------------------------
      1          8           0        5.314412   -0.094172   -3.254658
      2          8           0       -2.930024   -3.016548    3.154706
      3          8           0       -3.270009   -0.802952    3.218425
      4          8           0       -1.629572    7.097466    1.680439
      5          8           0       -0.863806    7.124185   -0.440972
      6          8           0       -1.769182   -3.916673   -0.022325
      7          7           0        2.416359    0.871392    0.502492
      8          7           0        4.447009   -0.627941   -1.285526
      9          7           0       -1.871968    0.670757   -0.499729
     10          7           0       -2.576121   -1.852520   -0.534285
     11          6           0        4.798259   -1.165363   -0.023541
     12          6           0        4.364803   -0.393309    1.176044
     13          6           0        2.920521   -0.088879    1.328778
     14          6           0        2.001805   -0.752976    2.108472
     15          6           0        0.796781   -0.031696    1.754777
     16          6           0        1.031143    0.901881    0.759147
     17          6           0        6.366828   -1.274004   -0.184817
     18          6           0       -0.611675   -0.227236    2.520377
     19          6           0        6.591649   -0.833606   -1.341589
     20          6           0        0.238397    1.921671    0.172659
     21          6           0       -1.134843    1.794615   -0.306072
     22          6           0        5.455967   -0.437694   -2.131180
     23          6           0       -1.927722    2.869323   -0.966222
     24          6           0        2.259337   -1.682910    3.255779
     25          6           0        7.141742   -1.917686    0.940879
     26          6           0       -3.052907    2.377407   -1.310629
     27          6           0       -1.180103   -1.702490    2.383141
     28          6           0       -3.050998    0.926546   -1.051384
     29          6           0       -1.533477    4.295044   -0.918050
     30          6           0        7.874392   -0.683686   -2.031125
     31          6           0       -1.755473    5.010335    0.427869
     32          6           0       -4.215120    3.126480   -1.998680
     33          6           0       -4.015839   -0.066231   -1.410620
     34          6           0       -2.528305   -1.720598    3.055920
     35          6           0       -3.722801   -1.433668   -1.075319
     36          6           0        9.122061   -0.620255   -1.492946
     37          6           0       -1.408724    6.548148    0.450307
     38          6           0       -4.654984   -2.560248   -1.344004
     39          6           0       -4.002987   -3.703292   -0.971190
     40          6           0       -2.658696   -3.276776   -0.436451
     41          6           0       -5.893023   -2.477078   -2.082729
     42          6           0       -4.269642   -5.140674   -1.227370
     43          6           0       -6.765994   -3.402493   -2.415654
     44          1           0        4.648301   -2.267559    0.218880
     45          1           0        5.082613    0.514568    1.248084
     46          1           0        4.662851   -0.972014    1.986929
     47          1           0        2.841956    1.508559   -0.143726
     48          1           0        3.431857   -0.565567   -1.564520
     49          1           0       -0.462567    0.110804    3.673300
     50          1           0       -1.313357    0.516460    2.130819
     51          1           0        0.709591    2.836959   -0.173408
     52          1           0        3.404526   -1.511424    3.603917
     53          1           0        1.399161   -1.605810    4.033048
     54          1           0        2.231155   -2.936152    2.671901
     55          1           0        6.714660   -2.714032    1.500166
     56          1           0        7.458570   -1.181543    1.742424
     57          1           0        7.990951   -2.425005    0.588896
     58          1           0       -1.090513   -2.015639    1.328463
     59          1           0       -0.581306   -2.151842    3.078065
     60          1           0       -1.437416   -0.400629   -0.235681
     61          1           0       -2.213363    4.833310   -1.697087
     62          1           0       -0.408615    4.255539   -1.187780
     63          1           0        7.779028   -0.709529   -3.165970
     64          1           0       -1.456594    4.563961    1.166144
     65          1           0       -2.740777    5.056049    0.519214
     66          1           0       -3.861751    4.171337   -2.560004
     67          1           0       -5.134682    3.190562   -1.137162
     68          1           0       -4.653251    2.222019   -2.782845
     69          1           0       -4.952896   -0.033624   -1.795253
     70          1           0        9.347020   -0.387886   -0.417819
     71          1           0       10.114501   -0.570624   -2.077509
     72          1           0       -3.876228   -3.070723    3.592032
     73          1           0       -6.004357   -1.609521   -2.581858
     74          1           0       -5.128482   -5.547952   -0.670778
     75          1           0       -4.525937   -5.186540   -2.329621
     76          1           0       -3.367698   -5.979270   -0.935928
     77          1           0       -1.277181    7.972078    1.809096
     78          1           0       -7.602017   -3.160040   -2.917384
     79          1           0       -6.931477   -4.383164   -2.170079
 ---------------------------------------------------------------------

 SCF Done:  E(RB3LYP) =  -1947.78323957     A.U. after   16 cycles

 Excitation energies and oscillator strengths:

 Excited State   1:      Singlet-A      2.1286 eV  582.46 nm  f=0.4470  <S**2>=0.000
     155 ->156         0.69912
     155 <-156        -0.11231
 This state for optimization and/or second-order correction.
 Total Energy, E(TD-HF/TD-DFT) =  -1947.70501418
 Copying the excited state density for this state as the 1-particle RhoCI density.

 The electronic state is 1-A.
 Alpha  occ. eigenvalues --  -19.18284 -19.16826 -19.13313 -19.11669 -19.10691
 Alpha  occ. eigenvalues --  -19.09785 -14.38370 -14.37203 -14.35271 -14.28608
 Alpha  occ. eigenvalues --  -10.32860 -10.30437 -10.27546 -10.26100 -10.25154
 Alpha  occ. eigenvalues --  -10.24363 -10.24271 -10.24186 -10.24064 -10.23252
 Alpha  occ. eigenvalues --  -10.22903 -10.22797 -10.22328 -10.21571 -10.21350
 Alpha  occ. eigenvalues --  -10.20770 -10.20749 -10.20350 -10.20295 -10.20136
 Alpha  occ. eigenvalues --  -10.20078 -10.19928 -10.19830 -10.19796 -10.19722
 Alpha  occ. eigenvalues --  -10.19586 -10.19439 -10.19304 -10.18967 -10.18837
 Alpha  occ. eigenvalues --  -10.18720 -10.18208 -10.17819  -1.09799  -1.07804
 Alpha  occ. eigenvalues --   -1.04867  -1.04041  -1.01655  -0.99484  -0.99167
 Alpha  occ. eigenvalues --   -0.98866  -0.95848  -0.91539  -0.83373  -0.83024
 Alpha  occ. eigenvalues --   -0.81743  -0.80986  -0.80927  -0.79420  -0.78354
 Alpha  occ. eigenvalues --   -0.77096  -0.76334  -0.75581  -0.74663  -0.72405
 Alpha  occ. eigenvalues --   -0.72036  -0.70329  -0.69513  -0.68521  -0.67310
 Alpha  occ. eigenvalues --   -0.66112  -0.65832  -0.63564  -0.62311  -0.61763
 Alpha  occ. eigenvalues --   -0.61118  -0.60050  -0.59018  -0.57994  -0.57298
 Alpha  occ. eigenvalues --   -0.56537  -0.55205  -0.54774  -0.54360  -0.53247
 Alpha  occ. eigenvalues --   -0.52709  -0.51722  -0.51035  -0.50836  -0.49823
 Alpha  occ. eigenvalues --   -0.49273  -0.48499  -0.48118  -0.47832  -0.47564
 Alpha  occ. eigenvalues --   -0.47331  -0.46960  -0.46444  -0.46223  -0.45667
 Alpha  occ. eigenvalues --   -0.45397  -0.45319  -0.45120  -0.44455  -0.43828
 Alpha  occ. eigenvalues --   -0.43445  -0.43247  -0.43188  -0.42733  -0.42511
 Alpha  occ. eigenvalues --   -0.42214  -0.41818  -0.41624  -0.41358  -0.40830
 Alpha  occ. eigenvalues --   -0.40724  -0.40514  -0.40007  -0.39963  -0.39661
 Alpha  occ. eigenvalues --   -0.39339  -0.38959  -0.38693  -0.38267  -0.38035
 Alpha  occ. eigenvalues --   -0.37749  -0.37599  -0.37112  -0.36862  -0.36219
 Alpha  occ. eigenvalues --   -0.35917  -0.35576  -0.35166  -0.34782  -0.34408
 Alpha  occ. eigenvalues --   -0.34196  -0.33585  -0.33261  -0.32340  -0.31628
 Alpha  occ. eigenvalues --   -0.31199  -0.30929  -0.28804  -0.28550  -0.27730
 Alpha  occ. eigenvalues --   -0.27146  -0.26899  -0.26610  -0.26122  -0.24956
 Alpha  occ. eigenvalues --   -0.24611  -0.24040  -0.23931  -0.22427  -0.18728
 Alpha virt. eigenvalues --   -0.10424  -0.06176  -0.04781  -0.00210   0.00278
 Alpha virt. eigenvalues --    0.00693   0.01112   0.01468   0.02327   0.02566
 Alpha virt. eigenvalues --    0.03503   0.04246   0.04562   0.04886   0.05202

 Mulliken charges:
               1
     1  O   -0.176746
     2  O   -0.233221
     3  O   -0.204973
     4  O   -0.198045
     5  O   -0.192751
     6  O   -0.139355
     7  N   -0.079606
     8  N   -0.147536
     9  N   -0.098948
    10  N   -0.325222
    11  C    0.033703
    12  C    0.228973
    13  C   -0.066052
    14  C   -0.062319
    15  C   -0.121154
    16  C    0.087486
    17  C   -0.158059
    18  C   -0.022197
    19  C   -0.070991
    20  C   -0.071292
    21  C    0.022647
    22  C    0.115356
    23  C   -0.110863
    24  C   -0.051956
    25  C    0.122718
    26  C   -0.079694
    27  C    0.084625
    28  C    0.169892
    29  C    0.050504
    30  C   -0.008472
    31  C    0.205685
    32  C   -0.063882
    33  C   -0.059929
    34  C    0.123652
    35  C    0.027143
    36  C   -0.085437
    37  C    0.119435
    38  C    0.064985
    39  C   -0.184882
    40  C    0.138106
    41  C    0.039230
    42  C    0.009552
    43  C    0.015500
    44  H    0.018640
    45  H   -0.004012
    46  H   -0.067230
    47  H    0.117115
    48  H    0.136626
    49  H    0.023635
    50  H    0.014231
    51  H   -0.016500
    52  H    0.057923
    53  H    0.065776
    54  H    0.053104
    55  H    0.002628
    56  H    0.037136
    57  H    0.009210
    58  H    0.100021
    59  H   -0.022799
    60  H    0.240048
    61  H    0.015406
    62  H    0.028538
    63  H    0.031521
    64  H   -0.065432
    65  H   -0.020848
    66  H    0.076266
    67  H    0.063832
    68  H    0.055456
    69  H   -0.082630
    70  H    0.021935
    71  H    0.039756
    72  H    0.204678
    73  H   -0.047287
    74  H    0.029632
    75  H    0.042865
    76  H    0.059375
    77  H    0.177045
    78  H   -0.017645
    79  H   -0.023624
 Sum of Mulliken charges =  -0.00000

 Dipole moment (field-independent basis, Debye):
    X=              0.0851    Y=              1.1652    Z=              3.9772  Tot=              4.1452
 Quadrupole moment (field-independent basis, Debye-Ang):
   XX=           -222.6611   YY=           -245.2299   ZZ=           -260.5092
   XY=             -2.6390   XZ=             32.1417   YZ=              5.8479

 Normal termination of Gaussian 16 at Fri Sep 20 10:50:55 2019.
