 Gaussian 16, Revision A.03,
 Gaussian 16:  ES64L-G16RevA.03 25-Dec-2016

 --------------------------
 # td=(NStates=1) B3LYP/SVP
 --------------------------

 --
 TD
 --
 Symbolic Z-matrix:
 Charge =  0 Multiplicity = 1

                         Standard orientation:
 ---------------------------------------------------------------------
 Center     Atomic      Atomic             Coordinates (Angstroms)
 Number     Number       Type             X           Y           Z
 ---------------------------------------------------------------------
      1          8           0       -3.375193   -1.561343   -2.842312
      2          8           0        3.043300    3.533735    2.932379
      3          8           0        3.801501    1.688922    4.129284
      4          8           0        7.638537   -1.799047   -0.442855
      5          8           0        6.524040   -3.387936   -1.731555
      6          8           0       -2.508913    1.879136    1.306317
      7          7           0       -0.457415   -2.191851    1.160415
      8          7           0       -2.664636   -1.209826   -0.579006
      9          7           0        1.168912   -0.011366   -0.770852
     10          7           0       -0.896261    1.470390   -0.328260
     11          6           0       -3.413341   -1.118841    0.726269
     12          6           0       -2.835990   -1.993398    1.883214
     13          6           0       -1.333196   -1.802007    2.038955
     14          6           0       -0.681385   -0.860631    2.986497
     15          6           0        0.680078   -0.902499    2.657006
     16          6           0        0.806156   -1.638108    1.482169
     17          6           0       -4.809719   -1.696603    0.332892
     18          6           0        1.819744   -0.098150    3.206104
     19          6           0       -4.903092   -2.026154   -0.991245
     20          6           0        1.975546   -1.960901    0.509096
     21          6           0        2.029012   -1.080281   -0.576369
     22          6           0       -3.528059   -1.526385   -1.561762
     23          6           0        2.976887   -0.934878   -1.694177
     24          6           0       -1.434478   -0.054707    3.939844
     25          6           0       -5.820825   -2.047713    1.427356
     26          6           0        2.495168    0.060460   -2.568270
     27          6           0        1.836366    1.370091    2.724738
     28          6           0        1.356130    0.784923   -1.958045
     29          6           0        4.169852   -1.828110   -1.826126
     30          6           0       -5.886834   -2.748890   -1.745431
     31          6           0        5.376553   -1.477504   -1.006659
     32          6           0        3.208106    0.673762   -3.847441
     33          6           0        0.643680    1.820857   -2.199437
     34          6           0        2.971700    2.141108    3.360210
     35          6           0       -0.454146    2.238981   -1.381513
     36          6           0       -6.789226   -3.600290   -1.430341
     37          6           0        6.510402   -2.320261   -1.134412
     38          6           0       -1.214868    3.503470   -1.557950
     39          6           0       -2.085038    3.547197   -0.496705
     40          6           0       -1.911776    2.173015    0.254288
     41          6           0       -0.946391    4.341699   -2.606889
     42          6           0       -3.202568    4.442055   -0.029260
     43          6           0       -1.586963    5.549100   -2.988873
     44          1           0       -3.407073   -0.018047    1.067279
     45          1           0       -3.071432   -3.021024    1.543008
     46          1           0       -3.446252   -1.887401    2.718539
     47          1           0       -0.548638   -2.920970    0.348960
     48          1           0       -1.984650   -0.330392   -0.515888
     49          1           0        1.521692   -0.253853    4.302767
     50          1           0        2.829809   -0.471490    2.977046
     51          1           0        2.396856   -3.018319    0.611216
     52          1           0       -2.041686   -0.772836    4.467090
     53          1           0       -0.641114    0.622486    4.540005
     54          1           0       -2.132975    0.681132    3.336357
     55          1           0       -5.756950   -1.104420    2.071105
     56          1           0       -5.535395   -3.125249    2.039659
     57          1           0       -6.656385   -2.013858    0.888751
     58          1           0        1.850595    1.407878    1.611974
     59          1           0        1.041580    1.952248    3.000893
     60          1           0        0.428758    0.424272    0.045903
     61          1           0        4.732464   -1.727757   -2.903061
     62          1           0        3.827194   -2.949288   -1.596275
     63          1           0       -5.680901   -2.323998   -3.031355
     64          1           0        5.020372   -1.489264    0.018024
     65          1           0        5.617185   -0.444051   -1.405717
     66          1           0        4.166512    0.170644   -4.192830
     67          1           0        3.409240    1.672017   -3.721643
     68          1           0        2.582417    0.379009   -4.875773
     69          1           0        0.809553    2.281728   -3.186391
     70          1           0       -7.000285   -4.032417   -0.430830
     71          1           0       -7.423150   -4.046576   -2.133309
     72          1           0        3.745621    3.921517    3.419094
     73          1           0       -0.050964    4.062054   -3.285089
     74          1           0       -4.096048    4.442379   -0.741756
     75          1           0       -3.312912    3.884772    1.000602
     76          1           0       -3.084341    5.544911   -0.055099
     77          1           0        8.315147   -2.470132   -0.517115
     78          1           0       -1.173920    6.246616   -3.753587
     79          1           0       -2.395205    5.916073   -2.415076
 ---------------------------------------------------------------------

 SCF Done:  E(RB3LYP) =  -1947.80017015     A.U. after   22 cycles

 Excitation energies and oscillator strengths:

 Excited State   1:      Singlet-A      0.5880 eV 2108.40 nm  f=0.0040  <S**2>=0.000
     155 ->156         0.70487
 This state for optimization and/or second-order correction.
 Total Energy, E(TD-HF/TD-DFT) =  -1947.77855979
 Copying the excited state density for this state as the 1-particle RhoCI density.

 The electronic state is 1-A.
 Alpha  occ. eigenvalues --  -19.18391 -19.16463 -19.14484 -19.14283 -19.13550
 Alpha  occ. eigenvalues --  -19.07749 -14.37794 -14.36636 -14.34608 -14.33474
 Alpha  occ. eigenvalues --  -10.33313 -10.32426 -10.30182 -10.27718 -10.27375
 Alpha  occ. eigenvalues --  -10.26614 -10.26162 -10.23984 -10.23726 -10.23531
 Alpha  occ. eigenvalues --  -10.23253 -10.22957 -10.22868 -10.22705 -10.22624
 Alpha  occ. eigenvalues --  -10.22122 -10.21913 -10.21848 -10.21471 -10.21422
 Alpha  occ. eigenvalues --  -10.20758 -10.20634 -10.20363 -10.20320 -10.20147
 Alpha  occ. eigenvalues --  -10.19914 -10.19655 -10.19639 -10.18948 -10.18635
 Alpha  occ. eigenvalues --  -10.17655 -10.17425 -10.16852  -1.08767  -1.06915
 Alpha  occ. eigenvalues --   -1.04046  -1.01145  -0.99501  -0.97726  -0.97358
 Alpha  occ. eigenvalues --   -0.96896  -0.94913  -0.90640  -0.84205  -0.83250
 Alpha  occ. eigenvalues --   -0.82852  -0.80983  -0.80517  -0.79217  -0.78056
 Alpha  occ. eigenvalues --   -0.76871  -0.76628  -0.75996  -0.74564  -0.72815
 Alpha  occ. eigenvalues --   -0.71664  -0.70803  -0.69364  -0.68661  -0.67337
 Alpha  occ. eigenvalues --   -0.66337  -0.65982  -0.63310  -0.62691  -0.60568
 Alpha  occ. eigenvalues --   -0.60124  -0.59656  -0.57988  -0.56807  -0.55713
 Alpha  occ. eigenvalues --   -0.55294  -0.55006  -0.54081  -0.53491  -0.52796
 Alpha  occ. eigenvalues --   -0.52251  -0.51616  -0.51354  -0.50157  -0.49948
 Alpha  occ. eigenvalues --   -0.49323  -0.49249  -0.48545  -0.48505  -0.47957
 Alpha  occ. eigenvalues --   -0.47568  -0.47184  -0.46752  -0.46319  -0.46171
 Alpha  occ. eigenvalues --   -0.45721  -0.45180  -0.44953  -0.44478  -0.44260
 Alpha  occ. eigenvalues --   -0.43565  -0.43131  -0.42815  -0.42501  -0.42091
 Alpha  occ. eigenvalues --   -0.41787  -0.41544  -0.41429  -0.41080  -0.41058
 Alpha  occ. eigenvalues --   -0.40344  -0.40241  -0.39964  -0.39668  -0.39283
 Alpha  occ. eigenvalues --   -0.39119  -0.39013  -0.38613  -0.38523  -0.37808
 Alpha  occ. eigenvalues --   -0.37636  -0.37453  -0.36922  -0.36855  -0.36558
 Alpha  occ. eigenvalues --   -0.36023  -0.35734  -0.34984  -0.34923  -0.34644
 Alpha  occ. eigenvalues --   -0.33583  -0.33297  -0.33103  -0.32485  -0.31829
 Alpha  occ. eigenvalues --   -0.31652  -0.30818  -0.30155  -0.29576  -0.29341
 Alpha  occ. eigenvalues --   -0.28371  -0.27730  -0.26336  -0.25110  -0.24108
 Alpha  occ. eigenvalues --   -0.23866  -0.23227  -0.22951  -0.22424  -0.18365
 Alpha virt. eigenvalues --   -0.13915  -0.08719  -0.04146  -0.03696  -0.02176
 Alpha virt. eigenvalues --   -0.00706   0.01749   0.01883   0.02335   0.03209
 Alpha virt. eigenvalues --    0.03580   0.04131   0.04564   0.04896   0.05160

 Mulliken charges:
               1
     1  O   -0.310036
     2  O   -0.249290
     3  O   -0.214783
     4  O   -0.224780
     5  O   -0.220532
     6  O   -0.231036
     7  N   -0.041568
     8  N   -0.211657
     9  N   -0.267360
    10  N   -0.311905
    11  C   -0.028343
    12  C    0.228278
    13  C   -0.101934
    14  C   -0.172206
    15  C   -0.092799
    16  C   -0.078425
    17  C   -0.235249
    18  C    0.082018
    19  C   -0.017479
    20  C   -0.129276
    21  C    0.180959
    22  C    0.167196
    23  C   -0.047283
    24  C    0.048076
    25  C    0.093535
    26  C   -0.079192
    27  C    0.057876
    28  C    0.182069
    29  C   -0.026138
    30  C   -0.023804
    31  C    0.047468
    32  C    0.027729
    33  C   -0.118708
    34  C    0.152330
    35  C    0.115627
    36  C   -0.050388
    37  C    0.147466
    38  C    0.170747
    39  C   -0.200690
    40  C    0.196782
    41  C   -0.128518
    42  C    0.014509
    43  C   -0.007301
    44  H    0.074781
    45  H   -0.024910
    46  H   -0.026547
    47  H    0.159551
    48  H    0.194196
    49  H    0.030988
    50  H    0.007941
    51  H    0.053164
    52  H    0.019094
    53  H    0.019830
    54  H    0.056617
    55  H    0.029305
    56  H    0.069411
    57  H   -0.005230
    58  H    0.035814
    59  H    0.006506
    60  H    0.273480
    61  H    0.032933
    62  H    0.053629
    63  H    0.058778
    64  H    0.044814
    65  H    0.051509
    66  H    0.022612
    67  H    0.028163
    68  H    0.053874
    69  H    0.003052
    70  H    0.015584
    71  H    0.008738
    72  H    0.161686
    73  H    0.016029
    74  H    0.048142
    75  H    0.078099
    76  H    0.031084
    77  H    0.175145
    78  H    0.045309
    79  H    0.004842
 Sum of Mulliken charges =  -0.00000

 Dipole moment (field-independent basis, Debye):
    X=              2.5271    Y=              3.3732    Z=             -0.8505  Tot=              4.2998
 Quadrupole moment (field-independent basis, Debye-Ang):
   XX=           -245.8533   YY=           -235.2573   ZZ=           -268.6330
   XY=             -0.0016   XZ=            -23.7098   YZ=            -21.5605

 Normal termination of Gaussian 16 at Sun Jul 28 15:10:13 2019.
