 Gaussian 16, Revision A.03,
 Gaussian 16:  ES64L-G16RevA.03 25-Dec-2016

 --------------------------
 # td=(NStates=1) B3LYP/SVP
 --------------------------

 --
 TD
 --
 Symbolic Z-matrix:
 Charge =  0 Multiplicity = 1

                         Standard orientation:
 ---------------------------------------------------------------------
 Center     Atomic      Atomic             Coordinates (Angstroms)
 Number     Number       Type             X           Y           Z
 ---------------------------------------------------------------------
      1          8           0       -3.223804   -1.253203   -2.778151
      2          8           0        3.160947    3.170297    3.173036
      3          8           0        3.758130    1.437479    4.375786
      4          8           0        7.620435   -1.539082   -0.561985
      5          8           0        6.738125   -2.750097   -2.376188
      6          8           0       -2.746420    1.704850    1.403399
      7          7           0       -0.241067   -2.367232    0.997711
      8          7           0       -2.628553   -1.255728   -0.526887
      9          7           0        1.150147    0.104416   -0.661625
     10          7           0       -1.092150    1.494601   -0.217259
     11          6           0       -3.268647   -1.370075    0.654314
     12          6           0       -2.562429   -2.317441    1.636608
     13          6           0       -1.140970   -2.036135    1.900858
     14          6           0       -0.538914   -1.130539    2.885504
     15          6           0        0.794177   -1.114337    2.603641
     16          6           0        0.996578   -1.847637    1.334461
     17          6           0       -4.656274   -1.835986    0.243500
     18          6           0        1.936814   -0.445797    3.264763
     19          6           0       -4.740317   -2.028178   -1.046649
     20          6           0        2.069389   -1.804881    0.424982
     21          6           0        2.131860   -0.876004   -0.683486
     22          6           0       -3.446650   -1.460943   -1.632965
     23          6           0        2.961475   -0.693881   -1.883484
     24          6           0       -1.260491   -0.394349    3.964527
     25          6           0       -5.637622   -2.227164    1.325388
     26          6           0        2.494458    0.399297   -2.544285
     27          6           0        1.842587    1.059971    2.958692
     28          6           0        1.224799    0.880552   -1.855983
     29          6           0        4.194521   -1.567884   -2.168915
     30          6           0       -5.824491   -2.414895   -1.985783
     31          6           0        5.299955   -1.121828   -1.201609
     32          6           0        3.000022    1.081725   -3.839795
     33          6           0        0.391379    1.967088   -2.099905
     34          6           0        3.002598    1.910366    3.505072
     35          6           0       -0.661177    2.215339   -1.257353
     36          6           0       -6.724755   -3.445321   -1.695257
     37          6           0        6.619033   -1.929424   -1.426111
     38          6           0       -1.493986    3.381996   -1.301826
     39          6           0       -2.437217    3.346200   -0.259999
     40          6           0       -2.120530    2.072832    0.436810
     41          6           0       -1.295924    4.491057   -2.282385
     42          6           0       -3.487857    4.209856    0.224037
     43          6           0       -1.911791    5.700541   -2.269941
     44          1           0       -3.361485   -0.312489    1.089449
     45          1           0       -2.589604   -3.218030    1.167927
     46          1           0       -3.137555   -2.463883    2.657076
     47          1           0       -0.242370   -2.860792   -0.003754
     48          1           0       -1.832873   -0.510129   -0.560420
     49          1           0        2.071126   -0.804169    4.348465
     50          1           0        3.091189   -0.837827    2.819332
     51          1           0        2.894904   -2.561668    0.366463
     52          1           0       -2.366570   -1.002460    4.341521
     53          1           0       -0.582180   -0.185230    4.831257
     54          1           0       -1.627496    0.457528    3.584983
     55          1           0       -5.646039   -1.605252    2.079834
     56          1           0       -5.688215   -3.329848    1.602577
     57          1           0       -6.688177   -2.157184    0.932108
     58          1           0        1.625257    1.283598    1.694155
     59          1           0        0.894744    1.468904    3.218786
     60          1           0        0.471038    0.482960   -0.170349
     61          1           0        4.570297   -1.362520   -3.341711
     62          1           0        3.730965   -2.554338   -2.045237
     63          1           0       -5.586258   -2.052144   -3.131691
     64          1           0        5.098006   -1.375668   -0.147803
     65          1           0        5.587779   -0.058640   -1.257350
     66          1           0        3.582990    0.139091   -4.617941
     67          1           0        3.796540    1.774769   -3.650614
     68          1           0        1.952086    1.364183   -4.312645
     69          1           0        0.759087    2.524323   -2.871959
     70          1           0       -6.760154   -3.806082   -0.648329
     71          1           0       -7.352978   -3.775956   -2.585599
     72          1           0        3.956197    3.440940    3.660953
     73          1           0       -0.587634    4.332669   -2.920394
     74          1           0       -4.182543    4.533617   -0.612929
     75          1           0       -3.745221    3.660409    1.061621
     76          1           0       -3.114516    5.271692    0.553775
     77          1           0        8.387376   -1.988159   -0.865856
     78          1           0       -1.930231    6.280186   -3.278136
     79          1           0       -2.723038    5.888513   -1.582881
 ---------------------------------------------------------------------

 SCF Done:  E(RB3LYP) =  -1947.78333959     A.U. after   19 cycles

 Excitation energies and oscillator strengths:

 Excited State   1:      Singlet-A      0.8569 eV 1446.93 nm  f=0.0086  <S**2>=0.000
     155 ->156         0.70347
 This state for optimization and/or second-order correction.
 Total Energy, E(TD-HF/TD-DFT) =  -1947.75184995
 Copying the excited state density for this state as the 1-particle RhoCI density.

 The electronic state is 1-A.
 Alpha  occ. eigenvalues --  -19.20485 -19.18927 -19.14573 -19.12643 -19.11309
 Alpha  occ. eigenvalues --  -19.08743 -14.38704 -14.37485 -14.32372 -14.30354
 Alpha  occ. eigenvalues --  -10.34392 -10.31976 -10.27784 -10.27424 -10.27034
 Alpha  occ. eigenvalues --  -10.26424 -10.25204 -10.24850 -10.24135 -10.23794
 Alpha  occ. eigenvalues --  -10.23666 -10.23488 -10.23428 -10.22203 -10.21333
 Alpha  occ. eigenvalues --  -10.21002 -10.20989 -10.20838 -10.20611 -10.20458
 Alpha  occ. eigenvalues --  -10.20347 -10.20136 -10.20115 -10.19830 -10.19573
 Alpha  occ. eigenvalues --  -10.19504 -10.19059 -10.18918 -10.18736 -10.18129
 Alpha  occ. eigenvalues --  -10.18098 -10.17647 -10.17640  -1.11056  -1.10343
 Alpha  occ. eigenvalues --   -1.04433  -1.02437  -1.00777  -0.99710  -0.98353
 Alpha  occ. eigenvalues --   -0.97931  -0.95058  -0.94067  -0.84552  -0.82828
 Alpha  occ. eigenvalues --   -0.80962  -0.80802  -0.79980  -0.79471  -0.79145
 Alpha  occ. eigenvalues --   -0.76985  -0.75891  -0.75670  -0.73897  -0.72934
 Alpha  occ. eigenvalues --   -0.70911  -0.70106  -0.69985  -0.69654  -0.67971
 Alpha  occ. eigenvalues --   -0.66748  -0.66165  -0.64081  -0.61981  -0.60870
 Alpha  occ. eigenvalues --   -0.60514  -0.59688  -0.58945  -0.58667  -0.57015
 Alpha  occ. eigenvalues --   -0.56045  -0.55614  -0.55178  -0.54219  -0.53459
 Alpha  occ. eigenvalues --   -0.52360  -0.51479  -0.50847  -0.50519  -0.50021
 Alpha  occ. eigenvalues --   -0.49554  -0.49175  -0.48618  -0.48137  -0.47905
 Alpha  occ. eigenvalues --   -0.47644  -0.47052  -0.46546  -0.46224  -0.45954
 Alpha  occ. eigenvalues --   -0.45531  -0.45128  -0.44813  -0.44630  -0.44319
 Alpha  occ. eigenvalues --   -0.43773  -0.43347  -0.43023  -0.42764  -0.42367
 Alpha  occ. eigenvalues --   -0.42242  -0.41943  -0.41845  -0.41429  -0.41323
 Alpha  occ. eigenvalues --   -0.41176  -0.40762  -0.40262  -0.39906  -0.39751
 Alpha  occ. eigenvalues --   -0.39691  -0.38936  -0.38480  -0.38379  -0.38226
 Alpha  occ. eigenvalues --   -0.37433  -0.37282  -0.37082  -0.36939  -0.36858
 Alpha  occ. eigenvalues --   -0.36584  -0.36205  -0.36187  -0.35612  -0.35254
 Alpha  occ. eigenvalues --   -0.34155  -0.33783  -0.32249  -0.31351  -0.31179
 Alpha  occ. eigenvalues --   -0.30739  -0.29799  -0.29525  -0.29063  -0.28608
 Alpha  occ. eigenvalues --   -0.28122  -0.27141  -0.25833  -0.24526  -0.24282
 Alpha  occ. eigenvalues --   -0.23701  -0.23182  -0.22807  -0.22605  -0.18841
 Alpha virt. eigenvalues --   -0.13237  -0.07984  -0.03301  -0.02521  -0.02203
 Alpha virt. eigenvalues --   -0.00369   0.00602   0.00990   0.01900   0.02594
 Alpha virt. eigenvalues --    0.03022   0.03441   0.04404   0.04957   0.05146

 Mulliken charges:
               1
     1  O   -0.194208
     2  O   -0.134184
     3  O   -0.285452
     4  O   -0.171699
     5  O   -0.262054
     6  O   -0.202079
     7  N   -0.051251
     8  N   -0.220245
     9  N   -0.034405
    10  N   -0.300262
    11  C    0.046531
    12  C    0.251948
    13  C   -0.110323
    14  C   -0.124502
    15  C   -0.061385
    16  C    0.021190
    17  C   -0.201515
    18  C    0.025650
    19  C   -0.069332
    20  C   -0.117610
    21  C    0.070611
    22  C    0.115135
    23  C   -0.070573
    24  C    0.093065
    25  C    0.135218
    26  C   -0.108993
    27  C   -0.055343
    28  C    0.023441
    29  C    0.093131
    30  C   -0.056441
    31  C    0.000805
    32  C   -0.016793
    33  C   -0.055890
    34  C    0.154224
    35  C    0.198669
    36  C   -0.048796
    37  C    0.161084
    38  C    0.014716
    39  C   -0.210554
    40  C    0.155299
    41  C    0.061229
    42  C    0.087147
    43  C   -0.016465
    44  H    0.050601
    45  H   -0.072693
    46  H    0.011843
    47  H    0.171385
    48  H    0.163240
    49  H    0.047951
    50  H    0.022068
    51  H    0.004859
    52  H    0.017436
    53  H    0.021432
    54  H    0.003550
    55  H   -0.027903
    56  H    0.037132
    57  H    0.005066
    58  H    0.041701
    59  H    0.032209
    60  H    0.089587
    61  H    0.053736
    62  H    0.037740
    63  H    0.055860
    64  H    0.050231
    65  H    0.050598
    66  H    0.055149
    67  H    0.054250
    68  H    0.079459
    69  H   -0.059441
    70  H    0.029838
    71  H    0.043899
    72  H    0.181098
    73  H   -0.094120
    74  H    0.048357
    75  H    0.014093
    76  H    0.040035
    77  H    0.170151
    78  H    0.042075
    79  H   -0.001209
 Sum of Mulliken charges =  -0.00000

 Dipole moment (field-independent basis, Debye):
    X=              4.1493    Y=              2.0516    Z=             -1.5921  Tot=              4.8949
 Quadrupole moment (field-independent basis, Debye-Ang):
   XX=           -238.4606   YY=           -241.9900   ZZ=           -270.0994
   XY=              6.7775   XZ=            -18.4654   YZ=            -12.0602

 Normal termination of Gaussian 16 at Fri Jul 26 21:45:55 2019.
