 Gaussian 16, Revision A.03,
 Gaussian 16:  ES64L-G16RevA.03 25-Dec-2016

 --------------------------
 # td=(NStates=1) B3LYP/SVP
 --------------------------

 --
 TD
 --
 Symbolic Z-matrix:
 Charge =  0 Multiplicity = 1

                         Standard orientation:
 ---------------------------------------------------------------------
 Center     Atomic      Atomic             Coordinates (Angstroms)
 Number     Number       Type             X           Y           Z
 ---------------------------------------------------------------------
      1          8           0        5.247135   -0.254214   -3.360024
      2          8           0       -3.092614   -2.946727    2.984647
      3          8           0       -3.355176   -0.716505    2.965397
      4          8           0       -1.807260    7.313398    1.316113
      5          8           0       -0.522499    6.988862   -0.630472
      6          8           0       -1.660558   -3.974330    0.093415
      7          7           0        2.321348    1.035864    0.663681
      8          7           0        4.292817   -0.761457   -1.263461
      9          7           0       -1.783406    0.723709   -0.390214
     10          7           0       -2.464676   -1.909771   -0.609053
     11          6           0        4.748389   -1.168618    0.066905
     12          6           0        4.449531   -0.107325    1.205431
     13          6           0        3.060448    0.121493    1.446795
     14          6           0        1.999315   -0.608314    2.154289
     15          6           0        0.737327    0.005983    1.882469
     16          6           0        0.980505    1.006533    0.922499
     17          6           0        6.245659   -1.308819   -0.126859
     18          6           0       -0.628840   -0.182737    2.619795
     19          6           0        6.570977   -0.983640   -1.408030
     20          6           0        0.189484    2.072561    0.212958
     21          6           0       -1.134117    1.814426   -0.313617
     22          6           0        5.289595   -0.674000   -2.165924
     23          6           0       -2.005715    2.889159   -0.850860
     24          6           0        2.192514   -1.643894    3.367404
     25          6           0        7.098619   -1.647359    1.064612
     26          6           0       -3.133685    2.304613   -1.342207
     27          6           0       -1.211557   -1.624511    2.626945
     28          6           0       -3.076397    0.909063   -1.075581
     29          6           0       -1.642003    4.328118   -0.970184
     30          6           0        7.899776   -0.958210   -2.160587
     31          6           0       -1.691694    5.163043    0.383141
     32          6           0       -4.402301    2.888994   -1.932285
     33          6           0       -3.919114   -0.091442   -1.420943
     34          6           0       -2.627381   -1.671446    2.954382
     35          6           0       -3.529861   -1.525273   -1.032213
     36          6           0        9.061746   -0.823414   -1.528628
     37          6           0       -1.257065    6.519842    0.246265
     38          6           0       -4.395515   -2.694855   -1.540943
     39          6           0       -3.862436   -3.768808   -0.948744
     40          6           0       -2.587970   -3.313374   -0.409176
     41          6           0       -5.711676   -2.556725   -2.071165
     42          6           0       -4.216540   -5.196692   -1.015312
     43          6           0       -6.537469   -3.614505   -2.500578
     44          1           0        4.185577   -2.202765    0.352981
     45          1           0        4.981730    0.897403    0.721139
     46          1           0        4.910640   -0.230100    2.267874
     47          1           0        3.017001    1.506269   -0.011587
     48          1           0        3.395126   -0.656033   -1.429625
     49          1           0       -0.354932    0.010919    3.694304
     50          1           0       -1.408342    0.382683    2.222982
     51          1           0        0.736065    3.121614    0.039695
     52          1           0        3.185678   -1.806376    3.428580
     53          1           0        1.527464   -1.090993    4.287635
     54          1           0        1.657183   -2.671378    3.007102
     55          1           0        6.482860   -2.389651    1.607146
     56          1           0        7.302628   -0.615838    1.684609
     57          1           0        7.963168   -2.061627    0.563304
     58          1           0       -1.220338   -2.108906    1.570214
     59          1           0       -0.634843   -2.375147    3.219072
     60          1           0       -1.362454   -0.300757   -0.266573
     61          1           0       -2.182437    5.109151   -1.905175
     62          1           0       -0.572436    4.409064   -1.282515
     63          1           0        7.904000   -1.238492   -3.263057
     64          1           0       -1.285094    4.668244    1.189375
     65          1           0       -2.916279    5.208314    0.576976
     66          1           0       -4.116041    3.897921   -2.417140
     67          1           0       -5.146285    3.261642   -1.128570
     68          1           0       -4.835311    2.121886   -2.799687
     69          1           0       -4.907546    0.145286   -1.803032
     70          1           0        8.901300   -0.644317   -0.289066
     71          1           0       10.136313   -0.834450   -1.916109
     72          1           0       -4.078770   -3.060491    3.451269
     73          1           0       -6.166698   -1.538128   -2.163093
     74          1           0       -5.202174   -5.480627   -0.413016
     75          1           0       -4.234198   -5.798718   -1.940113
     76          1           0       -3.419615   -5.736773   -0.365621
     77          1           0       -1.239646    8.025662    1.222368
     78          1           0       -7.402996   -3.294220   -3.015753
     79          1           0       -6.350397   -4.691771   -2.496491
 ---------------------------------------------------------------------

 SCF Done:  E(RB3LYP) =  -1947.79856261     A.U. after   17 cycles

 Excitation energies and oscillator strengths:

 Excited State   1:      Singlet-A      1.7492 eV  708.81 nm  f=0.3219  <S**2>=0.000
     155 ->156         0.70629
     155 <-156        -0.10801
 This state for optimization and/or second-order correction.
 Total Energy, E(TD-HF/TD-DFT) =  -1947.73428130
 Copying the excited state density for this state as the 1-particle RhoCI density.

 The electronic state is 1-A.
 Alpha  occ. eigenvalues --  -19.17710 -19.17002 -19.14797 -19.12327 -19.11061
 Alpha  occ. eigenvalues --  -19.09259 -14.38068 -14.36613 -14.35659 -14.30841
 Alpha  occ. eigenvalues --  -10.33322 -10.30257 -10.28584 -10.28278 -10.26347
 Alpha  occ. eigenvalues --  -10.24576 -10.24512 -10.24337 -10.23875 -10.23024
 Alpha  occ. eigenvalues --  -10.22998 -10.22450 -10.22375 -10.22130 -10.22084
 Alpha  occ. eigenvalues --  -10.21928 -10.21863 -10.21807 -10.21406 -10.21323
 Alpha  occ. eigenvalues --  -10.21078 -10.20924 -10.20841 -10.20802 -10.20727
 Alpha  occ. eigenvalues --  -10.20602 -10.20447 -10.20214 -10.20166 -10.19754
 Alpha  occ. eigenvalues --  -10.19409 -10.19137 -10.18972  -1.08687  -1.07118
 Alpha  occ. eigenvalues --   -1.02580  -1.01011  -1.00596  -0.98770  -0.98457
 Alpha  occ. eigenvalues --   -0.96955  -0.96268  -0.94038  -0.82620  -0.82577
 Alpha  occ. eigenvalues --   -0.82468  -0.81079  -0.80124  -0.79413  -0.77922
 Alpha  occ. eigenvalues --   -0.76463  -0.75943  -0.75857  -0.73739  -0.72044
 Alpha  occ. eigenvalues --   -0.71613  -0.70124  -0.69840  -0.68241  -0.67604
 Alpha  occ. eigenvalues --   -0.66567  -0.66015  -0.64066  -0.61494  -0.60760
 Alpha  occ. eigenvalues --   -0.59283  -0.58386  -0.57902  -0.57330  -0.55862
 Alpha  occ. eigenvalues --   -0.55361  -0.54981  -0.54637  -0.53825  -0.53404
 Alpha  occ. eigenvalues --   -0.52481  -0.51178  -0.50925  -0.49989  -0.49532
 Alpha  occ. eigenvalues --   -0.49262  -0.48593  -0.48200  -0.48066  -0.47726
 Alpha  occ. eigenvalues --   -0.47537  -0.46831  -0.46002  -0.45668  -0.45427
 Alpha  occ. eigenvalues --   -0.45257  -0.44993  -0.44479  -0.43846  -0.43558
 Alpha  occ. eigenvalues --   -0.43272  -0.42835  -0.42529  -0.42408  -0.42001
 Alpha  occ. eigenvalues --   -0.41849  -0.41727  -0.41662  -0.41095  -0.41032
 Alpha  occ. eigenvalues --   -0.40401  -0.40039  -0.39902  -0.39648  -0.39338
 Alpha  occ. eigenvalues --   -0.39251  -0.38819  -0.38475  -0.38375  -0.38117
 Alpha  occ. eigenvalues --   -0.37655  -0.37476  -0.37018  -0.36683  -0.36432
 Alpha  occ. eigenvalues --   -0.36246  -0.35390  -0.35102  -0.34593  -0.34382
 Alpha  occ. eigenvalues --   -0.33726  -0.33294  -0.32972  -0.32849  -0.31933
 Alpha  occ. eigenvalues --   -0.31047  -0.30939  -0.29733  -0.29713  -0.28321
 Alpha  occ. eigenvalues --   -0.26782  -0.26458  -0.26059  -0.25831  -0.24992
 Alpha  occ. eigenvalues --   -0.24553  -0.24176  -0.23866  -0.23318  -0.18243
 Alpha virt. eigenvalues --   -0.11327  -0.07138  -0.05248  -0.02731  -0.01511
 Alpha virt. eigenvalues --    0.00690   0.00931   0.01132   0.01863   0.02365
 Alpha virt. eigenvalues --    0.02672   0.03105   0.04214   0.04387   0.04559

 Mulliken charges:
               1
     1  O   -0.273843
     2  O   -0.268509
     3  O   -0.221599
     4  O   -0.202594
     5  O   -0.232951
     6  O   -0.204437
     7  N   -0.124135
     8  N   -0.105665
     9  N   -0.111307
    10  N   -0.164453
    11  C    0.073924
    12  C    0.031988
    13  C   -0.075740
    14  C   -0.168918
    15  C   -0.105554
    16  C    0.049426
    17  C   -0.201660
    18  C    0.170530
    19  C   -0.054126
    20  C   -0.141873
    21  C    0.063724
    22  C    0.154270
    23  C   -0.039794
    24  C    0.049488
    25  C    0.076920
    26  C   -0.102816
    27  C   -0.070608
    28  C    0.172741
    29  C   -0.043399
    30  C    0.015388
    31  C   -0.000329
    32  C    0.012840
    33  C   -0.120050
    34  C    0.130675
    35  C    0.018098
    36  C   -0.105306
    37  C    0.171479
    38  C    0.022657
    39  C   -0.124202
    40  C    0.160804
    41  C   -0.069973
    42  C    0.010482
    43  C   -0.004679
    44  H    0.052348
    45  H    0.024525
    46  H    0.051115
    47  H    0.142177
    48  H    0.074228
    49  H    0.011814
    50  H    0.000534
    51  H    0.039502
    52  H   -0.020910
    53  H    0.059766
    54  H    0.058192
    55  H    0.027770
    56  H    0.073395
    57  H    0.043177
    58  H    0.086124
    59  H    0.023067
    60  H    0.202007
    61  H    0.058433
    62  H    0.031187
    63  H    0.039502
    64  H    0.037695
    65  H    0.068785
    66  H    0.020962
    67  H    0.056752
    68  H    0.059152
    69  H   -0.010152
    70  H    0.034933
    71  H    0.051591
    72  H    0.235145
    73  H    0.015700
    74  H    0.033367
    75  H    0.047868
    76  H    0.033295
    77  H    0.142606
    78  H    0.015951
    79  H    0.031482
 Sum of Mulliken charges =  -0.00000

 Dipole moment (field-independent basis, Debye):
    X=             -1.7337    Y=             -0.4145    Z=              3.2996  Tot=              3.7503
 Quadrupole moment (field-independent basis, Debye-Ang):
   XX=           -217.5317   YY=           -251.2518   ZZ=           -264.4050
   XY=              3.3596   XZ=             32.9431   YZ=              3.0450

 Normal termination of Gaussian 16 at Wed Sep 18 05:57:46 2019.
