 Gaussian 16, Revision A.03,
 Gaussian 16:  ES64L-G16RevA.03 25-Dec-2016

 --------------------------
 # td=(NStates=1) B3LYP/SVP
 --------------------------

 --
 TD
 --
 Symbolic Z-matrix:
 Charge =  0 Multiplicity = 1

                         Standard orientation:
 ---------------------------------------------------------------------
 Center     Atomic      Atomic             Coordinates (Angstroms)
 Number     Number       Type             X           Y           Z
 ---------------------------------------------------------------------
      1          8           0        5.213635   -0.001366   -3.288548
      2          8           0       -2.931620   -2.964143    3.208150
      3          8           0       -3.343153   -0.815546    2.782242
      4          8           0       -1.501332    7.020281    1.613802
      5          8           0       -0.817176    7.023812   -0.472832
      6          8           0       -1.710476   -4.022017    0.183601
      7          7           0        2.310792    1.070174    0.641560
      8          7           0        4.288507   -0.501638   -1.225982
      9          7           0       -1.860021    0.687560   -0.383890
     10          7           0       -2.518298   -1.910937   -0.542905
     11          6           0        4.791528   -1.106722   -0.049644
     12          6           0        4.421088   -0.252708    1.171506
     13          6           0        2.994672    0.049812    1.362323
     14          6           0        1.937621   -0.572243    2.110582
     15          6           0        0.639045    0.038030    1.812961
     16          6           0        0.920551    1.012350    0.860670
     17          6           0        6.282641   -1.208077   -0.198942
     18          6           0       -0.613420   -0.190438    2.519773
     19          6           0        6.641818   -0.743047   -1.344151
     20          6           0        0.060271    2.025188    0.382585
     21          6           0       -1.222366    1.847224   -0.193976
     22          6           0        5.404240   -0.316690   -2.157927
     23          6           0       -2.027870    2.894172   -0.954118
     24          6           0        2.214866   -1.678527    3.034763
     25          6           0        7.028157   -1.894192    0.930905
     26          6           0       -3.223312    2.283759   -1.336118
     27          6           0       -1.035555   -1.712043    2.561260
     28          6           0       -3.056155    0.853715   -0.985511
     29          6           0       -1.736891    4.329618   -0.961961
     30          6           0        8.007780   -0.662091   -2.015741
     31          6           0       -1.915137    5.092301    0.509023
     32          6           0       -4.368866    2.918796   -2.094589
     33          6           0       -3.945574   -0.161358   -1.292428
     34          6           0       -2.519138   -1.722430    2.911312
     35          6           0       -3.669272   -1.524783   -1.189223
     36          6           0        9.262631   -0.921021   -1.498463
     37          6           0       -1.292369    6.385781    0.440910
     38          6           0       -4.497350   -2.670553   -1.495779
     39          6           0       -3.783412   -3.824270   -0.951168
     40          6           0       -2.533900   -3.345670   -0.390992
     41          6           0       -5.713771   -2.503755   -2.121058
     42          6           0       -4.078490   -5.308331   -0.887007
     43          6           0       -6.542836   -3.421692   -2.728284
     44          1           0        4.249049   -2.088112    0.091906
     45          1           0        4.942147    0.758396    1.151351
     46          1           0        4.896154   -0.941098    2.074543
     47          1           0        2.663368    1.661368   -0.088984
     48          1           0        3.405857   -0.572923   -1.809069
     49          1           0       -0.413427    0.133745    3.503497
     50          1           0       -1.486203    0.368465    2.098436
     51          1           0        0.359975    2.969800    0.204955
     52          1           0        3.263777   -1.684011    3.399124
     53          1           0        1.676274   -1.412473    3.986319
     54          1           0        2.078468   -2.880428    2.632182
     55          1           0        6.278469   -2.463356    1.696892
     56          1           0        7.772595   -1.079805    1.324139
     57          1           0        7.714460   -2.581641    0.170854
     58          1           0       -0.682107   -2.077697    1.398886
     59          1           0       -0.419326   -2.354801    3.337118
     60          1           0       -1.737040   -0.304025   -0.176994
     61          1           0       -2.329254    4.959505   -1.703716
     62          1           0       -0.615371    4.530554   -1.246704
     63          1           0        7.800211   -0.377959   -3.072717
     64          1           0       -1.541901    4.149804    1.222088
     65          1           0       -2.882310    4.928376    0.462673
     66          1           0       -4.403558    4.057544   -2.169859
     67          1           0       -5.334813    2.964801   -1.507084
     68          1           0       -4.212136    2.696643   -3.270935
     69          1           0       -4.898768    0.114811   -1.618870
     70          1           0        9.436180   -1.120550   -0.516415
     71          1           0       10.293906   -0.937520   -2.041095
     72          1           0       -3.996491   -3.094719    3.163862
     73          1           0       -6.078559   -1.529309   -1.908595
     74          1           0       -5.035933   -5.268095   -0.553136
     75          1           0       -4.238750   -5.539043   -1.939940
     76          1           0       -3.323096   -5.645291   -0.143591
     77          1           0       -1.114894    8.069445    1.419611
     78          1           0       -7.553035   -3.284597   -3.029249
     79          1           0       -6.347160   -4.410719   -2.743239
 ---------------------------------------------------------------------

 SCF Done:  E(RB3LYP) =  -1947.78963915     A.U. after   16 cycles

 Excitation energies and oscillator strengths:

 Excited State   1:      Singlet-A      1.7496 eV  708.63 nm  f=0.2246  <S**2>=0.000
     154 ->156         0.35695
     155 ->156         0.60694
     155 <-156        -0.10088
 This state for optimization and/or second-order correction.
 Total Energy, E(TD-HF/TD-DFT) =  -1947.72534125
 Copying the excited state density for this state as the 1-particle RhoCI density.

 The electronic state is 1-A.
 Alpha  occ. eigenvalues --  -19.18707 -19.16851 -19.13676 -19.11779 -19.10950
 Alpha  occ. eigenvalues --  -19.10677 -14.37761 -14.36480 -14.34467 -14.28126
 Alpha  occ. eigenvalues --  -10.32923 -10.30711 -10.29325 -10.25812 -10.24952
 Alpha  occ. eigenvalues --  -10.24751 -10.24633 -10.24367 -10.23474 -10.22781
 Alpha  occ. eigenvalues --  -10.22626 -10.22512 -10.22264 -10.21987 -10.21978
 Alpha  occ. eigenvalues --  -10.21974 -10.21957 -10.21873 -10.21652 -10.21110
 Alpha  occ. eigenvalues --  -10.20831 -10.20787 -10.20687 -10.20426 -10.20089
 Alpha  occ. eigenvalues --  -10.19745 -10.19625 -10.19213 -10.19030 -10.18632
 Alpha  occ. eigenvalues --  -10.18534 -10.18230 -10.18060  -1.09665  -1.06721
 Alpha  occ. eigenvalues --   -1.04670  -1.01789  -0.99637  -0.99611  -0.97228
 Alpha  occ. eigenvalues --   -0.96432  -0.93970  -0.90467  -0.82741  -0.82568
 Alpha  occ. eigenvalues --   -0.81824  -0.80743  -0.79968  -0.79436  -0.78147
 Alpha  occ. eigenvalues --   -0.77183  -0.76048  -0.75093  -0.74716  -0.72294
 Alpha  occ. eigenvalues --   -0.71268  -0.70692  -0.69936  -0.68497  -0.68104
 Alpha  occ. eigenvalues --   -0.66367  -0.65957  -0.63736  -0.61897  -0.60878
 Alpha  occ. eigenvalues --   -0.59873  -0.58949  -0.57767  -0.57700  -0.56620
 Alpha  occ. eigenvalues --   -0.56171  -0.55197  -0.54748  -0.54036  -0.53157
 Alpha  occ. eigenvalues --   -0.52073  -0.51784  -0.51364  -0.51185  -0.49612
 Alpha  occ. eigenvalues --   -0.48607  -0.48330  -0.47985  -0.47376  -0.47018
 Alpha  occ. eigenvalues --   -0.46771  -0.46323  -0.45953  -0.45842  -0.45359
 Alpha  occ. eigenvalues --   -0.44868  -0.44639  -0.44391  -0.44118  -0.43925
 Alpha  occ. eigenvalues --   -0.43760  -0.43499  -0.43147  -0.43019  -0.42784
 Alpha  occ. eigenvalues --   -0.42401  -0.42184  -0.41462  -0.41357  -0.41168
 Alpha  occ. eigenvalues --   -0.40817  -0.40579  -0.40089  -0.39959  -0.39829
 Alpha  occ. eigenvalues --   -0.39776  -0.39106  -0.38805  -0.38647  -0.38331
 Alpha  occ. eigenvalues --   -0.37263  -0.37093  -0.36712  -0.36539  -0.36175
 Alpha  occ. eigenvalues --   -0.35822  -0.35219  -0.35121  -0.34295  -0.34110
 Alpha  occ. eigenvalues --   -0.33647  -0.32989  -0.32527  -0.32405  -0.31994
 Alpha  occ. eigenvalues --   -0.30515  -0.30196  -0.29366  -0.28134  -0.27412
 Alpha  occ. eigenvalues --   -0.27019  -0.26481  -0.25917  -0.25783  -0.25342
 Alpha  occ. eigenvalues --   -0.24042  -0.23495  -0.23175  -0.20734  -0.18770
 Alpha virt. eigenvalues --   -0.11456  -0.07022  -0.05482  -0.02198  -0.00781
 Alpha virt. eigenvalues --   -0.00123   0.00002   0.00148   0.01003   0.02030
 Alpha virt. eigenvalues --    0.02864   0.03335   0.03675   0.04644   0.04722

 Mulliken charges:
               1
     1  O   -0.179066
     2  O   -0.232811
     3  O   -0.255290
     4  O   -0.259186
     5  O   -0.228826
     6  O   -0.199652
     7  N   -0.117064
     8  N   -0.272154
     9  N    0.018416
    10  N   -0.369596
    11  C    0.091118
    12  C    0.108222
    13  C    0.016290
    14  C   -0.152800
    15  C   -0.075139
    16  C    0.083240
    17  C   -0.156791
    18  C    0.126667
    19  C   -0.074292
    20  C   -0.004827
    21  C    0.017457
    22  C    0.145777
    23  C   -0.054349
    24  C    0.025097
    25  C   -0.024045
    26  C   -0.101471
    27  C   -0.142194
    28  C    0.070036
    29  C   -0.052994
    30  C    0.028387
    31  C   -0.016737
    32  C    0.030680
    33  C   -0.073416
    34  C    0.190042
    35  C    0.113043
    36  C   -0.037887
    37  C    0.214891
    38  C    0.094113
    39  C   -0.285418
    40  C    0.178594
    41  C   -0.075642
    42  C    0.206495
    43  C    0.015733
    44  H    0.022021
    45  H    0.004092
    46  H    0.016130
    47  H    0.108374
    48  H    0.153176
    49  H   -0.003343
    50  H    0.030651
    51  H   -0.072631
    52  H   -0.010116
    53  H    0.020834
    54  H    0.059738
    55  H    0.079009
    56  H    0.072979
    57  H    0.076254
    58  H    0.132986
    59  H    0.051011
    60  H    0.133527
    61  H    0.035961
    62  H    0.038898
    63  H    0.019783
    64  H    0.085200
    65  H    0.005816
    66  H    0.003738
    67  H    0.042815
    68  H    0.070270
    69  H   -0.054364
    70  H   -0.014699
    71  H    0.052748
    72  H    0.227974
    73  H   -0.011958
    74  H   -0.019306
    75  H    0.030955
    76  H    0.054471
    77  H    0.239208
    78  H    0.012605
    79  H   -0.027453
 Sum of Mulliken charges =  -0.00000

 Dipole moment (field-independent basis, Debye):
    X=              0.7429    Y=              1.8432    Z=              2.3733  Tot=              3.0954
 Quadrupole moment (field-independent basis, Debye-Ang):
   XX=           -212.8177   YY=           -247.4390   ZZ=           -265.9798
   XY=             -9.8555   XZ=             26.7223   YZ=              2.3518

 Normal termination of Gaussian 16 at Thu Oct 10 21:59:50 2019.
