 Gaussian 16, Revision A.03,
 Gaussian 16:  ES64L-G16RevA.03 25-Dec-2016

 --------------------------
 # td=(NStates=1) B3LYP/SVP
 --------------------------

 --
 TD
 --
 Symbolic Z-matrix:
 Charge =  0 Multiplicity = 1

                         Standard orientation:
 ---------------------------------------------------------------------
 Center     Atomic      Atomic             Coordinates (Angstroms)
 Number     Number       Type             X           Y           Z
 ---------------------------------------------------------------------
      1          8           0       -3.110277   -1.544561   -2.785641
      2          8           0        2.935720    3.193051    2.798701
      3          8           0        3.896887    1.703669    4.211384
      4          8           0        7.798413   -1.646356   -0.704969
      5          8           0        6.693961   -3.022418   -2.197714
      6          8           0       -2.749266    1.651513    1.520804
      7          7           0       -0.186740   -2.331770    0.975236
      8          7           0       -2.658201   -1.093047   -0.557391
      9          7           0        1.167364    0.128981   -0.556751
     10          7           0       -1.115613    1.443826   -0.121098
     11          6           0       -3.308114   -1.338312    0.715310
     12          6           0       -2.641426   -2.365701    1.661699
     13          6           0       -1.156062   -1.932450    1.817340
     14          6           0       -0.482567   -1.199163    2.943591
     15          6           0        0.930122   -1.182226    2.490665
     16          6           0        1.006877   -1.763002    1.269717
     17          6           0       -4.691360   -1.896452    0.226762
     18          6           0        1.886046   -0.281928    3.226589
     19          6           0       -4.730000   -2.144176   -1.033621
     20          6           0        2.102379   -1.765768    0.338265
     21          6           0        2.172778   -0.916511   -0.599275
     22          6           0       -3.413099   -1.614806   -1.630987
     23          6           0        3.075730   -0.520514   -1.727198
     24          6           0       -1.236578   -0.539378    3.987228
     25          6           0       -5.758205   -2.318364    1.202866
     26          6           0        2.525230    0.557409   -2.374487
     27          6           0        1.851077    1.152115    2.824614
     28          6           0        1.418092    1.005573   -1.632994
     29          6           0        4.209060   -1.380229   -2.042482
     30          6           0       -5.629676   -2.651002   -2.013994
     31          6           0        5.444564   -1.094839   -1.135974
     32          6           0        3.022006    1.230954   -3.576814
     33          6           0        0.518924    2.124122   -1.949565
     34          6           0        2.979949    1.992312    3.374061
     35          6           0       -0.605160    2.300028   -1.117227
     36          6           0       -6.705700   -3.357531   -1.770092
     37          6           0        6.687163   -2.084295   -1.456963
     38          6           0       -1.602411    3.505510   -1.244099
     39          6           0       -2.457562    3.342700   -0.263578
     40          6           0       -2.194298    2.025898    0.451982
     41          6           0       -1.433889    4.491617   -2.310053
     42          6           0       -3.694596    4.093193    0.187296
     43          6           0       -2.256921    5.534985   -2.449260
     44          1           0       -3.473721   -0.500798    1.282796
     45          1           0       -2.686486   -3.205282    1.075805
     46          1           0       -3.021917   -2.349112    2.723784
     47          1           0       -0.537019   -2.779149    0.103294
     48          1           0       -2.021283   -0.306397   -0.583108
     49          1           0        1.649515   -0.597530    4.227240
     50          1           0        2.895310   -0.588723    2.823986
     51          1           0        2.703944   -2.686267    0.255255
     52          1           0       -1.858077   -1.326294    4.312624
     53          1           0       -0.518844   -0.051421    4.872145
     54          1           0       -1.836421    0.169343    3.294326
     55          1           0       -5.377808   -2.084837    2.188801
     56          1           0       -5.825822   -3.646417    1.211483
     57          1           0       -6.746700   -1.967969    0.858968
     58          1           0        2.071315    1.337246    1.718830
     59          1           0        0.728358    1.605998    3.132875
     60          1           0        0.299054    0.115111   -0.207821
     61          1           0        4.601926   -0.986828   -3.146919
     62          1           0        4.195511   -2.558347   -1.973007
     63          1           0       -5.504760   -2.422239   -3.062662
     64          1           0        5.082931   -1.392479   -0.053805
     65          1           0        5.796086   -0.029919   -1.196652
     66          1           0        4.140458    0.924282   -3.938173
     67          1           0        3.128881    2.422388   -3.396458
     68          1           0        2.393440    1.039001   -4.579205
     69          1           0        0.767006    2.700403   -2.752817
     70          1           0       -6.956365   -3.590927   -0.697044
     71          1           0       -7.561792   -3.771873   -2.583222
     72          1           0        3.753350    3.623385    3.127404
     73          1           0       -0.838716    4.397472   -3.186991
     74          1           0       -4.314534    4.128629   -0.637008
     75          1           0       -4.221983    3.708177    1.104014
     76          1           0       -3.516309    5.216649    0.398056
     77          1           0        8.413673   -2.312234   -1.040218
     78          1           0       -2.168527    6.171786   -3.383399
     79          1           0       -2.799098    5.821443   -1.549573
 ---------------------------------------------------------------------

 SCF Done:  E(RB3LYP) =  -1947.82280051     A.U. after   21 cycles

 Excitation energies and oscillator strengths:

 Excited State   1:      Singlet-A      0.8484 eV 1461.42 nm  f=0.0054  <S**2>=0.000
     155 ->156         0.70558
 This state for optimization and/or second-order correction.
 Total Energy, E(TD-HF/TD-DFT) =  -1947.79162307
 Copying the excited state density for this state as the 1-particle RhoCI density.

 The electronic state is 1-A.
 Alpha  occ. eigenvalues --  -19.19790 -19.18413 -19.16528 -19.11736 -19.11499
 Alpha  occ. eigenvalues --  -19.09115 -14.37303 -14.37108 -14.32366 -14.30918
 Alpha  occ. eigenvalues --  -10.34926 -10.31682 -10.27838 -10.27698 -10.26901
 Alpha  occ. eigenvalues --  -10.26151 -10.25568 -10.24876 -10.24862 -10.24516
 Alpha  occ. eigenvalues --  -10.24422 -10.23835 -10.21992 -10.21575 -10.21313
 Alpha  occ. eigenvalues --  -10.21256 -10.21025 -10.20829 -10.20496 -10.20402
 Alpha  occ. eigenvalues --  -10.20332 -10.20250 -10.20057 -10.19842 -10.19314
 Alpha  occ. eigenvalues --  -10.19273 -10.19195 -10.18532 -10.18481 -10.18124
 Alpha  occ. eigenvalues --  -10.17611 -10.17136 -10.16923  -1.11198  -1.09505
 Alpha  occ. eigenvalues --   -1.03354  -1.02007  -1.00726  -0.99346  -0.97409
 Alpha  occ. eigenvalues --   -0.97110  -0.92020  -0.91591  -0.85535  -0.84272
 Alpha  occ. eigenvalues --   -0.81629  -0.81345  -0.80668  -0.79423  -0.78323
 Alpha  occ. eigenvalues --   -0.77257  -0.76091  -0.75979  -0.74872  -0.73394
 Alpha  occ. eigenvalues --   -0.71594  -0.70217  -0.69650  -0.69369  -0.67731
 Alpha  occ. eigenvalues --   -0.66481  -0.65342  -0.62973  -0.60860  -0.60107
 Alpha  occ. eigenvalues --   -0.59403  -0.58893  -0.58730  -0.58113  -0.56550
 Alpha  occ. eigenvalues --   -0.56148  -0.55705  -0.54162  -0.53589  -0.53007
 Alpha  occ. eigenvalues --   -0.51954  -0.51356  -0.51200  -0.50797  -0.50670
 Alpha  occ. eigenvalues --   -0.49791  -0.49445  -0.48421  -0.48305  -0.47996
 Alpha  occ. eigenvalues --   -0.47601  -0.47273  -0.47223  -0.46599  -0.46348
 Alpha  occ. eigenvalues --   -0.45951  -0.45643  -0.44721  -0.44525  -0.44107
 Alpha  occ. eigenvalues --   -0.43802  -0.43331  -0.42874  -0.42823  -0.42263
 Alpha  occ. eigenvalues --   -0.41979  -0.41637  -0.41529  -0.41203  -0.40904
 Alpha  occ. eigenvalues --   -0.40686  -0.40174  -0.39985  -0.39716  -0.39586
 Alpha  occ. eigenvalues --   -0.39495  -0.39257  -0.39063  -0.38771  -0.38463
 Alpha  occ. eigenvalues --   -0.38034  -0.37273  -0.36940  -0.36554  -0.36462
 Alpha  occ. eigenvalues --   -0.35995  -0.35865  -0.35288  -0.35212  -0.34755
 Alpha  occ. eigenvalues --   -0.34633  -0.33758  -0.32989  -0.32686  -0.31124
 Alpha  occ. eigenvalues --   -0.30921  -0.30676  -0.30427  -0.29572  -0.28279
 Alpha  occ. eigenvalues --   -0.27937  -0.26869  -0.25665  -0.24725  -0.24305
 Alpha  occ. eigenvalues --   -0.24158  -0.23437  -0.22943  -0.22423  -0.18357
 Alpha virt. eigenvalues --   -0.12889  -0.07281  -0.03368  -0.02232  -0.02058
 Alpha virt. eigenvalues --   -0.00543   0.00642   0.02269   0.02330   0.03010
 Alpha virt. eigenvalues --    0.03111   0.04138   0.04882   0.05057   0.05283

 Mulliken charges:
               1
     1  O   -0.200168
     2  O   -0.160869
     3  O   -0.292122
     4  O   -0.204832
     5  O   -0.191170
     6  O   -0.252002
     7  N   -0.019235
     8  N   -0.235873
     9  N   -0.092658
    10  N   -0.321201
    11  C    0.107826
    12  C    0.311432
    13  C   -0.207478
    14  C   -0.152538
    15  C   -0.115931
    16  C   -0.008183
    17  C   -0.223285
    18  C    0.148251
    19  C    0.021352
    20  C   -0.181331
    21  C    0.205003
    22  C    0.140890
    23  C    0.036311
    24  C    0.037968
    25  C    0.025706
    26  C   -0.057375
    27  C   -0.059002
    28  C    0.099806
    29  C   -0.032307
    30  C    0.017712
    31  C   -0.081631
    32  C   -0.065586
    33  C   -0.035127
    34  C    0.147924
    35  C    0.133236
    36  C   -0.105004
    37  C    0.169827
    38  C    0.097479
    39  C   -0.207937
    40  C    0.180982
    41  C   -0.033237
    42  C    0.085375
    43  C   -0.027411
    44  H   -0.006060
    45  H   -0.067752
    46  H    0.010910
    47  H    0.122981
    48  H    0.142656
    49  H    0.022065
    50  H   -0.013968
    51  H    0.004984
    52  H    0.005550
    53  H    0.036281
    54  H    0.083169
    55  H    0.012860
    56  H    0.044455
    57  H    0.054887
    58  H    0.049799
    59  H    0.085526
    60  H    0.122758
    61  H    0.036404
    62  H    0.074630
    63  H   -0.000540
    64  H    0.071832
    65  H    0.055978
    66  H    0.047297
    67  H    0.063080
    68  H    0.074776
    69  H   -0.059549
    70  H    0.009363
    71  H    0.047500
    72  H    0.177850
    73  H   -0.017093
    74  H    0.010333
    75  H    0.044301
    76  H    0.030795
    77  H    0.168499
    78  H    0.035556
    79  H    0.014301
 Sum of Mulliken charges =  -0.00000

 Dipole moment (field-independent basis, Debye):
    X=              3.5308    Y=              1.9292    Z=             -3.4682  Tot=              5.3119
 Quadrupole moment (field-independent basis, Debye-Ang):
   XX=           -239.0053   YY=           -239.5441   ZZ=           -269.3663
   XY=              1.5632   XZ=            -26.1324   YZ=            -17.9021

 Normal termination of Gaussian 16 at Mon Jul 29 12:45:09 2019.
