 Gaussian 16, Revision A.03,
 Gaussian 16:  ES64L-G16RevA.03 25-Dec-2016

 --------------------------
 # td=(NStates=1) B3LYP/SVP
 --------------------------

 --
 TD
 --
 Symbolic Z-matrix:
 Charge =  0 Multiplicity = 1

                         Standard orientation:
 ---------------------------------------------------------------------
 Center     Atomic      Atomic             Coordinates (Angstroms)
 Number     Number       Type             X           Y           Z
 ---------------------------------------------------------------------
      1          8           0        5.362691    0.013392   -3.244417
      2          8           0       -3.019954   -2.878143    3.298424
      3          8           0       -3.365608   -0.744583    3.214582
      4          8           0       -1.681923    7.136806    1.585395
      5          8           0       -1.208834    7.085877   -0.656745
      6          8           0       -1.474709   -4.056211   -0.097832
      7          7           0        2.345417    0.952917    0.559368
      8          7           0        4.485158   -0.428757   -1.212290
      9          7           0       -1.860280    0.687786   -0.409262
     10          7           0       -2.492215   -1.973039   -0.456361
     11          6           0        4.804678   -1.029078    0.013024
     12          6           0        4.452543   -0.197650    1.243495
     13          6           0        2.976593   -0.000940    1.339085
     14          6           0        1.969608   -0.582989    2.045020
     15          6           0        0.685649    0.015571    1.741248
     16          6           0        0.989053    0.905417    0.796356
     17          6           0        6.272889   -1.179433   -0.045332
     18          6           0       -0.685428   -0.282895    2.498714
     19          6           0        6.658427   -0.717204   -1.277935
     20          6           0        0.107150    1.908254    0.173805
     21          6           0       -1.168888    1.823199   -0.356006
     22          6           0        5.549974   -0.323682   -2.045655
     23          6           0       -2.090640    2.866339   -0.817070
     24          6           0        2.150115   -1.822834    2.953532
     25          6           0        7.135949   -1.769650    1.019877
     26          6           0       -3.229197    2.269495   -1.298160
     27          6           0       -1.209576   -1.647495    2.421272
     28          6           0       -3.102164    0.825014   -1.062483
     29          6           0       -1.781801    4.270742   -1.037789
     30          6           0        8.053696   -0.504373   -1.887723
     31          6           0       -1.899248    5.039526    0.433048
     32          6           0       -4.378308    2.940359   -1.940079
     33          6           0       -3.959767   -0.224146   -1.276875
     34          6           0       -2.593169   -1.640198    2.994014
     35          6           0       -3.604530   -1.643410   -1.050667
     36          6           0        9.318708   -0.611086   -1.419145
     37          6           0       -1.551115    6.505135    0.332057
     38          6           0       -4.404710   -2.684840   -1.443783
     39          6           0       -3.683082   -3.786918   -1.094915
     40          6           0       -2.379846   -3.334092   -0.494666
     41          6           0       -5.793049   -2.601398   -2.019002
     42          6           0       -3.995212   -5.329971   -1.262336
     43          6           0       -6.664991   -3.564432   -2.467948
     44          1           0        4.177869   -2.187724    0.120008
     45          1           0        5.179976    0.829388    1.215293
     46          1           0        4.692551   -0.964183    2.069582
     47          1           0        2.850907    1.474430   -0.241497
     48          1           0        3.577333   -0.631116   -1.575843
     49          1           0       -0.588989    0.149221    3.492179
     50          1           0       -1.484097    0.454410    2.051874
     51          1           0        0.524266    2.985645    0.145791
     52          1           0        3.153632   -1.887250    3.179306
     53          1           0        1.563712   -1.707488    3.748381
     54          1           0        1.993237   -2.753253    2.460094
     55          1           0        6.518468   -2.541954    1.651070
     56          1           0        7.472226   -0.918454    1.744192
     57          1           0        8.032155   -2.443766    0.664964
     58          1           0       -1.152964   -1.990031    1.398149
     59          1           0       -0.571643   -2.514566    2.943461
     60          1           0       -1.305934   -0.374785   -0.479798
     61          1           0       -2.426886    4.495233   -1.779520
     62          1           0       -0.685587    4.486525   -1.223483
     63          1           0        7.904421   -0.053820   -2.945021
     64          1           0       -1.179554    4.526428    1.056680
     65          1           0       -3.025676    4.791072    0.923567
     66          1           0       -4.073776    3.923879   -2.416366
     67          1           0       -5.151046    3.076527   -1.134416
     68          1           0       -5.014921    2.131974   -2.736335
     69          1           0       -4.977360   -0.085571   -1.861595
     70          1           0        9.741783   -0.887427   -0.462062
     71          1           0       10.041857   -0.405997   -2.216908
     72          1           0       -3.897011   -3.007134    3.866027
     73          1           0       -6.145222   -1.523172   -2.131400
     74          1           0       -4.834524   -5.530984   -0.788237
     75          1           0       -4.169450   -5.443565   -2.276404
     76          1           0       -2.995892   -5.901804   -0.810278
     77          1           0       -1.704959    8.186194    1.423572
     78          1           0       -7.695882   -3.449410   -2.837273
     79          1           0       -6.284751   -4.778967   -2.645057
 ---------------------------------------------------------------------

 SCF Done:  E(RB3LYP) =  -1947.81922290     A.U. after   16 cycles

 Excitation energies and oscillator strengths:

 Excited State   1:      Singlet-A      2.0437 eV  606.68 nm  f=0.3626  <S**2>=0.000
     153 ->156         0.12115
     155 ->156         0.68972
     155 <-156        -0.10701
 This state for optimization and/or second-order correction.
 Total Energy, E(TD-HF/TD-DFT) =  -1947.74411971
 Copying the excited state density for this state as the 1-particle RhoCI density.

 The electronic state is 1-A.
 Alpha  occ. eigenvalues --  -19.18179 -19.15395 -19.14193 -19.11683 -19.10314
 Alpha  occ. eigenvalues --  -19.09568 -14.37528 -14.36360 -14.35058 -14.29084
 Alpha  occ. eigenvalues --  -10.33048 -10.30029 -10.28034 -10.26953 -10.26086
 Alpha  occ. eigenvalues --  -10.25238 -10.23843 -10.23806 -10.23629 -10.23428
 Alpha  occ. eigenvalues --  -10.23356 -10.22988 -10.22856 -10.22288 -10.22175
 Alpha  occ. eigenvalues --  -10.21970 -10.21941 -10.21934 -10.21341 -10.21295
 Alpha  occ. eigenvalues --  -10.21041 -10.20949 -10.20921 -10.20656 -10.20380
 Alpha  occ. eigenvalues --  -10.19948 -10.19905 -10.19364 -10.18798 -10.18549
 Alpha  occ. eigenvalues --  -10.18417 -10.18171 -10.16975  -1.08431  -1.07058
 Alpha  occ. eigenvalues --   -1.02320  -1.02280  -1.00059  -0.98212  -0.97756
 Alpha  occ. eigenvalues --   -0.97104  -0.95002  -0.94961  -0.83169  -0.82507
 Alpha  occ. eigenvalues --   -0.81500  -0.80221  -0.80076  -0.79994  -0.77095
 Alpha  occ. eigenvalues --   -0.76814  -0.76434  -0.75091  -0.74158  -0.72830
 Alpha  occ. eigenvalues --   -0.72117  -0.71300  -0.70707  -0.69034  -0.68161
 Alpha  occ. eigenvalues --   -0.66134  -0.65759  -0.64136  -0.61605  -0.60130
 Alpha  occ. eigenvalues --   -0.59235  -0.58407  -0.58257  -0.57629  -0.56177
 Alpha  occ. eigenvalues --   -0.55399  -0.54941  -0.54660  -0.54092  -0.53236
 Alpha  occ. eigenvalues --   -0.52763  -0.51582  -0.51429  -0.50620  -0.49344
 Alpha  occ. eigenvalues --   -0.49001  -0.48350  -0.47972  -0.47545  -0.47087
 Alpha  occ. eigenvalues --   -0.46789  -0.46160  -0.45884  -0.45397  -0.45213
 Alpha  occ. eigenvalues --   -0.44883  -0.44627  -0.44517  -0.44387  -0.43619
 Alpha  occ. eigenvalues --   -0.43208  -0.42973  -0.42737  -0.42501  -0.42127
 Alpha  occ. eigenvalues --   -0.41900  -0.41763  -0.41500  -0.41262  -0.41005
 Alpha  occ. eigenvalues --   -0.40387  -0.40226  -0.39961  -0.39707  -0.39633
 Alpha  occ. eigenvalues --   -0.39175  -0.39051  -0.38808  -0.38574  -0.38288
 Alpha  occ. eigenvalues --   -0.37846  -0.37669  -0.37146  -0.36926  -0.36782
 Alpha  occ. eigenvalues --   -0.36073  -0.35631  -0.35591  -0.35261  -0.34440
 Alpha  occ. eigenvalues --   -0.33784  -0.33615  -0.32765  -0.31501  -0.31385
 Alpha  occ. eigenvalues --   -0.30778  -0.29801  -0.29356  -0.28791  -0.28264
 Alpha  occ. eigenvalues --   -0.26393  -0.25948  -0.25538  -0.25323  -0.24952
 Alpha  occ. eigenvalues --   -0.24629  -0.24291  -0.23543  -0.22881  -0.19664
 Alpha virt. eigenvalues --   -0.11660  -0.07251  -0.06486  -0.01554  -0.01524
 Alpha virt. eigenvalues --    0.00266   0.01025   0.01836   0.02426   0.02510
 Alpha virt. eigenvalues --    0.02755   0.03518   0.04172   0.04249   0.04329

 Mulliken charges:
               1
     1  O   -0.265252
     2  O   -0.245287
     3  O   -0.223073
     4  O   -0.281256
     5  O   -0.195011
     6  O   -0.199678
     7  N   -0.117839
     8  N   -0.110297
     9  N   -0.147291
    10  N   -0.241338
    11  C   -0.047792
    12  C    0.132675
    13  C   -0.049643
    14  C   -0.202156
    15  C   -0.065039
    16  C    0.027901
    17  C   -0.134843
    18  C    0.064317
    19  C   -0.050199
    20  C   -0.117310
    21  C    0.071088
    22  C    0.128223
    23  C   -0.109156
    24  C    0.228901
    25  C    0.003112
    26  C   -0.087846
    27  C    0.007787
    28  C    0.155738
    29  C    0.157460
    30  C   -0.013069
    31  C   -0.091992
    32  C    0.006967
    33  C   -0.144273
    34  C    0.136184
    35  C    0.041265
    36  C   -0.032765
    37  C    0.185103
    38  C    0.035470
    39  C   -0.251850
    40  C    0.154739
    41  C    0.008167
    42  C    0.143505
    43  C   -0.105198
    44  H    0.053047
    45  H    0.044979
    46  H    0.006906
    47  H    0.145732
    48  H    0.121931
    49  H    0.006890
    50  H    0.038175
    51  H    0.003240
    52  H   -0.053010
    53  H   -0.014707
    54  H    0.017250
    55  H    0.038073
    56  H    0.062767
    57  H    0.065477
    58  H    0.053459
    59  H    0.042107
    60  H    0.227999
    61  H   -0.030337
    62  H    0.029878
    63  H    0.042813
    64  H    0.048442
    65  H    0.079795
    66  H    0.051508
    67  H    0.049468
    68  H    0.049589
    69  H    0.005347
    70  H    0.016234
    71  H    0.031483
    72  H    0.220140
    73  H    0.009257
    74  H   -0.009147
    75  H    0.016518
    76  H    0.064407
    77  H    0.221984
    78  H    0.039113
    79  H    0.044048
 Sum of Mulliken charges =  -0.00000

 Dipole moment (field-independent basis, Debye):
    X=             -0.2959    Y=              1.2008    Z=              2.6071  Tot=              2.8855
 Quadrupole moment (field-independent basis, Debye-Ang):
   XX=           -215.0477   YY=           -245.4202   ZZ=           -265.9439
   XY=             -9.7483   XZ=             33.6342   YZ=              1.7482

 Normal termination of Gaussian 16 at Wed Oct  9 12:12:55 2019.
