 Gaussian 16, Revision A.03,
 Gaussian 16:  ES64L-G16RevA.03 25-Dec-2016

 --------------------------
 # td=(NStates=1) B3LYP/SVP
 --------------------------

 --
 TD
 --
 Symbolic Z-matrix:
 Charge =  0 Multiplicity = 1

                         Standard orientation:
 ---------------------------------------------------------------------
 Center     Atomic      Atomic             Coordinates (Angstroms)
 Number     Number       Type             X           Y           Z
 ---------------------------------------------------------------------
      1          8           0       -3.230818   -1.042412   -3.048229
      2          8           0        3.418277    2.633310    3.204294
      3          8           0        3.403109    0.893792    4.872389
      4          8           0        7.756032   -1.471778   -0.976113
      5          8           0        6.680654   -2.631582   -2.459959
      6          8           0       -2.654171    1.452008    1.691052
      7          7           0       -0.266952   -2.562764    0.705149
      8          7           0       -2.621850   -1.147065   -0.756229
      9          7           0        1.091906    0.163876   -0.699846
     10          7           0       -0.936706    1.514202   -0.002587
     11          6           0       -3.296881   -1.445396    0.491979
     12          6           0       -2.743979   -2.569086    1.375473
     13          6           0       -1.240332   -2.284286    1.631049
     14          6           0       -0.669092   -1.556600    2.710748
     15          6           0        0.774760   -1.422518    2.421639
     16          6           0        0.960821   -1.969997    1.130990
     17          6           0       -4.604868   -1.894642    0.038545
     18          6           0        1.941042   -0.783012    3.123096
     19          6           0       -4.736144   -1.836697   -1.292247
     20          6           0        2.102881   -1.925835    0.130628
     21          6           0        2.060238   -0.868581   -0.702022
     22          6           0       -3.491133   -1.302513   -1.868963
     23          6           0        2.922059   -0.440823   -1.851740
     24          6           0       -1.257613   -0.935045    3.892195
     25          6           0       -5.656699   -2.399905    0.979209
     26          6           0        2.469488    0.708589   -2.429059
     27          6           0        1.994416    0.789183    2.749990
     28          6           0        1.339713    1.106788   -1.685724
     29          6           0        4.162120   -1.243498   -2.240235
     30          6           0       -5.865736   -2.186242   -2.371737
     31          6           0        5.408975   -0.775830   -1.345757
     32          6           0        3.146253    1.515565   -3.487547
     33          6           0        0.381565    2.240144   -1.763282
     34          6           0        2.993712    1.370320    3.803767
     35          6           0       -0.634598    2.414508   -0.947154
     36          6           0       -6.999770   -2.835924   -2.038248
     37          6           0        6.716414   -1.719888   -1.699279
     38          6           0       -1.499016    3.639079   -0.842746
     39          6           0       -2.434941    3.309416    0.189692
     40          6           0       -1.994265    1.952645    0.704140
     41          6           0       -1.333108    4.711937   -1.792022
     42          6           0       -3.493124    4.221318    0.781846
     43          6           0       -1.979052    5.965053   -1.705363
     44          1           0       -3.284721   -0.570114    1.345789
     45          1           0       -2.707287   -3.475438    0.797847
     46          1           0       -3.302328   -2.545663    2.380913
     47          1           0       -0.400577   -2.705119   -0.296855
     48          1           0       -2.013399   -0.380450   -0.752722
     49          1           0        1.888036   -0.911714    4.353109
     50          1           0        3.055652   -1.260365    3.044488
     51          1           0        2.846526   -2.932200    0.076186
     52          1           0       -2.382653   -1.331569    4.150282
     53          1           0       -0.493020   -0.776696    4.628517
     54          1           0       -1.666393    0.080646    3.554882
     55          1           0       -5.580202   -1.664846    1.840576
     56          1           0       -5.304863   -3.429015    1.307500
     57          1           0       -6.715233   -2.446715    0.715227
     58          1           0        2.155997    1.175490    1.762831
     59          1           0        0.936354    1.147343    2.603472
     60          1           0        0.352163    0.417299    0.057755
     61          1           0        4.604249   -1.179586   -3.367743
     62          1           0        4.040077   -2.245000   -1.925578
     63          1           0       -5.591037   -1.685341   -3.304657
     64          1           0        5.472671   -1.015449   -0.374568
     65          1           0        5.691695    0.383619   -1.596702
     66          1           0        4.000186    1.081818   -3.979519
     67          1           0        3.472423    2.597273   -3.029387
     68          1           0        2.556474    2.115827   -4.264676
     69          1           0        0.441895    2.841042   -2.775170
     70          1           0       -7.082461   -3.402730   -1.049858
     71          1           0       -7.816505   -2.971671   -2.676131
     72          1           0        3.993983    2.900519    3.894530
     73          1           0       -0.770025    4.463938   -2.663951
     74          1           0       -3.893718    4.780958   -0.152496
     75          1           0       -4.279244    3.425745    1.360172
     76          1           0       -2.900398    4.905651    1.378150
     77          1           0        8.462248   -2.284967   -1.283092
     78          1           0       -1.981986    6.775940   -2.647883
     79          1           0       -2.318667    6.387739   -0.655288
 ---------------------------------------------------------------------

 SCF Done:  E(RB3LYP) =  -1947.79504594     A.U. after   19 cycles

 Excitation energies and oscillator strengths:

 Excited State   1:      Singlet-A      1.0277 eV 1206.42 nm  f=0.0020  <S**2>=0.000
     155 ->156         0.70384
 This state for optimization and/or second-order correction.
 Total Energy, E(TD-HF/TD-DFT) =  -1947.75727848
 Copying the excited state density for this state as the 1-particle RhoCI density.

 The electronic state is 1-A.
 Alpha  occ. eigenvalues --  -19.21004 -19.17620 -19.15298 -19.13596 -19.11247
 Alpha  occ. eigenvalues --  -19.08982 -14.37895 -14.36688 -14.32672 -14.30897
 Alpha  occ. eigenvalues --  -10.33779 -10.33002 -10.28175 -10.27995 -10.26799
 Alpha  occ. eigenvalues --  -10.26753 -10.25420 -10.24276 -10.24255 -10.23601
 Alpha  occ. eigenvalues --  -10.23515 -10.23451 -10.23301 -10.22805 -10.22395
 Alpha  occ. eigenvalues --  -10.22056 -10.21664 -10.21639 -10.21638 -10.21244
 Alpha  occ. eigenvalues --  -10.21113 -10.21079 -10.20982 -10.20979 -10.20303
 Alpha  occ. eigenvalues --  -10.19866 -10.19848 -10.19675 -10.18545 -10.18381
 Alpha  occ. eigenvalues --  -10.18257 -10.18204 -10.17754  -1.12738  -1.07301
 Alpha  occ. eigenvalues --   -1.02189  -1.00662  -1.00113  -0.99984  -0.99177
 Alpha  occ. eigenvalues --   -0.95430  -0.93820  -0.92365  -0.83838  -0.82781
 Alpha  occ. eigenvalues --   -0.80598  -0.80267  -0.79475  -0.78576  -0.78257
 Alpha  occ. eigenvalues --   -0.76836  -0.75586  -0.74506  -0.73853  -0.72905
 Alpha  occ. eigenvalues --   -0.70832  -0.69922  -0.69356  -0.69095  -0.67017
 Alpha  occ. eigenvalues --   -0.66004  -0.64941  -0.62656  -0.60562  -0.59932
 Alpha  occ. eigenvalues --   -0.59516  -0.58479  -0.58174  -0.57535  -0.56680
 Alpha  occ. eigenvalues --   -0.55716  -0.55281  -0.53982  -0.53593  -0.53018
 Alpha  occ. eigenvalues --   -0.52038  -0.51028  -0.50422  -0.50356  -0.49902
 Alpha  occ. eigenvalues --   -0.49504  -0.49138  -0.48510  -0.48405  -0.47765
 Alpha  occ. eigenvalues --   -0.47412  -0.46410  -0.46178  -0.45958  -0.45485
 Alpha  occ. eigenvalues --   -0.45210  -0.44729  -0.44528  -0.44158  -0.43948
 Alpha  occ. eigenvalues --   -0.43137  -0.42679  -0.42253  -0.42071  -0.41954
 Alpha  occ. eigenvalues --   -0.41598  -0.41467  -0.41342  -0.41164  -0.41034
 Alpha  occ. eigenvalues --   -0.40667  -0.40265  -0.40061  -0.39690  -0.39440
 Alpha  occ. eigenvalues --   -0.39285  -0.38987  -0.38849  -0.38201  -0.37934
 Alpha  occ. eigenvalues --   -0.37807  -0.37264  -0.36733  -0.36543  -0.36117
 Alpha  occ. eigenvalues --   -0.35976  -0.35734  -0.35272  -0.35120  -0.33974
 Alpha  occ. eigenvalues --   -0.33943  -0.33854  -0.32908  -0.32529  -0.31523
 Alpha  occ. eigenvalues --   -0.30593  -0.29835  -0.29250  -0.29166  -0.29141
 Alpha  occ. eigenvalues --   -0.28877  -0.27305  -0.25386  -0.24700  -0.24017
 Alpha  occ. eigenvalues --   -0.23457  -0.22922  -0.22610  -0.22439  -0.19449
 Alpha virt. eigenvalues --   -0.13121  -0.07890  -0.03681  -0.02635  -0.02465
 Alpha virt. eigenvalues --   -0.00720   0.00559   0.00809   0.01711   0.01798
 Alpha virt. eigenvalues --    0.02789   0.04014   0.04030   0.04316   0.04875

 Mulliken charges:
               1
     1  O   -0.249927
     2  O   -0.223282
     3  O   -0.225043
     4  O   -0.198516
     5  O   -0.224503
     6  O   -0.292875
     7  N   -0.082780
     8  N   -0.201146
     9  N   -0.162998
    10  N   -0.299855
    11  C   -0.012846
    12  C    0.220730
    13  C   -0.105067
    14  C   -0.123635
    15  C   -0.054896
    16  C   -0.064015
    17  C   -0.166808
    18  C   -0.049223
    19  C   -0.089672
    20  C   -0.163208
    21  C    0.220499
    22  C    0.148736
    23  C   -0.078242
    24  C    0.073057
    25  C    0.068240
    26  C   -0.043299
    27  C   -0.028578
    28  C    0.082904
    29  C    0.089873
    30  C    0.047559
    31  C   -0.043753
    32  C    0.036426
    33  C   -0.138858
    34  C    0.219836
    35  C    0.134727
    36  C   -0.027448
    37  C    0.096949
    38  C    0.053970
    39  C   -0.200583
    40  C    0.199673
    41  C   -0.010344
    42  C    0.019131
    43  C   -0.115478
    44  H    0.091495
    45  H   -0.037839
    46  H    0.024180
    47  H    0.124557
    48  H    0.114304
    49  H    0.060000
    50  H    0.032107
    51  H    0.085164
    52  H    0.004150
    53  H    0.011042
    54  H    0.039960
    55  H    0.024572
    56  H    0.043725
    57  H    0.030273
    58  H    0.015370
    59  H    0.063998
    60  H    0.222085
    61  H    0.068310
    62  H    0.000201
    63  H    0.016743
    64  H    0.015061
    65  H    0.069100
    66  H    0.028249
    67  H    0.037193
    68  H    0.033576
    69  H    0.026741
    70  H    0.033286
    71  H    0.007857
    72  H    0.148341
    73  H   -0.011801
    74  H    0.050460
    75  H    0.078830
    76  H    0.049342
    77  H    0.241673
    78  H    0.060891
    79  H    0.061367
 Sum of Mulliken charges =  -0.00000

 Dipole moment (field-independent basis, Debye):
    X=              5.2303    Y=              1.9024    Z=             -1.5123  Tot=              5.7673
 Quadrupole moment (field-independent basis, Debye-Ang):
   XX=           -226.9328   YY=           -239.6009   ZZ=           -274.6450
   XY=              3.2182   XZ=            -19.7736   YZ=            -12.1963

 Normal termination of Gaussian 16 at Tue Jul 30 06:09:42 2019.
