 Gaussian 16, Revision A.03,
 Gaussian 16:  ES64L-G16RevA.03 25-Dec-2016

 --------------------------
 # td=(NStates=1) B3LYP/SVP
 --------------------------

 --
 TD
 --
 Symbolic Z-matrix:
 Charge =  0 Multiplicity = 1

                         Standard orientation:
 ---------------------------------------------------------------------
 Center     Atomic      Atomic             Coordinates (Angstroms)
 Number     Number       Type             X           Y           Z
 ---------------------------------------------------------------------
      1          8           0       -3.425676   -0.979345   -2.952612
      2          8           0        2.972364    2.957655    3.310209
      3          8           0        3.625169    1.119768    4.443863
      4          8           0        7.746565   -1.472217   -0.930715
      5          8           0        6.476450   -3.165085   -2.020866
      6          8           0       -2.741596    1.559011    1.349122
      7          7           0       -0.212542   -2.533902    0.726723
      8          7           0       -2.687013   -1.068078   -0.702513
      9          7           0        1.056442    0.085828   -0.773285
     10          7           0       -0.970708    1.455989   -0.148708
     11          6           0       -3.392211   -1.335149    0.560314
     12          6           0       -2.657233   -2.494645    1.390681
     13          6           0       -1.203601   -2.192529    1.599674
     14          6           0       -0.619371   -1.532865    2.708623
     15          6           0        0.750213   -1.380328    2.370129
     16          6           0        0.951427   -1.980059    1.160288
     17          6           0       -4.748657   -1.885007    0.118517
     18          6           0        1.818992   -0.769314    3.082452
     19          6           0       -4.848505   -2.016351   -1.208553
     20          6           0        2.063311   -1.995452    0.131002
     21          6           0        2.081363   -0.945604   -0.715743
     22          6           0       -3.582387   -1.343104   -1.787967
     23          6           0        2.958545   -0.602990   -1.804346
     24          6           0       -1.358348   -0.876197    3.739911
     25          6           0       -5.758764   -2.340618    1.258130
     26          6           0        2.543452    0.665417   -2.326703
     27          6           0        1.976941    0.798525    2.775380
     28          6           0        1.380115    1.077096   -1.650883
     29          6           0        4.247479   -1.372437   -2.195900
     30          6           0       -5.882065   -2.219982   -2.125166
     31          6           0        5.373066   -1.137953   -1.157467
     32          6           0        3.155257    1.471734   -3.479885
     33          6           0        0.601353    2.255705   -1.854967
     34          6           0        2.922873    1.645955    3.558915
     35          6           0       -0.480427    2.377334   -1.127554
     36          6           0       -6.970115   -3.060434   -1.896488
     37          6           0        6.619363   -1.957381   -1.489932
     38          6           0       -1.354239    3.636862   -1.040607
     39          6           0       -2.286841    3.479052    0.000386
     40          6           0       -2.009751    2.097128    0.439463
     41          6           0       -1.071319    4.867575   -1.812556
     42          6           0       -3.240724    4.366411    0.578234
     43          6           0       -1.598998    6.092037   -1.698681
     44          1           0       -3.363839   -0.471036    1.267260
     45          1           0       -2.785996   -3.327011    0.709952
     46          1           0       -3.072487   -2.558071    2.434603
     47          1           0       -0.500007   -2.942770   -0.142794
     48          1           0       -1.905951   -0.407640   -0.906174
     49          1           0        1.845205   -0.704464    4.237821
     50          1           0        2.823591   -1.009098    2.732259
     51          1           0        2.921080   -2.802437    0.226286
     52          1           0       -2.304790   -1.430344    4.065038
     53          1           0       -0.616212   -0.852876    4.546262
     54          1           0       -1.685515    0.251510    3.557923
     55          1           0       -5.234420   -1.922903    2.285905
     56          1           0       -5.844073   -3.477820    1.379388
     57          1           0       -6.687175   -1.817225    0.971358
     58          1           0        2.250686    1.085096    1.760407
     59          1           0        1.014848    1.349030    2.908702
     60          1           0        0.285486    0.287606   -0.192473
     61          1           0        4.638191   -0.995587   -3.244368
     62          1           0        3.964252   -2.526111   -2.186858
     63          1           0       -5.911682   -1.582239   -3.168218
     64          1           0        4.856465   -1.428774   -0.135555
     65          1           0        5.739441   -0.128437   -1.126130
     66          1           0        4.023570    0.755311   -3.762017
     67          1           0        3.307256    2.508666   -3.131007
     68          1           0        2.261101    1.529158   -4.190443
     69          1           0        0.899395    2.868708   -2.669901
     70          1           0       -6.911219   -3.729936   -0.886352
     71          1           0       -7.822317   -3.029531   -2.469935
     72          1           0        3.758706    3.107848    3.843046
     73          1           0       -0.321899    4.733328   -2.666968
     74          1           0       -3.860592    4.834574   -0.155120
     75          1           0       -3.552667    3.702314    1.501177
     76          1           0       -2.588925    5.185677    1.224381
     77          1           0        8.440818   -2.158486   -1.250350
     78          1           0       -1.383044    6.891636   -2.308458
     79          1           0       -2.487900    6.120599   -0.958373
 ---------------------------------------------------------------------

 SCF Done:  E(RB3LYP) =  -1947.86654819     A.U. after   19 cycles

 Excitation energies and oscillator strengths:

 Excited State   1:      Singlet-A      0.9694 eV 1278.96 nm  f=0.0001  <S**2>=0.000
     155 ->156         0.70300
 This state for optimization and/or second-order correction.
 Total Energy, E(TD-HF/TD-DFT) =  -1947.83092286
 Copying the excited state density for this state as the 1-particle RhoCI density.

 The electronic state is 1-A.
 Alpha  occ. eigenvalues --  -19.22738 -19.19294 -19.14435 -19.11908 -19.10388
 Alpha  occ. eigenvalues --  -19.08500 -14.37783 -14.37057 -14.32714 -14.30902
 Alpha  occ. eigenvalues --  -10.35123 -10.31835 -10.27143 -10.27079 -10.27037
 Alpha  occ. eigenvalues --  -10.26643 -10.25297 -10.25115 -10.24694 -10.24314
 Alpha  occ. eigenvalues --  -10.23977 -10.23389 -10.23342 -10.22091 -10.21524
 Alpha  occ. eigenvalues --  -10.21431 -10.21186 -10.21131 -10.20991 -10.20681
 Alpha  occ. eigenvalues --  -10.20571 -10.20492 -10.20087 -10.20058 -10.19942
 Alpha  occ. eigenvalues --  -10.19857 -10.19652 -10.19534 -10.18745 -10.18229
 Alpha  occ. eigenvalues --  -10.18067 -10.17444 -10.16527  -1.11178  -1.10955
 Alpha  occ. eigenvalues --   -1.00145  -0.99544  -0.99203  -0.99152  -0.98032
 Alpha  occ. eigenvalues --   -0.98020  -0.91511  -0.90075  -0.84293  -0.83393
 Alpha  occ. eigenvalues --   -0.81570  -0.81144  -0.80017  -0.79567  -0.79537
 Alpha  occ. eigenvalues --   -0.77461  -0.76429  -0.76113  -0.74222  -0.72940
 Alpha  occ. eigenvalues --   -0.71237  -0.70298  -0.70072  -0.68462  -0.67977
 Alpha  occ. eigenvalues --   -0.67582  -0.65618  -0.62773  -0.61456  -0.60928
 Alpha  occ. eigenvalues --   -0.59542  -0.59149  -0.58611  -0.57067  -0.56919
 Alpha  occ. eigenvalues --   -0.55641  -0.55048  -0.54920  -0.53741  -0.53110
 Alpha  occ. eigenvalues --   -0.52084  -0.51340  -0.51185  -0.50492  -0.49654
 Alpha  occ. eigenvalues --   -0.49466  -0.49361  -0.48969  -0.48561  -0.48119
 Alpha  occ. eigenvalues --   -0.47961  -0.47440  -0.46863  -0.46056  -0.45888
 Alpha  occ. eigenvalues --   -0.45784  -0.45376  -0.45089  -0.45056  -0.44322
 Alpha  occ. eigenvalues --   -0.43795  -0.43218  -0.42899  -0.42660  -0.42310
 Alpha  occ. eigenvalues --   -0.41942  -0.41710  -0.41588  -0.41402  -0.40829
 Alpha  occ. eigenvalues --   -0.40708  -0.40107  -0.39911  -0.39647  -0.39298
 Alpha  occ. eigenvalues --   -0.39014  -0.38855  -0.38744  -0.38408  -0.37901
 Alpha  occ. eigenvalues --   -0.37669  -0.37304  -0.37229  -0.37091  -0.36789
 Alpha  occ. eigenvalues --   -0.36169  -0.35380  -0.35191  -0.34543  -0.34225
 Alpha  occ. eigenvalues --   -0.33785  -0.33460  -0.32729  -0.32702  -0.31916
 Alpha  occ. eigenvalues --   -0.31802  -0.29923  -0.29391  -0.29125  -0.28564
 Alpha  occ. eigenvalues --   -0.27483  -0.27146  -0.25027  -0.24105  -0.23683
 Alpha  occ. eigenvalues --   -0.23532  -0.23123  -0.22762  -0.22213  -0.19554
 Alpha virt. eigenvalues --   -0.13412  -0.07829  -0.05466  -0.03985  -0.01483
 Alpha virt. eigenvalues --    0.00399   0.01184   0.01934   0.02194   0.02425
 Alpha virt. eigenvalues --    0.03214   0.03532   0.04124   0.04524   0.04787

 Mulliken charges:
               1
     1  O   -0.247783
     2  O   -0.147329
     3  O   -0.285163
     4  O   -0.175101
     5  O   -0.325484
     6  O   -0.291665
     7  N   -0.019865
     8  N   -0.254789
     9  N   -0.081730
    10  N   -0.326397
    11  C    0.065120
    12  C    0.219443
    13  C   -0.140090
    14  C   -0.090733
    15  C   -0.015352
    16  C   -0.040269
    17  C   -0.144669
    18  C    0.097954
    19  C   -0.007407
    20  C   -0.155682
    21  C    0.200713
    22  C    0.138727
    23  C   -0.064544
    24  C    0.031247
    25  C    0.014770
    26  C   -0.193371
    27  C   -0.038421
    28  C    0.100833
    29  C    0.014849
    30  C   -0.090928
    31  C    0.004622
    32  C    0.095197
    33  C   -0.126384
    34  C    0.114273
    35  C    0.216046
    36  C   -0.042073
    37  C    0.191131
    38  C    0.045471
    39  C   -0.181685
    40  C    0.180442
    41  C   -0.054710
    42  C    0.038225
    43  C    0.003863
    44  H    0.063236
    45  H   -0.043980
    46  H    0.004995
    47  H    0.109114
    48  H    0.144019
    49  H    0.039131
    50  H   -0.012492
    51  H    0.068474
    52  H    0.006394
    53  H   -0.000715
    54  H    0.061767
    55  H    0.037912
    56  H    0.059046
    57  H    0.052284
    58  H    0.014957
    59  H    0.039797
    60  H    0.146518
    61  H    0.042138
    62  H    0.065714
    63  H    0.060038
    64  H    0.075474
    65  H    0.021322
    66  H    0.044251
    67  H    0.044336
    68  H    0.055136
    69  H   -0.031508
    70  H    0.035744
    71  H    0.001319
    72  H    0.164252
    73  H   -0.004727
    74  H    0.057106
    75  H    0.056849
    76  H    0.050466
    77  H    0.219631
    78  H    0.003441
    79  H    0.017258
 Sum of Mulliken charges =  -0.00000

 Dipole moment (field-independent basis, Debye):
    X=              5.7747    Y=              2.6166    Z=             -1.7692  Tot=              6.5821
 Quadrupole moment (field-independent basis, Debye-Ang):
   XX=           -231.5380   YY=           -242.4592   ZZ=           -272.7650
   XY=              6.5436   XZ=            -24.5771   YZ=            -12.9162

 Normal termination of Gaussian 16 at Sun Jul 28 15:54:34 2019.
