 Gaussian 16, Revision A.03,
 Gaussian 16:  ES64L-G16RevA.03 25-Dec-2016

 --------------------------
 # td=(NStates=1) B3LYP/SVP
 --------------------------

 --
 TD
 --
 Symbolic Z-matrix:
 Charge =  0 Multiplicity = 1

                         Standard orientation:
 ---------------------------------------------------------------------
 Center     Atomic      Atomic             Coordinates (Angstroms)
 Number     Number       Type             X           Y           Z
 ---------------------------------------------------------------------
      1          8           0        5.209675   -0.014924   -3.196685
      2          8           0       -3.061556   -2.949661    3.317783
      3          8           0       -3.428140   -0.748321    3.233721
      4          8           0       -1.638172    7.236885    1.430609
      5          8           0       -0.841693    7.037430   -0.674310
      6          8           0       -1.386888   -3.991834   -0.164261
      7          7           0        2.257166    0.927429    0.599526
      8          7           0        4.193226   -0.469528   -1.137140
      9          7           0       -1.875278    0.577517   -0.237453
     10          7           0       -2.450673   -1.950140   -0.546946
     11          6           0        4.636528   -1.101302    0.059123
     12          6           0        4.386889   -0.186029    1.266348
     13          6           0        2.865963    0.006662    1.458888
     14          6           0        2.026358   -0.621062    2.165120
     15          6           0        0.641251    0.064552    1.927879
     16          6           0        0.865053    0.936890    0.889686
     17          6           0        6.166523   -1.262199   -0.144507
     18          6           0       -0.681811   -0.236126    2.633702
     19          6           0        6.524393   -0.761273   -1.384019
     20          6           0        0.086579    1.981687    0.243211
     21          6           0       -1.183245    1.759938   -0.171349
     22          6           0        5.290791   -0.343944   -2.021114
     23          6           0       -1.968330    2.827071   -0.938783
     24          6           0        2.239270   -1.670394    3.185857
     25          6           0        7.111133   -1.874515    0.888066
     26          6           0       -3.103702    2.224539   -1.445222
     27          6           0       -1.207651   -1.661495    2.617152
     28          6           0       -3.021760    0.903480   -1.034435
     29          6           0       -1.613532    4.331424   -0.998651
     30          6           0        7.815799   -0.666662   -2.065277
     31          6           0       -1.944306    5.124430    0.330817
     32          6           0       -4.293303    2.912054   -1.925301
     33          6           0       -3.902538   -0.115472   -1.451860
     34          6           0       -2.648623   -1.709949    3.026956
     35          6           0       -3.573378   -1.594203   -1.116109
     36          6           0        9.104007   -0.697207   -1.550111
     37          6           0       -1.476687    6.608203    0.310810
     38          6           0       -4.426421   -2.717371   -1.439835
     39          6           0       -3.589668   -3.838267   -1.207652
     40          6           0       -2.303110   -3.339107   -0.586894
     41          6           0       -5.653881   -2.587048   -2.272806
     42          6           0       -3.867538   -5.275160   -1.215003
     43          6           0       -6.436613   -3.670299   -2.494273
     44          1           0        4.207566   -1.970528    0.287266
     45          1           0        4.900982    0.813151    1.042562
     46          1           0        4.895633   -0.715650    2.172380
     47          1           0        2.864759    1.627269    0.138698
     48          1           0        3.157115   -0.261746   -1.408361
     49          1           0       -0.651715    0.272443    3.716760
     50          1           0       -1.483343    0.429539    2.154583
     51          1           0        0.531342    2.835603   -0.008379
     52          1           0        3.364440   -1.672469    3.357696
     53          1           0        1.754436   -1.340465    4.169662
     54          1           0        1.829721   -2.783710    2.869633
     55          1           0        6.558161   -2.797099    1.483158
     56          1           0        7.690483   -1.132069    1.312764
     57          1           0        8.069800   -2.231358    0.368713
     58          1           0       -0.968089   -1.976759    1.721448
     59          1           0       -0.671794   -2.519540    3.143390
     60          1           0       -1.772911   -0.442736   -0.345081
     61          1           0       -2.264713    4.759160   -1.846562
     62          1           0       -0.525726    4.750424   -1.128943
     63          1           0        7.923150   -0.359019   -3.126019
     64          1           0       -1.491809    4.451860    1.298310
     65          1           0       -3.029078    5.030482    0.496398
     66          1           0       -4.140095    4.084580   -2.163317
     67          1           0       -5.097970    2.647196   -1.144957
     68          1           0       -4.617287    2.511963   -2.940813
     69          1           0       -4.814532   -0.053797   -1.949563
     70          1           0        9.327966   -0.677999   -0.451508
     71          1           0       10.047355   -0.491583   -2.218268
     72          1           0       -4.021084   -3.041652    3.361853
     73          1           0       -6.107261   -1.393562   -2.573613
     74          1           0       -4.846787   -5.271039   -0.614092
     75          1           0       -3.612931   -5.758683   -2.255233
     76          1           0       -3.216142   -5.838423   -0.659701
     77          1           0       -1.139177    8.150013    1.345948
     78          1           0       -7.324073   -3.572544   -3.251633
     79          1           0       -6.209926   -4.725895   -1.918430
 ---------------------------------------------------------------------

 SCF Done:  E(RB3LYP) =  -1947.80677587     A.U. after   16 cycles

 Excitation energies and oscillator strengths:

 Excited State   1:      Singlet-A      1.9626 eV  631.74 nm  f=0.3136  <S**2>=0.000
     154 ->156         0.10062
     155 ->156         0.69419
     155 <-156        -0.10217
 This state for optimization and/or second-order correction.
 Total Energy, E(TD-HF/TD-DFT) =  -1947.73465259
 Copying the excited state density for this state as the 1-particle RhoCI density.

 The electronic state is 1-A.
 Alpha  occ. eigenvalues --  -19.21448 -19.17008 -19.13265 -19.12239 -19.10840
 Alpha  occ. eigenvalues --  -19.08558 -14.36282 -14.35452 -14.34697 -14.29620
 Alpha  occ. eigenvalues --  -10.33689 -10.31190 -10.27720 -10.27438 -10.24701
 Alpha  occ. eigenvalues --  -10.24499 -10.24412 -10.23353 -10.23143 -10.22945
 Alpha  occ. eigenvalues --  -10.22579 -10.22534 -10.22455 -10.22374 -10.22234
 Alpha  occ. eigenvalues --  -10.21869 -10.21785 -10.21639 -10.21138 -10.20969
 Alpha  occ. eigenvalues --  -10.20898 -10.20855 -10.20827 -10.20760 -10.20636
 Alpha  occ. eigenvalues --  -10.20258 -10.20134 -10.20038 -10.19924 -10.19743
 Alpha  occ. eigenvalues --  -10.19218 -10.18509 -10.17616  -1.12065  -1.08098
 Alpha  occ. eigenvalues --   -1.03710  -1.00979  -1.00387  -0.97451  -0.97094
 Alpha  occ. eigenvalues --   -0.96282  -0.93716  -0.92930  -0.83041  -0.81566
 Alpha  occ. eigenvalues --   -0.81210  -0.80507  -0.80019  -0.78977  -0.77130
 Alpha  occ. eigenvalues --   -0.76811  -0.76513  -0.75171  -0.74114  -0.72092
 Alpha  occ. eigenvalues --   -0.71292  -0.70728  -0.70129  -0.68546  -0.67794
 Alpha  occ. eigenvalues --   -0.66798  -0.65339  -0.63348  -0.61452  -0.61032
 Alpha  occ. eigenvalues --   -0.60162  -0.59583  -0.57960  -0.56594  -0.56171
 Alpha  occ. eigenvalues --   -0.56134  -0.54763  -0.53629  -0.53526  -0.52632
 Alpha  occ. eigenvalues --   -0.51978  -0.51726  -0.51158  -0.50761  -0.49989
 Alpha  occ. eigenvalues --   -0.49641  -0.49014  -0.48751  -0.47807  -0.47412
 Alpha  occ. eigenvalues --   -0.46786  -0.46599  -0.46141  -0.45808  -0.45542
 Alpha  occ. eigenvalues --   -0.45275  -0.45024  -0.44689  -0.44178  -0.43609
 Alpha  occ. eigenvalues --   -0.43412  -0.42839  -0.42359  -0.41935  -0.41869
 Alpha  occ. eigenvalues --   -0.41641  -0.41336  -0.41260  -0.41093  -0.40625
 Alpha  occ. eigenvalues --   -0.40371  -0.40152  -0.40009  -0.39423  -0.39247
 Alpha  occ. eigenvalues --   -0.39232  -0.38663  -0.38583  -0.37982  -0.37895
 Alpha  occ. eigenvalues --   -0.37620  -0.37339  -0.36985  -0.36787  -0.36452
 Alpha  occ. eigenvalues --   -0.36160  -0.35978  -0.35205  -0.34421  -0.34341
 Alpha  occ. eigenvalues --   -0.33864  -0.33438  -0.33099  -0.31242  -0.30961
 Alpha  occ. eigenvalues --   -0.30627  -0.30298  -0.29342  -0.28899  -0.28766
 Alpha  occ. eigenvalues --   -0.26349  -0.26181  -0.25394  -0.24896  -0.24461
 Alpha  occ. eigenvalues --   -0.24143  -0.23473  -0.23068  -0.22514  -0.19513
 Alpha virt. eigenvalues --   -0.11626  -0.06832  -0.05690  -0.01837  -0.01521
 Alpha virt. eigenvalues --    0.00431   0.00817   0.01275   0.02107   0.02769
 Alpha virt. eigenvalues --    0.03113   0.03367   0.04232   0.04511   0.05003

 Mulliken charges:
               1
     1  O   -0.230585
     2  O   -0.174104
     3  O   -0.274275
     4  O   -0.153223
     5  O   -0.273835
     6  O   -0.166972
     7  N   -0.160298
     8  N   -0.258291
     9  N   -0.093739
    10  N   -0.273513
    11  C    0.189732
    12  C    0.105096
    13  C   -0.042906
    14  C   -0.125632
    15  C   -0.109451
    16  C    0.104270
    17  C   -0.194001
    18  C    0.025177
    19  C    0.031938
    20  C   -0.029287
    21  C    0.130111
    22  C    0.139936
    23  C   -0.063370
    24  C    0.022942
    25  C    0.086731
    26  C   -0.084820
    27  C    0.090619
    28  C    0.114631
    29  C    0.018457
    30  C   -0.016695
    31  C   -0.099572
    32  C    0.028630
    33  C   -0.033021
    34  C    0.151160
    35  C    0.006616
    36  C   -0.109800
    37  C    0.170053
    38  C    0.009978
    39  C   -0.233781
    40  C    0.169873
    41  C   -0.060896
    42  C    0.107299
    43  C   -0.099133
    44  H   -0.036462
    45  H   -0.004724
    46  H    0.019456
    47  H    0.126386
    48  H    0.167322
    49  H    0.022511
    50  H    0.035444
    51  H   -0.074159
    52  H    0.002119
    53  H    0.036934
    54  H    0.058345
    55  H    0.066307
    56  H    0.011104
    57  H    0.020194
    58  H   -0.007226
    59  H    0.029429
    60  H    0.149356
    61  H    0.031398
    62  H    0.057639
    63  H    0.026966
    64  H    0.074945
    65  H    0.035990
    66  H    0.044637
    67  H    0.060788
    68  H    0.033450
    69  H   -0.071614
    70  H    0.015520
    71  H    0.051112
    72  H    0.181785
    73  H    0.065449
    74  H    0.052795
    75  H    0.051525
    76  H   -0.014738
    77  H    0.224637
    78  H    0.047560
    79  H    0.065768
 Sum of Mulliken charges =  -0.00000

 Dipole moment (field-independent basis, Debye):
    X=             -1.5494    Y=              2.0730    Z=              2.8891  Tot=              3.8788
 Quadrupole moment (field-independent basis, Debye-Ang):
   XX=           -220.4447   YY=           -230.3033   ZZ=           -270.5154
   XY=              0.0544   XZ=             34.3493   YZ=              6.5210

 Normal termination of Gaussian 16 at Thu Oct 10 16:00:54 2019.
