 Gaussian 16, Revision A.03,
 Gaussian 16:  ES64L-G16RevA.03 25-Dec-2016

 --------------------------
 # td=(NStates=1) B3LYP/SVP
 --------------------------

 --
 TD
 --
 Symbolic Z-matrix:
 Charge =  0 Multiplicity = 1

                         Standard orientation:
 ---------------------------------------------------------------------
 Center     Atomic      Atomic             Coordinates (Angstroms)
 Number     Number       Type             X           Y           Z
 ---------------------------------------------------------------------
      1          8           0        5.462571   -0.014459   -3.287700
      2          8           0       -3.066743   -2.942482    2.971398
      3          8           0       -3.228429   -0.722311    3.022041
      4          8           0       -1.897060    7.236392    1.461470
      5          8           0       -0.807591    7.168775   -0.554393
      6          8           0       -1.608612   -4.092923   -0.164459
      7          7           0        2.399340    1.016330    0.552354
      8          7           0        4.416150   -0.427992   -1.268017
      9          7           0       -1.847129    0.691506   -0.417553
     10          7           0       -2.516531   -1.991396   -0.611112
     11          6           0        4.790703   -1.038718    0.042572
     12          6           0        4.478498   -0.275051    1.356437
     13          6           0        2.969034    0.019750    1.362160
     14          6           0        1.985218   -0.629436    2.115145
     15          6           0        0.696031    0.037536    1.697951
     16          6           0        1.026174    1.052994    0.862556
     17          6           0        6.299342   -1.315889   -0.103374
     18          6           0       -0.578858   -0.285193    2.490966
     19          6           0        6.766038   -0.837126   -1.331403
     20          6           0        0.250192    1.959268    0.126808
     21          6           0       -1.115229    1.809808   -0.381566
     22          6           0        5.537387   -0.421700   -2.092751
     23          6           0       -2.001498    2.897796   -0.842355
     24          6           0        2.190830   -1.713001    3.172700
     25          6           0        7.191827   -1.704576    0.979897
     26          6           0       -3.147438    2.275349   -1.297484
     27          6           0       -1.070909   -1.670979    2.403441
     28          6           0       -3.100313    0.879895   -1.061793
     29          6           0       -1.673332    4.332269   -0.913574
     30          6           0        7.994858   -0.750332   -1.974199
     31          6           0       -1.704964    5.116962    0.478790
     32          6           0       -4.333068    2.886873   -1.831795
     33          6           0       -3.975499   -0.136245   -1.288391
     34          6           0       -2.547106   -1.713711    2.821478
     35          6           0       -3.662191   -1.533704   -1.078100
     36          6           0        9.242120   -1.014759   -1.462079
     37          6           0       -1.483481    6.590167    0.297378
     38          6           0       -4.578391   -2.695545   -1.471284
     39          6           0       -4.007275   -3.810661   -0.984789
     40          6           0       -2.535974   -3.381335   -0.499150
     41          6           0       -5.922437   -2.470547   -1.969982
     42          6           0       -4.316774   -5.276419   -0.929929
     43          6           0       -6.810839   -3.449066   -2.280013
     44          1           0        4.191261   -1.990516    0.170721
     45          1           0        5.090211    0.616456    1.252737
     46          1           0        4.803956   -1.019746    2.185929
     47          1           0        2.811099    1.536202   -0.187471
     48          1           0        3.542766   -0.597344   -1.638716
     49          1           0       -0.590015    0.006259    3.421322
     50          1           0       -1.274803    0.317968    1.863097
     51          1           0        0.694944    3.072338    0.054815
     52          1           0        3.197321   -1.752377    3.236914
     53          1           0        1.618824   -1.553581    4.006727
     54          1           0        1.872201   -2.624497    2.824352
     55          1           0        6.458813   -2.275605    1.902418
     56          1           0        7.786774   -0.869793    1.485548
     57          1           0        7.943599   -2.680500    0.774837
     58          1           0       -1.098670   -2.329788    1.442127
     59          1           0       -0.561156   -2.445339    3.004579
     60          1           0       -1.736316   -0.385357   -0.181556
     61          1           0       -2.175540    4.913436   -1.692752
     62          1           0       -0.703790    4.599870   -1.356571
     63          1           0        7.791656   -0.264126   -3.014721
     64          1           0       -1.005149    4.715871    1.207339
     65          1           0       -2.626811    4.590775    0.941245
     66          1           0       -4.218476    4.018810   -1.951297
     67          1           0       -5.391461    2.658556   -1.333351
     68          1           0       -4.625407    2.393918   -2.703116
     69          1           0       -5.034578   -0.079134   -1.647633
     70          1           0        9.432285   -1.464933   -0.392111
     71          1           0       10.071714   -0.800469   -2.130235
     72          1           0       -3.887480   -2.764668    2.977151
     73          1           0       -6.262904   -1.491433   -2.078822
     74          1           0       -5.165045   -5.504387   -0.439225
     75          1           0       -4.337058   -5.629482   -2.019395
     76          1           0       -3.515626   -5.901672   -0.417448
     77          1           0       -1.611647    8.289268    1.462363
     78          1           0       -7.813593   -3.254461   -2.626806
     79          1           0       -6.783834   -4.541639   -2.265153
 ---------------------------------------------------------------------

 SCF Done:  E(RB3LYP) =  -1947.85646784     A.U. after   16 cycles

 Excitation energies and oscillator strengths:

 Excited State   1:      Singlet-A      2.0780 eV  596.66 nm  f=0.4892  <S**2>=0.000
     155 ->156         0.70371
     155 <-156        -0.12905
 This state for optimization and/or second-order correction.
 Total Energy, E(TD-HF/TD-DFT) =  -1947.78010413
 Copying the excited state density for this state as the 1-particle RhoCI density.

 The electronic state is 1-A.
 Alpha  occ. eigenvalues --  -19.18679 -19.16692 -19.14182 -19.11901 -19.11504
 Alpha  occ. eigenvalues --  -19.10005 -14.37693 -14.36433 -14.35662 -14.30150
 Alpha  occ. eigenvalues --  -10.33672 -10.30935 -10.28792 -10.27871 -10.25681
 Alpha  occ. eigenvalues --  -10.25184 -10.24552 -10.24536 -10.24416 -10.23623
 Alpha  occ. eigenvalues --  -10.22999 -10.22900 -10.22658 -10.22639 -10.22305
 Alpha  occ. eigenvalues --  -10.21434 -10.21059 -10.20902 -10.20782 -10.20626
 Alpha  occ. eigenvalues --  -10.20565 -10.20479 -10.20408 -10.20369 -10.20211
 Alpha  occ. eigenvalues --  -10.20118 -10.19761 -10.19488 -10.19420 -10.19410
 Alpha  occ. eigenvalues --  -10.19006 -10.18178 -10.17936  -1.11750  -1.07510
 Alpha  occ. eigenvalues --   -1.02490  -1.00678  -1.00104  -0.99284  -0.98151
 Alpha  occ. eigenvalues --   -0.97154  -0.92972  -0.92789  -0.83104  -0.82651
 Alpha  occ. eigenvalues --   -0.81743  -0.81244  -0.80838  -0.80169  -0.77836
 Alpha  occ. eigenvalues --   -0.77605  -0.76910  -0.75444  -0.74658  -0.73018
 Alpha  occ. eigenvalues --   -0.72125  -0.71188  -0.70189  -0.69009  -0.68453
 Alpha  occ. eigenvalues --   -0.67700  -0.65901  -0.63728  -0.62008  -0.61108
 Alpha  occ. eigenvalues --   -0.60377  -0.59468  -0.59168  -0.57579  -0.57223
 Alpha  occ. eigenvalues --   -0.56668  -0.56460  -0.55347  -0.53663  -0.53174
 Alpha  occ. eigenvalues --   -0.52765  -0.51781  -0.51428  -0.51074  -0.49993
 Alpha  occ. eigenvalues --   -0.48960  -0.48485  -0.48204  -0.48106  -0.47775
 Alpha  occ. eigenvalues --   -0.47382  -0.47027  -0.46596  -0.46055  -0.45957
 Alpha  occ. eigenvalues --   -0.45196  -0.44950  -0.44696  -0.44525  -0.44257
 Alpha  occ. eigenvalues --   -0.43933  -0.43616  -0.43201  -0.43083  -0.42733
 Alpha  occ. eigenvalues --   -0.42486  -0.42261  -0.41703  -0.41598  -0.41140
 Alpha  occ. eigenvalues --   -0.40866  -0.40639  -0.40348  -0.40028  -0.39704
 Alpha  occ. eigenvalues --   -0.39453  -0.39207  -0.39095  -0.38983  -0.38379
 Alpha  occ. eigenvalues --   -0.38244  -0.38058  -0.37840  -0.37674  -0.37422
 Alpha  occ. eigenvalues --   -0.37060  -0.36488  -0.35480  -0.35211  -0.34431
 Alpha  occ. eigenvalues --   -0.33247  -0.33228  -0.32558  -0.32483  -0.31642
 Alpha  occ. eigenvalues --   -0.31509  -0.31098  -0.29453  -0.28748  -0.28164
 Alpha  occ. eigenvalues --   -0.27129  -0.26650  -0.25452  -0.25403  -0.25126
 Alpha  occ. eigenvalues --   -0.24609  -0.24149  -0.23736  -0.23024  -0.19207
 Alpha virt. eigenvalues --   -0.11363  -0.07560  -0.06636  -0.02298  -0.01301
 Alpha virt. eigenvalues --    0.00095   0.01021   0.01536   0.01585   0.02056
 Alpha virt. eigenvalues --    0.03487   0.03967   0.04406   0.04940   0.05493

 Mulliken charges:
               1
     1  O   -0.271673
     2  O   -0.079699
     3  O   -0.248731
     4  O   -0.279771
     5  O   -0.234964
     6  O   -0.196595
     7  N   -0.102711
     8  N   -0.155102
     9  N   -0.141161
    10  N   -0.274071
    11  C    0.036946
    12  C    0.201128
    13  C   -0.065047
    14  C   -0.211317
    15  C   -0.123163
    16  C    0.120063
    17  C   -0.106211
    18  C    0.226771
    19  C   -0.022638
    20  C   -0.132411
    21  C    0.075830
    22  C    0.153902
    23  C   -0.051898
    24  C    0.293720
    25  C   -0.089441
    26  C   -0.085919
    27  C   -0.066266
    28  C    0.188565
    29  C    0.040722
    30  C   -0.044769
    31  C   -0.037686
    32  C    0.084472
    33  C   -0.107006
    34  C    0.094397
    35  C    0.009055
    36  C   -0.043161
    37  C    0.214994
    38  C    0.066125
    39  C   -0.226022
    40  C    0.164819
    41  C    0.018594
    42  C    0.114627
    43  C   -0.047729
    44  H    0.021888
    45  H   -0.014052
    46  H    0.028125
    47  H    0.108857
    48  H    0.114127
    49  H   -0.031570
    50  H    0.007639
    51  H    0.036434
    52  H   -0.052887
    53  H   -0.005809
    54  H   -0.001185
    55  H    0.030218
    56  H    0.074316
    57  H    0.076254
    58  H    0.074412
    59  H    0.009603
    60  H    0.194159
    61  H    0.006804
    62  H    0.012548
    63  H    0.044406
    64  H    0.046564
    65  H    0.053984
    66  H    0.031339
    67  H    0.026218
    68  H   -0.006469
    69  H   -0.015520
    70  H    0.045845
    71  H    0.032418
    72  H    0.091361
    73  H   -0.031535
    74  H   -0.002329
    75  H    0.042860
    76  H    0.032746
    77  H    0.233236
    78  H    0.010114
    79  H    0.015310
 Sum of Mulliken charges =  -0.00000

 Dipole moment (field-independent basis, Debye):
    X=             -0.2719    Y=              0.8699    Z=              3.4463  Tot=              3.5648
 Quadrupole moment (field-independent basis, Debye-Ang):
   XX=           -216.2161   YY=           -244.8769   ZZ=           -267.9045
   XY=             -6.0606   XZ=             36.0506   YZ=              4.1915

 Normal termination of Gaussian 16 at Sat Sep 21 21:16:23 2019.
