 Gaussian 16, Revision A.03,
 Gaussian 16:  ES64L-G16RevA.03 25-Dec-2016

 --------------------------
 # td=(NStates=1) B3LYP/SVP
 --------------------------

 --
 TD
 --
 Symbolic Z-matrix:
 Charge =  0 Multiplicity = 1

                         Standard orientation:
 ---------------------------------------------------------------------
 Center     Atomic      Atomic             Coordinates (Angstroms)
 Number     Number       Type             X           Y           Z
 ---------------------------------------------------------------------
      1          8           0       -3.375599   -1.357162   -2.925249
      2          8           0        3.033799    3.097798    3.060373
      3          8           0        3.777136    1.443974    4.346564
      4          8           0        7.876491   -1.565566   -0.936467
      5          8           0        6.499804   -3.196305   -1.735909
      6          8           0       -2.510010    1.564401    1.460912
      7          7           0       -0.322561   -2.445386    0.953770
      8          7           0       -2.838234   -1.131363   -0.653275
      9          7           0        1.154701    0.025796   -0.823348
     10          7           0       -0.914970    1.416360   -0.261864
     11          6           0       -3.438837   -1.388975    0.714179
     12          6           0       -2.602890   -2.315689    1.661399
     13          6           0       -1.207223   -1.959138    1.826705
     14          6           0       -0.587215   -1.058027    2.798737
     15          6           0        0.854087   -1.131628    2.454753
     16          6           0        0.943664   -1.896079    1.268010
     17          6           0       -4.780211   -1.865995    0.299285
     18          6           0        1.840275   -0.375233    3.166857
     19          6           0       -4.837277   -1.957632   -1.085735
     20          6           0        2.032481   -1.926473    0.246456
     21          6           0        2.052253   -0.885532   -0.732661
     22          6           0       -3.595390   -1.401181   -1.693565
     23          6           0        3.006574   -0.720314   -1.783705
     24          6           0       -1.287553   -0.385884    3.894418
     25          6           0       -5.742685   -2.212767    1.389176
     26          6           0        2.556051    0.361297   -2.464912
     27          6           0        1.807540    1.137728    2.871713
     28          6           0        1.323234    0.869078   -1.906540
     29          6           0        4.336919   -1.450906   -1.996047
     30          6           0       -5.916529   -2.409993   -1.961110
     31          6           0        5.565834   -0.962947   -1.162225
     32          6           0        3.198553    1.085489   -3.699817
     33          6           0        0.545385    1.892745   -2.012300
     34          6           0        2.963372    1.879289    3.582753
     35          6           0       -0.651461    2.248540   -1.262174
     36          6           0       -6.925933   -3.221723   -1.659437
     37          6           0        6.616269   -2.012912   -1.315726
     38          6           0       -1.362653    3.560684   -1.245352
     39          6           0       -2.229551    3.392010   -0.208227
     40          6           0       -1.955317    2.079441    0.483250
     41          6           0       -1.277359    4.521454   -2.281052
     42          6           0       -3.258023    4.256498    0.237069
     43          6           0       -2.041473    5.737799   -2.333940
     44          1           0       -3.489985   -0.310310    1.106644
     45          1           0       -2.752927   -3.167941    1.044742
     46          1           0       -3.199547   -2.234848    2.561712
     47          1           0       -0.480132   -2.957908    0.097420
     48          1           0       -2.076901   -0.445759   -0.695281
     49          1           0        1.558748   -0.599244    4.204541
     50          1           0        2.881687   -0.793406    3.052295
     51          1           0        2.909299   -2.780374    0.304778
     52          1           0       -2.082988   -0.930642    4.542935
     53          1           0       -0.492768    0.058963    4.601740
     54          1           0       -1.705895    0.409989    3.350447
     55          1           0       -5.762306   -1.670242    2.349930
     56          1           0       -5.845527   -3.301508    1.743753
     57          1           0       -6.887776   -2.059824    1.205894
     58          1           0        1.924149    1.472972    1.757148
     59          1           0        0.938173    1.588601    3.177930
     60          1           0        0.341260    0.379847   -0.122172
     61          1           0        4.442851   -1.602594   -3.088058
     62          1           0        4.290364   -2.571154   -1.799903
     63          1           0       -5.936878   -2.223709   -3.177550
     64          1           0        5.194731   -1.084054   -0.114709
     65          1           0        5.774842    0.088846   -1.460868
     66          1           0        4.319187    0.701036   -3.958359
     67          1           0        3.268045    2.219768   -3.321140
     68          1           0        2.540687    1.080472   -4.622275
     69          1           0        0.708743    2.603158   -2.855654
     70          1           0       -6.790456   -3.553889   -0.743537
     71          1           0       -7.667137   -3.532034   -2.514864
     72          1           0        3.693366    3.539250    3.582019
     73          1           0       -0.594341    4.288434   -2.975546
     74          1           0       -4.014825    4.493993   -0.395640
     75          1           0       -3.710362    3.886570    1.306947
     76          1           0       -2.890075    5.219936    0.508156
     77          1           0        8.564266   -2.292624   -1.208602
     78          1           0       -1.814766    6.327758   -3.221884
     79          1           0       -2.789819    5.899359   -1.433185
 ---------------------------------------------------------------------

 SCF Done:  E(RB3LYP) =  -1947.85442727     A.U. after   22 cycles

 Excitation energies and oscillator strengths:

 Excited State   1:      Singlet-A      0.8458 eV 1465.89 nm  f=0.0005  <S**2>=0.000
     155 ->156         0.70343
 This state for optimization and/or second-order correction.
 Total Energy, E(TD-HF/TD-DFT) =  -1947.82334487
 Copying the excited state density for this state as the 1-particle RhoCI density.

 The electronic state is 1-A.
 Alpha  occ. eigenvalues --  -19.19087 -19.18227 -19.14061 -19.13989 -19.12575
 Alpha  occ. eigenvalues --  -19.07033 -14.36853 -14.35502 -14.33165 -14.32408
 Alpha  occ. eigenvalues --  -10.34011 -10.31497 -10.29887 -10.26161 -10.25837
 Alpha  occ. eigenvalues --  -10.24710 -10.24206 -10.23339 -10.23333 -10.23160
 Alpha  occ. eigenvalues --  -10.22864 -10.22588 -10.22302 -10.22059 -10.22049
 Alpha  occ. eigenvalues --  -10.21907 -10.21664 -10.21523 -10.20778 -10.20774
 Alpha  occ. eigenvalues --  -10.20478 -10.20457 -10.20452 -10.20078 -10.19929
 Alpha  occ. eigenvalues --  -10.19402 -10.18883 -10.18772 -10.18671 -10.18071
 Alpha  occ. eigenvalues --  -10.17709 -10.17518 -10.17063  -1.11161  -1.07978
 Alpha  occ. eigenvalues --   -1.03788  -1.01248  -1.00985  -0.98965  -0.98788
 Alpha  occ. eigenvalues --   -0.96430  -0.94970  -0.91658  -0.84086  -0.82652
 Alpha  occ. eigenvalues --   -0.82320  -0.80952  -0.80258  -0.79077  -0.78693
 Alpha  occ. eigenvalues --   -0.77937  -0.76033  -0.75622  -0.73975  -0.72335
 Alpha  occ. eigenvalues --   -0.71715  -0.70570  -0.69780  -0.68214  -0.67775
 Alpha  occ. eigenvalues --   -0.67442  -0.66653  -0.63793  -0.62050  -0.60392
 Alpha  occ. eigenvalues --   -0.60001  -0.59546  -0.58790  -0.57506  -0.57036
 Alpha  occ. eigenvalues --   -0.55914  -0.55363  -0.55046  -0.54120  -0.53397
 Alpha  occ. eigenvalues --   -0.52189  -0.51645  -0.50922  -0.50474  -0.49503
 Alpha  occ. eigenvalues --   -0.49337  -0.48824  -0.48442  -0.48365  -0.48237
 Alpha  occ. eigenvalues --   -0.47844  -0.47303  -0.46979  -0.46061  -0.45834
 Alpha  occ. eigenvalues --   -0.45333  -0.45084  -0.44639  -0.44374  -0.44023
 Alpha  occ. eigenvalues --   -0.42657  -0.42595  -0.42325  -0.42186  -0.42049
 Alpha  occ. eigenvalues --   -0.41863  -0.41628  -0.41492  -0.41174  -0.40633
 Alpha  occ. eigenvalues --   -0.40591  -0.40263  -0.40065  -0.39965  -0.39792
 Alpha  occ. eigenvalues --   -0.39597  -0.39275  -0.38898  -0.38485  -0.38255
 Alpha  occ. eigenvalues --   -0.37951  -0.37647  -0.37220  -0.37098  -0.36444
 Alpha  occ. eigenvalues --   -0.36365  -0.35666  -0.35334  -0.34702  -0.34555
 Alpha  occ. eigenvalues --   -0.34195  -0.32980  -0.32787  -0.32425  -0.32124
 Alpha  occ. eigenvalues --   -0.31709  -0.30985  -0.29803  -0.29673  -0.29137
 Alpha  occ. eigenvalues --   -0.28147  -0.27265  -0.26823  -0.24451  -0.23992
 Alpha  occ. eigenvalues --   -0.22857  -0.22563  -0.22168  -0.21428  -0.18644
 Alpha virt. eigenvalues --   -0.13110  -0.07907  -0.04447  -0.03253  -0.02653
 Alpha virt. eigenvalues --    0.00953   0.01993   0.02587   0.03325   0.03528
 Alpha virt. eigenvalues --    0.03861   0.04534   0.04869   0.04908   0.05573

 Mulliken charges:
               1
     1  O   -0.277545
     2  O   -0.147888
     3  O   -0.212930
     4  O   -0.243850
     5  O   -0.265843
     6  O   -0.202049
     7  N   -0.037281
     8  N   -0.197050
     9  N   -0.094493
    10  N   -0.340773
    11  C    0.024422
    12  C    0.279450
    13  C   -0.102688
    14  C   -0.144405
    15  C   -0.091471
    16  C   -0.016952
    17  C   -0.108635
    18  C    0.117573
    19  C   -0.026049
    20  C   -0.167541
    21  C    0.050251
    22  C    0.134435
    23  C   -0.052445
    24  C    0.083335
    25  C    0.000921
    26  C   -0.099016
    27  C    0.001699
    28  C    0.177114
    29  C    0.006914
    30  C   -0.102059
    31  C    0.066064
    32  C   -0.009066
    33  C   -0.140426
    34  C    0.101919
    35  C    0.083171
    36  C    0.024383
    37  C    0.170795
    38  C    0.071332
    39  C   -0.178412
    40  C    0.208132
    41  C   -0.005232
    42  C    0.090829
    43  C   -0.012129
    44  H    0.060446
    45  H   -0.037690
    46  H   -0.010988
    47  H    0.119670
    48  H    0.135065
    49  H    0.013950
    50  H    0.002580
    51  H    0.054959
    52  H    0.033156
    53  H   -0.000664
    54  H    0.021201
    55  H    0.016756
    56  H    0.038509
    57  H    0.023690
    58  H    0.047552
    59  H    0.003750
    60  H    0.242842
    61  H    0.020064
    62  H    0.031559
    63  H    0.037508
    64  H    0.058573
    65  H    0.056466
    66  H    0.047767
    67  H    0.041987
    68  H    0.056895
    69  H   -0.017293
    70  H   -0.051350
    71  H    0.044724
    72  H    0.156651
    73  H   -0.056623
    74  H    0.014219
    75  H    0.044638
    76  H    0.018919
    77  H    0.218736
    78  H    0.042752
    79  H    0.052510
 Sum of Mulliken charges =  -0.00000

 Dipole moment (field-independent basis, Debye):
    X=              2.5055    Y=              5.0745    Z=             -0.2401  Tot=              5.6645
 Quadrupole moment (field-independent basis, Debye-Ang):
   XX=           -240.2436   YY=           -233.5805   ZZ=           -265.1568
   XY=              0.9893   XZ=            -27.4939   YZ=            -12.4865

 Normal termination of Gaussian 16 at Sat Jul 27 04:20:06 2019.
