 Gaussian 16, Revision A.03,
 Gaussian 16:  ES64L-G16RevA.03 25-Dec-2016

 --------------------------
 # td=(NStates=1) B3LYP/SVP
 --------------------------

 --
 TD
 --
 Symbolic Z-matrix:
 Charge =  0 Multiplicity = 1

                         Standard orientation:
 ---------------------------------------------------------------------
 Center     Atomic      Atomic             Coordinates (Angstroms)
 Number     Number       Type             X           Y           Z
 ---------------------------------------------------------------------
      1          8           0       -3.276004   -1.700209   -2.622726
      2          8           0        2.927110    3.747726    2.716494
      3          8           0        3.587718    2.093901    4.084063
      4          8           0        7.809702   -1.789480   -0.316390
      5          8           0        6.838673   -3.251972   -1.764194
      6          8           0       -2.501079    1.800917    1.259682
      7          7           0       -0.299940   -2.222211    1.128430
      8          7           0       -2.764579   -1.172446   -0.437526
      9          7           0        1.223158   -0.030600   -0.704476
     10          7           0       -0.922131    1.448779   -0.318630
     11          6           0       -3.430180   -1.314825    0.781982
     12          6           0       -2.643826   -2.049834    2.031654
     13          6           0       -1.235165   -1.674052    2.109376
     14          6           0       -0.527685   -0.719113    2.985496
     15          6           0        0.781781   -0.673748    2.580092
     16          6           0        0.950245   -1.549055    1.507965
     17          6           0       -4.772398   -1.898621    0.535598
     18          6           0        1.907664    0.147149    3.111191
     19          6           0       -4.804758   -2.172386   -0.821722
     20          6           0        2.051734   -1.755779    0.631657
     21          6           0        2.175683   -0.982638   -0.543569
     22          6           0       -3.509202   -1.800147   -1.420745
     23          6           0        3.070844   -0.922233   -1.665409
     24          6           0       -1.318776    0.075807    3.963480
     25          6           0       -5.787741   -2.044851    1.531514
     26          6           0        2.633208    0.087959   -2.475565
     27          6           0        1.852004    1.606021    2.510960
     28          6           0        1.392839    0.698703   -1.896296
     29          6           0        4.351072   -1.798852   -1.818057
     30          6           0       -5.811070   -2.841194   -1.688568
     31          6           0        5.487499   -1.383711   -0.903847
     32          6           0        3.114106    0.640961   -3.727670
     33          6           0        0.562597    1.722384   -2.284986
     34          6           0        2.868702    2.448822    3.251546
     35          6           0       -0.558828    2.074205   -1.454778
     36          6           0       -6.873068   -3.561418   -1.290149
     37          6           0        6.710188   -2.268007   -1.114967
     38          6           0       -1.513269    3.237545   -1.759890
     39          6           0       -2.358977    3.272816   -0.651930
     40          6           0       -1.948569    2.102772    0.216299
     41          6           0       -1.360986    3.982049   -2.974706
     42          6           0       -3.404038    4.247297   -0.336380
     43          6           0       -2.017566    5.178514   -3.157798
     44          1           0       -3.522970   -0.332949    1.306474
     45          1           0       -2.519137   -3.151692    1.927122
     46          1           0       -3.314662   -1.733500    2.834534
     47          1           0       -0.549187   -2.604125    0.280643
     48          1           0       -2.174278   -0.294071   -0.740978
     49          1           0        1.872212    0.145470    4.199495
     50          1           0        2.912294   -0.293496    2.680774
     51          1           0        2.706492   -2.551407    1.007820
     52          1           0       -2.032375   -0.316094    4.798158
     53          1           0       -0.686719    0.637160    4.751298
     54          1           0       -1.899375    0.815376    3.439961
     55          1           0       -5.676908   -1.402524    2.432138
     56          1           0       -5.974150   -3.045755    1.995740
     57          1           0       -6.838393   -1.864055    1.185349
     58          1           0        2.132957    1.548465    1.320130
     59          1           0        0.858784    2.235534    2.516042
     60          1           0        0.344361    0.173103   -0.102852
     61          1           0        4.511000   -1.802725   -2.774124
     62          1           0        4.078626   -2.820568   -1.683585
     63          1           0       -5.506677   -2.861674   -2.760736
     64          1           0        5.105647   -1.422567    0.140866
     65          1           0        5.553772   -0.188268   -1.250383
     66          1           0        3.672640   -0.266324   -4.472132
     67          1           0        3.811019    1.560535   -3.570819
     68          1           0        2.152027    0.935871   -4.338734
     69          1           0        0.775857    2.250039   -3.017346
     70          1           0       -7.137886   -3.627589   -0.194014
     71          1           0       -7.560122   -4.174353   -2.042971
     72          1           0        3.585093    4.284888    3.160119
     73          1           0       -0.940717    3.326522   -3.964384
     74          1           0       -4.306252    4.499317   -1.210458
     75          1           0       -3.931009    4.052025    0.617644
     76          1           0       -3.173238    5.364434   -0.216226
     77          1           0        8.285249   -2.460365   -0.702203
     78          1           0       -2.064638    5.519089   -4.338968
     79          1           0       -2.498241    5.819333   -2.314097
 ---------------------------------------------------------------------

 SCF Done:  E(RB3LYP) =  -1947.82697045     A.U. after   17 cycles

 Excitation energies and oscillator strengths:

 Excited State   1:      Singlet-A      0.8129 eV 1525.13 nm  f=0.0014  <S**2>=0.000
     155 ->156         0.70351
 This state for optimization and/or second-order correction.
 Total Energy, E(TD-HF/TD-DFT) =  -1947.79709539
 Copying the excited state density for this state as the 1-particle RhoCI density.

 The electronic state is 1-A.
 Alpha  occ. eigenvalues --  -19.17730 -19.16566 -19.15845 -19.12854 -19.11930
 Alpha  occ. eigenvalues --  -19.08195 -14.37201 -14.36238 -14.33473 -14.31426
 Alpha  occ. eigenvalues --  -10.34521 -10.31084 -10.28257 -10.26747 -10.26341
 Alpha  occ. eigenvalues --  -10.26147 -10.25561 -10.24210 -10.24093 -10.23113
 Alpha  occ. eigenvalues --  -10.23037 -10.22953 -10.22872 -10.22448 -10.22296
 Alpha  occ. eigenvalues --  -10.21903 -10.21724 -10.21700 -10.21600 -10.21121
 Alpha  occ. eigenvalues --  -10.20786 -10.20646 -10.20641 -10.20111 -10.20042
 Alpha  occ. eigenvalues --  -10.20024 -10.19629 -10.19420 -10.19032 -10.18878
 Alpha  occ. eigenvalues --  -10.18054 -10.17751 -10.17702  -1.12193  -1.09372
 Alpha  occ. eigenvalues --   -1.03738  -1.03110  -1.00564  -1.00525  -0.99336
 Alpha  occ. eigenvalues --   -0.94627  -0.93494  -0.92478  -0.84043  -0.82993
 Alpha  occ. eigenvalues --   -0.81779  -0.80785  -0.80681  -0.79665  -0.78297
 Alpha  occ. eigenvalues --   -0.76391  -0.75766  -0.75600  -0.74299  -0.73077
 Alpha  occ. eigenvalues --   -0.70472  -0.70229  -0.69847  -0.68958  -0.67093
 Alpha  occ. eigenvalues --   -0.66659  -0.65788  -0.64058  -0.60630  -0.59917
 Alpha  occ. eigenvalues --   -0.58736  -0.58524  -0.58150  -0.57442  -0.56506
 Alpha  occ. eigenvalues --   -0.56034  -0.55403  -0.54860  -0.53466  -0.53001
 Alpha  occ. eigenvalues --   -0.51853  -0.51257  -0.51084  -0.50603  -0.50296
 Alpha  occ. eigenvalues --   -0.49773  -0.49281  -0.49155  -0.48733  -0.47774
 Alpha  occ. eigenvalues --   -0.47070  -0.46987  -0.46589  -0.46392  -0.46082
 Alpha  occ. eigenvalues --   -0.45180  -0.45029  -0.44799  -0.44703  -0.44213
 Alpha  occ. eigenvalues --   -0.43607  -0.43436  -0.43162  -0.42806  -0.42566
 Alpha  occ. eigenvalues --   -0.42255  -0.41706  -0.41383  -0.41034  -0.40880
 Alpha  occ. eigenvalues --   -0.40537  -0.40460  -0.40255  -0.39859  -0.39752
 Alpha  occ. eigenvalues --   -0.39391  -0.38859  -0.38526  -0.38123  -0.37937
 Alpha  occ. eigenvalues --   -0.37673  -0.37328  -0.36897  -0.36432  -0.36294
 Alpha  occ. eigenvalues --   -0.36221  -0.35951  -0.35594  -0.35378  -0.34230
 Alpha  occ. eigenvalues --   -0.33939  -0.33902  -0.32731  -0.32057  -0.32024
 Alpha  occ. eigenvalues --   -0.31576  -0.31376  -0.30043  -0.29594  -0.28728
 Alpha  occ. eigenvalues --   -0.28270  -0.27599  -0.26355  -0.24632  -0.24145
 Alpha  occ. eigenvalues --   -0.23870  -0.23596  -0.22559  -0.22481  -0.18257
 Alpha virt. eigenvalues --   -0.12719  -0.08099  -0.04818  -0.03109  -0.02928
 Alpha virt. eigenvalues --    0.00120   0.00875   0.01728   0.01761   0.02107
 Alpha virt. eigenvalues --    0.03098   0.04178   0.04437   0.04858   0.05441

 Mulliken charges:
               1
     1  O   -0.258009
     2  O   -0.240576
     3  O   -0.157487
     4  O   -0.188133
     5  O   -0.186509
     6  O   -0.195929
     7  N   -0.145214
     8  N   -0.210350
     9  N   -0.146742
    10  N   -0.267240
    11  C    0.034830
    12  C    0.173902
    13  C   -0.068447
    14  C   -0.052427
    15  C   -0.047600
    16  C   -0.028009
    17  C   -0.071098
    18  C    0.117284
    19  C   -0.082020
    20  C   -0.138084
    21  C    0.142613
    22  C    0.134374
    23  C   -0.124098
    24  C    0.008748
    25  C    0.041810
    26  C   -0.081152
    27  C   -0.117368
    28  C    0.149661
    29  C    0.253680
    30  C    0.013337
    31  C   -0.051136
    32  C   -0.058186
    33  C    0.021253
    34  C    0.139727
    35  C    0.071993
    36  C   -0.080917
    37  C    0.186824
    38  C    0.053492
    39  C   -0.117627
    40  C    0.136943
    41  C   -0.077303
    42  C   -0.043780
    43  C   -0.082106
    44  H    0.039012
    45  H   -0.002590
    46  H   -0.010324
    47  H    0.100157
    48  H    0.187718
    49  H    0.023348
    50  H    0.015234
    51  H    0.020227
    52  H    0.015255
    53  H   -0.007553
    54  H    0.037596
    55  H    0.017640
    56  H    0.032900
    57  H    0.033049
    58  H    0.067352
    59  H    0.074213
    60  H    0.224619
    61  H   -0.067516
    62  H   -0.004908
    63  H    0.013897
    64  H    0.064118
    65  H    0.078386
    66  H    0.060384
    67  H    0.069447
    68  H    0.057511
    69  H   -0.148563
    70  H    0.014111
    71  H    0.045901
    72  H    0.166894
    73  H    0.064252
    74  H    0.045202
    75  H    0.032283
    76  H    0.041048
    77  H    0.116980
    78  H    0.057074
    79  H    0.062722
 Sum of Mulliken charges =  -0.00000

 Dipole moment (field-independent basis, Debye):
    X=              1.4372    Y=              2.8969    Z=             -1.4711  Tot=              3.5527
 Quadrupole moment (field-independent basis, Debye-Ang):
   XX=           -248.7573   YY=           -239.7917   ZZ=           -259.4702
   XY=             -0.2235   XZ=            -24.1904   YZ=            -15.1508

 Normal termination of Gaussian 16 at Fri Jul 26 02:59:59 2019.
