 Gaussian 16, Revision A.03,
 Gaussian 16:  ES64L-G16RevA.03 25-Dec-2016

 --------------------------
 # td=(NStates=1) B3LYP/SVP
 --------------------------

 --
 TD
 --
 Symbolic Z-matrix:
 Charge =  0 Multiplicity = 1

                         Standard orientation:
 ---------------------------------------------------------------------
 Center     Atomic      Atomic             Coordinates (Angstroms)
 Number     Number       Type             X           Y           Z
 ---------------------------------------------------------------------
      1          8           0       -3.220886   -1.926774   -2.469052
      2          8           0        3.171207    3.811346    2.327857
      3          8           0        3.521359    2.537967    4.167440
      4          8           0        7.827634   -1.687727   -0.348009
      5          8           0        6.693737   -3.266790   -1.320900
      6          8           0       -2.424506    1.918257    1.229812
      7          7           0       -0.264444   -2.131661    1.439375
      8          7           0       -2.604119   -1.461179   -0.298530
      9          7           0        1.179401   -0.088817   -0.688982
     10          7           0       -0.908269    1.340198   -0.457483
     11          6           0       -3.339598   -1.216135    0.962727
     12          6           0       -2.671898   -1.964115    2.112877
     13          6           0       -1.220529   -1.536712    2.289280
     14          6           0       -0.618779   -0.560427    3.005882
     15          6           0        0.754169   -0.511337    2.709980
     16          6           0        0.959288   -1.522550    1.628281
     17          6           0       -4.757710   -1.660146    0.655459
     18          6           0        1.845509    0.525744    3.219159
     19          6           0       -4.816869   -2.165296   -0.651970
     20          6           0        2.119366   -1.816609    0.697490
     21          6           0        2.110591   -1.070193   -0.503272
     22          6           0       -3.528361   -1.939465   -1.260335
     23          6           0        2.978185   -1.093068   -1.616406
     24          6           0       -1.380872    0.431841    3.947163
     25          6           0       -5.805375   -1.756005    1.636370
     26          6           0        2.550407   -0.210327   -2.552085
     27          6           0        1.879290    1.790199    2.397547
     28          6           0        1.374961    0.448237   -1.981986
     29          6           0        4.204446   -2.059964   -1.676748
     30          6           0       -5.958326   -2.651793   -1.460335
     31          6           0        5.482276   -1.295208   -1.071150
     32          6           0        3.077823    0.148535   -3.819683
     33          6           0        0.410402    1.335465   -2.506016
     34          6           0        2.952893    2.663640    3.031676
     35          6           0       -0.618662    1.820876   -1.593486
     36          6           0       -7.020457   -3.307838   -1.095284
     37          6           0        6.705839   -2.139496   -0.974682
     38          6           0       -1.525892    2.970423   -1.939289
     39          6           0       -2.295793    3.195900   -0.868264
     40          6           0       -1.958610    2.142264    0.063518
     41          6           0       -1.321133    3.724714   -3.250922
     42          6           0       -3.400576    4.212231   -0.711986
     43          6           0       -1.913526    4.846979   -3.552898
     44          1           0       -3.222721   -0.153347    1.087319
     45          1           0       -2.757468   -3.010197    2.131617
     46          1           0       -3.109837   -1.615526    2.958515
     47          1           0       -0.393720   -2.938650    0.583688
     48          1           0       -2.138970   -0.590262   -0.449477
     49          1           0        1.683712    0.679218    4.318084
     50          1           0        2.878153   -0.057064    3.236852
     51          1           0        2.840890   -2.401637    0.955937
     52          1           0       -1.982667   -0.240144    4.420188
     53          1           0       -0.727857    0.897644    4.586291
     54          1           0       -1.966283    1.096234    3.370425
     55          1           0       -5.474413   -0.950555    2.413999
     56          1           0       -6.120235   -2.808016    2.122233
     57          1           0       -6.690143   -1.565323    1.023837
     58          1           0        2.198347    1.512806    1.317092
     59          1           0        0.826307    2.211546    2.395519
     60          1           0        0.313179    0.268630   -0.160705
     61          1           0        4.668605   -2.461491   -2.632089
     62          1           0        4.094896   -2.926521   -0.987050
     63          1           0       -5.715710   -2.465970   -2.493368
     64          1           0        5.255654   -0.816933   -0.104684
     65          1           0        5.730019   -0.260129   -1.520349
     66          1           0        3.737084   -0.712540   -4.276947
     67          1           0        3.902641    1.020488   -3.660923
     68          1           0        2.330441    0.503068   -4.721503
     69          1           0        0.421456    1.727741   -3.510264
     70          1           0       -7.168728   -3.506650    0.083974
     71          1           0       -7.841696   -3.426695   -1.874418
     72          1           0        3.893733    4.303781    2.647723
     73          1           0       -0.565956    3.249619   -3.788627
     74          1           0       -4.017740    4.349122   -1.490195
     75          1           0       -4.126568    4.121081    0.247397
     76          1           0       -2.924204    5.151533   -0.581937
     77          1           0        8.542785   -2.294962   -0.612999
     78          1           0       -1.657813    5.385541   -4.464989
     79          1           0       -2.596384    5.342358   -2.851700
 ---------------------------------------------------------------------

 SCF Done:  E(RB3LYP) =  -1947.86867755     A.U. after   17 cycles

 Excitation energies and oscillator strengths:

 Excited State   1:      Singlet-A      0.9629 eV 1287.63 nm  f=0.0049  <S**2>=0.000
     155 ->156         0.70307
 This state for optimization and/or second-order correction.
 Total Energy, E(TD-HF/TD-DFT) =  -1947.83329202
 Copying the excited state density for this state as the 1-particle RhoCI density.

 The electronic state is 1-A.
 Alpha  occ. eigenvalues --  -19.18113 -19.17279 -19.13107 -19.12867 -19.11926
 Alpha  occ. eigenvalues --  -19.08117 -14.36851 -14.36156 -14.31660 -14.31649
 Alpha  occ. eigenvalues --  -10.32571 -10.32209 -10.29336 -10.26504 -10.26241
 Alpha  occ. eigenvalues --  -10.25069 -10.24945 -10.23535 -10.23188 -10.22768
 Alpha  occ. eigenvalues --  -10.22595 -10.22250 -10.21950 -10.21457 -10.21373
 Alpha  occ. eigenvalues --  -10.21329 -10.21289 -10.21248 -10.21194 -10.21030
 Alpha  occ. eigenvalues --  -10.20987 -10.20915 -10.20806 -10.20052 -10.19833
 Alpha  occ. eigenvalues --  -10.19394 -10.19223 -10.19202 -10.18856 -10.18022
 Alpha  occ. eigenvalues --  -10.17267 -10.16089 -10.15150  -1.11202  -1.08051
 Alpha  occ. eigenvalues --   -1.01952  -1.01495  -0.99330  -0.98803  -0.97190
 Alpha  occ. eigenvalues --   -0.95544  -0.94019  -0.91139  -0.83667  -0.82668
 Alpha  occ. eigenvalues --   -0.81609  -0.81361  -0.78870  -0.78820  -0.78338
 Alpha  occ. eigenvalues --   -0.77540  -0.76486  -0.75160  -0.74803  -0.72958
 Alpha  occ. eigenvalues --   -0.71645  -0.70949  -0.69168  -0.68604  -0.67535
 Alpha  occ. eigenvalues --   -0.66518  -0.65393  -0.63171  -0.61341  -0.60659
 Alpha  occ. eigenvalues --   -0.60078  -0.59627  -0.58693  -0.57885  -0.56646
 Alpha  occ. eigenvalues --   -0.55656  -0.54893  -0.54599  -0.53147  -0.52460
 Alpha  occ. eigenvalues --   -0.52238  -0.51750  -0.50740  -0.49634  -0.49592
 Alpha  occ. eigenvalues --   -0.49033  -0.48749  -0.48402  -0.47906  -0.47483
 Alpha  occ. eigenvalues --   -0.47170  -0.46612  -0.46451  -0.46380  -0.46183
 Alpha  occ. eigenvalues --   -0.45596  -0.45236  -0.45093  -0.44541  -0.44117
 Alpha  occ. eigenvalues --   -0.43564  -0.43123  -0.42733  -0.42356  -0.41984
 Alpha  occ. eigenvalues --   -0.41914  -0.41675  -0.41098  -0.41040  -0.40707
 Alpha  occ. eigenvalues --   -0.40582  -0.40139  -0.39768  -0.39658  -0.39175
 Alpha  occ. eigenvalues --   -0.38933  -0.38786  -0.38597  -0.38330  -0.38054
 Alpha  occ. eigenvalues --   -0.37642  -0.37602  -0.37038  -0.36485  -0.36231
 Alpha  occ. eigenvalues --   -0.36035  -0.35720  -0.35468  -0.35256  -0.34543
 Alpha  occ. eigenvalues --   -0.33710  -0.33131  -0.32882  -0.32522  -0.31832
 Alpha  occ. eigenvalues --   -0.30642  -0.30205  -0.29635  -0.29210  -0.28883
 Alpha  occ. eigenvalues --   -0.27193  -0.26941  -0.26726  -0.25593  -0.25087
 Alpha  occ. eigenvalues --   -0.23490  -0.23301  -0.22444  -0.21678  -0.18589
 Alpha virt. eigenvalues --   -0.12580  -0.07898  -0.05310  -0.01478  -0.01248
 Alpha virt. eigenvalues --   -0.00558   0.01324   0.02047   0.02870   0.03030
 Alpha virt. eigenvalues --    0.03593   0.04107   0.04428   0.05510   0.05735

 Mulliken charges:
               1
     1  O   -0.265919
     2  O   -0.168972
     3  O   -0.282398
     4  O   -0.197679
     5  O   -0.203743
     6  O   -0.241960
     7  N   -0.157717
     8  N   -0.207639
     9  N   -0.142965
    10  N   -0.260081
    11  C    0.030705
    12  C    0.371059
    13  C   -0.141486
    14  C   -0.148543
    15  C   -0.125863
    16  C   -0.019603
    17  C   -0.134871
    18  C    0.025766
    19  C   -0.065691
    20  C   -0.019512
    21  C    0.112428
    22  C    0.139913
    23  C   -0.035960
    24  C    0.218586
    25  C    0.002214
    26  C   -0.057249
    27  C   -0.004469
    28  C    0.123032
    29  C    0.101815
    30  C    0.013886
    31  C   -0.070401
    32  C   -0.052350
    33  C   -0.076384
    34  C    0.168944
    35  C    0.040881
    36  C   -0.058941
    37  C    0.139514
    38  C    0.000611
    39  C   -0.176861
    40  C    0.173079
    41  C    0.067623
    42  C    0.118738
    43  C    0.008673
    44  H    0.025745
    45  H   -0.034763
    46  H   -0.078367
    47  H    0.188672
    48  H    0.132035
    49  H    0.027235
    50  H    0.012770
    51  H   -0.071873
    52  H   -0.024236
    53  H   -0.028396
    54  H    0.025741
    55  H    0.048267
    56  H    0.069647
    57  H    0.037290
    58  H    0.052328
    59  H    0.077720
    60  H    0.224260
    61  H    0.046295
    62  H    0.030504
    63  H    0.003146
    64  H    0.031621
    65  H    0.034431
    66  H    0.040576
    67  H    0.056632
    68  H    0.066340
    69  H   -0.018420
    70  H    0.034505
    71  H    0.041479
    72  H    0.161236
    73  H   -0.049833
    74  H    0.004728
    75  H    0.045181
    76  H    0.016329
    77  H    0.186884
    78  H    0.026709
    79  H    0.017370
 Sum of Mulliken charges =  -0.00000

 Dipole moment (field-independent basis, Debye):
    X=              1.4774    Y=              3.2498    Z=             -3.7134  Tot=              5.1510
 Quadrupole moment (field-independent basis, Debye-Ang):
   XX=           -225.5376   YY=           -241.7274   ZZ=           -265.3640
   XY=             -0.6022   XZ=            -26.0366   YZ=            -22.7484

 Normal termination of Gaussian 16 at Thu Jul 25 19:42:09 2019.
