 Gaussian 16, Revision A.03,
 Gaussian 16:  ES64L-G16RevA.03 25-Dec-2016

 --------------------------
 # td=(NStates=1) B3LYP/SVP
 --------------------------

 --
 TD
 --
 Symbolic Z-matrix:
 Charge =  0 Multiplicity = 1

                         Standard orientation:
 ---------------------------------------------------------------------
 Center     Atomic      Atomic             Coordinates (Angstroms)
 Number     Number       Type             X           Y           Z
 ---------------------------------------------------------------------
      1          8           0       -3.358425   -1.000078   -2.969438
      2          8           0        2.985176    2.908367    3.441399
      3          8           0        3.616843    1.047974    4.512429
      4          8           0        7.717246   -1.660786   -0.542366
      5          8           0        6.810108   -2.575510   -2.455265
      6          8           0       -2.621137    1.577897    1.570821
      7          7           0       -0.251013   -2.554419    0.674273
      8          7           0       -2.692329   -1.254281   -0.723242
      9          7           0        1.182919    0.112573   -0.711923
     10          7           0       -0.995982    1.453720   -0.161168
     11          6           0       -3.348297   -1.404651    0.529742
     12          6           0       -2.639327   -2.540902    1.416377
     13          6           0       -1.168755   -2.218517    1.553288
     14          6           0       -0.621437   -1.414285    2.640716
     15          6           0        0.757290   -1.347242    2.329944
     16          6           0        0.961464   -2.002015    1.064794
     17          6           0       -4.753321   -1.905577    0.074991
     18          6           0        1.835870   -0.615784    3.077423
     19          6           0       -4.920823   -2.021596   -1.241210
     20          6           0        2.161772   -1.948139    0.185974
     21          6           0        2.184116   -0.904460   -0.779053
     22          6           0       -3.598653   -1.345656   -1.800078
     23          6           0        3.083524   -0.466278   -1.845410
     24          6           0       -1.310596   -0.821802    3.806700
     25          6           0       -5.652120   -2.257973    1.195706
     26          6           0        2.687241    0.699601   -2.372205
     27          6           0        1.949675    0.819911    2.816383
     28          6           0        1.430917    1.059710   -1.622937
     29          6           0        4.258610   -1.345034   -2.195593
     30          6           0       -6.026253   -2.278029   -2.138409
     31          6           0        5.465629   -0.993044   -1.264871
     32          6           0        3.195894    1.466752   -3.486520
     33          6           0        0.565804    2.168997   -1.926353
     34          6           0        2.868859    1.542659    3.691365
     35          6           0       -0.637645    2.316610   -1.045514
     36          6           0       -7.143891   -2.964663   -1.771082
     37          6           0        6.706319   -1.789384   -1.519081
     38          6           0       -1.493424    3.577976   -1.056141
     39          6           0       -2.270709    3.405147    0.115724
     40          6           0       -2.091751    2.123694    0.594555
     41          6           0       -1.324334    4.633852   -1.945524
     42          6           0       -3.300016    4.295416    0.709334
     43          6           0       -2.017507    5.840870   -1.947236
     44          1           0       -3.319847   -0.548063    1.193121
     45          1           0       -2.868856   -3.431331    0.830182
     46          1           0       -3.176218   -2.475287    2.385473
     47          1           0       -0.453513   -2.816298   -0.298332
     48          1           0       -1.936923   -0.372823   -0.821585
     49          1           0        1.739750   -0.775129    4.182109
     50          1           0        2.667051   -1.266482    2.920487
     51          1           0        2.962070   -2.760452    0.073619
     52          1           0       -1.721602   -1.655839    4.283014
     53          1           0       -0.720574   -0.195125    4.560919
     54          1           0       -1.973567   -0.140189    3.329367
     55          1           0       -5.407702   -1.638224    2.261636
     56          1           0       -5.609790   -3.284886    1.522874
     57          1           0       -6.800432   -1.928051    1.034165
     58          1           0        2.125870    1.159455    1.877434
     59          1           0        1.035242    1.250463    2.962930
     60          1           0        0.330770    0.149742   -0.189626
     61          1           0        4.690615   -1.254548   -3.103968
     62          1           0        4.241556   -2.580617   -1.857492
     63          1           0       -5.733756   -1.964766   -3.151847
     64          1           0        5.159138   -0.822814   -0.105073
     65          1           0        5.855029    0.088501   -1.448095
     66          1           0        4.031654    0.814890   -3.773618
     67          1           0        3.445319    2.516216   -3.709354
     68          1           0        2.556843    1.281575   -4.521724
     69          1           0        0.889239    2.732099   -2.707006
     70          1           0       -7.245536   -3.504700   -0.836646
     71          1           0       -7.882208   -3.372524   -2.537594
     72          1           0        3.797497    3.137800    3.898308
     73          1           0       -0.572473    4.598443   -2.712586
     74          1           0       -3.936477    4.865382   -0.030189
     75          1           0       -3.781479    3.917244    1.643913
     76          1           0       -2.706193    5.266462    0.977413
     77          1           0        8.510217   -2.190554   -0.727023
     78          1           0       -1.955797    6.407007   -3.009313
     79          1           0       -2.903322    5.910391   -1.476915
 ---------------------------------------------------------------------

 SCF Done:  E(RB3LYP) =  -1947.86205126     A.U. after   16 cycles

 Excitation energies and oscillator strengths:

 Excited State   1:      Singlet-A      0.9105 eV 1361.69 nm  f=0.0003  <S**2>=0.000
     155 ->156         0.70067
 This state for optimization and/or second-order correction.
 Total Energy, E(TD-HF/TD-DFT) =  -1947.82859026
 Copying the excited state density for this state as the 1-particle RhoCI density.

 The electronic state is 1-A.
 Alpha  occ. eigenvalues --  -19.18368 -19.16752 -19.14135 -19.13368 -19.12087
 Alpha  occ. eigenvalues --  -19.09296 -14.37507 -14.37434 -14.33751 -14.31685
 Alpha  occ. eigenvalues --  -10.33839 -10.31219 -10.28871 -10.27623 -10.26217
 Alpha  occ. eigenvalues --  -10.26132 -10.25772 -10.23832 -10.23323 -10.23307
 Alpha  occ. eigenvalues --  -10.23238 -10.23124 -10.22727 -10.22640 -10.22224
 Alpha  occ. eigenvalues --  -10.21732 -10.21731 -10.21724 -10.21359 -10.20909
 Alpha  occ. eigenvalues --  -10.20741 -10.20714 -10.20520 -10.20390 -10.19802
 Alpha  occ. eigenvalues --  -10.19336 -10.19176 -10.19108 -10.18329 -10.18074
 Alpha  occ. eigenvalues --  -10.17271 -10.17078 -10.16894  -1.08301  -1.08231
 Alpha  occ. eigenvalues --   -1.03339  -1.00569  -0.99714  -0.99653  -0.99099
 Alpha  occ. eigenvalues --   -0.97624  -0.94428  -0.91434  -0.84903  -0.82878
 Alpha  occ. eigenvalues --   -0.81959  -0.81250  -0.80418  -0.79147  -0.78282
 Alpha  occ. eigenvalues --   -0.77771  -0.76657  -0.75267  -0.73865  -0.73239
 Alpha  occ. eigenvalues --   -0.71117  -0.70883  -0.69625  -0.68837  -0.67478
 Alpha  occ. eigenvalues --   -0.67379  -0.66109  -0.63097  -0.61454  -0.60292
 Alpha  occ. eigenvalues --   -0.59866  -0.59337  -0.58862  -0.58394  -0.57255
 Alpha  occ. eigenvalues --   -0.56619  -0.55918  -0.54612  -0.53780  -0.53609
 Alpha  occ. eigenvalues --   -0.51923  -0.51563  -0.50904  -0.50650  -0.50013
 Alpha  occ. eigenvalues --   -0.49755  -0.49110  -0.48648  -0.48116  -0.48021
 Alpha  occ. eigenvalues --   -0.47549  -0.47170  -0.46509  -0.46061  -0.45730
 Alpha  occ. eigenvalues --   -0.45188  -0.44925  -0.44661  -0.44642  -0.43880
 Alpha  occ. eigenvalues --   -0.43736  -0.42942  -0.42821  -0.42488  -0.42334
 Alpha  occ. eigenvalues --   -0.42105  -0.41986  -0.41560  -0.41429  -0.41069
 Alpha  occ. eigenvalues --   -0.40838  -0.40429  -0.40140  -0.39902  -0.39515
 Alpha  occ. eigenvalues --   -0.39402  -0.39123  -0.38836  -0.38507  -0.38228
 Alpha  occ. eigenvalues --   -0.37911  -0.37725  -0.37681  -0.36659  -0.36560
 Alpha  occ. eigenvalues --   -0.36314  -0.36094  -0.35150  -0.34873  -0.34691
 Alpha  occ. eigenvalues --   -0.34468  -0.33033  -0.32728  -0.32080  -0.31630
 Alpha  occ. eigenvalues --   -0.31228  -0.31031  -0.30200  -0.29520  -0.28953
 Alpha  occ. eigenvalues --   -0.27766  -0.27492  -0.26845  -0.24944  -0.24194
 Alpha  occ. eigenvalues --   -0.23969  -0.23389  -0.23030  -0.21842  -0.18574
 Alpha virt. eigenvalues --   -0.12976  -0.08868  -0.04495  -0.02917  -0.02062
 Alpha virt. eigenvalues --    0.00535   0.01311   0.01687   0.02197   0.02615
 Alpha virt. eigenvalues --    0.03760   0.04542   0.04748   0.04789   0.05560

 Mulliken charges:
               1
     1  O   -0.258385
     2  O   -0.215154
     3  O   -0.233631
     4  O   -0.236271
     5  O   -0.231009
     6  O   -0.206408
     7  N    0.012438
     8  N   -0.270988
     9  N   -0.061733
    10  N   -0.323619
    11  C    0.041334
    12  C    0.215677
    13  C   -0.153570
    14  C   -0.142428
    15  C   -0.128704
    16  C   -0.048342
    17  C   -0.136029
    18  C    0.147991
    19  C   -0.041508
    20  C   -0.091410
    21  C    0.083505
    22  C    0.149695
    23  C   -0.021272
    24  C    0.127346
    25  C   -0.022099
    26  C   -0.064675
    27  C    0.185266
    28  C    0.036547
    29  C    0.096618
    30  C    0.016415
    31  C   -0.114333
    32  C    0.018526
    33  C   -0.019646
    34  C    0.098577
    35  C    0.105555
    36  C   -0.050159
    37  C    0.188615
    38  C    0.102586
    39  C   -0.156401
    40  C    0.180862
    41  C   -0.075398
    42  C    0.064361
    43  C    0.003851
    44  H    0.039317
    45  H   -0.033947
    46  H   -0.009656
    47  H    0.129923
    48  H    0.194228
    49  H   -0.001456
    50  H   -0.016466
    51  H    0.021358
    52  H    0.012062
    53  H    0.010509
    54  H    0.027576
    55  H    0.033151
    56  H    0.038491
    57  H    0.050457
    58  H   -0.016356
    59  H   -0.009624
    60  H    0.163449
    61  H   -0.010638
    62  H    0.068389
    63  H    0.017706
    64  H    0.074623
    65  H    0.048027
    66  H    0.003287
    67  H    0.053919
    68  H    0.043273
    69  H   -0.073008
    70  H    0.022220
    71  H    0.033163
    72  H    0.169396
    73  H   -0.001343
    74  H    0.040443
    75  H    0.052770
    76  H    0.025846
    77  H    0.191327
    78  H    0.051898
    79  H   -0.016911
 Sum of Mulliken charges =  -0.00000

 Dipole moment (field-independent basis, Debye):
    X=              2.4532    Y=              3.1755    Z=             -1.5799  Tot=              4.3125
 Quadrupole moment (field-independent basis, Debye-Ang):
   XX=           -237.9905   YY=           -234.5610   ZZ=           -270.2844
   XY=              4.2520   XZ=            -20.6529   YZ=            -15.0290

 Normal termination of Gaussian 16 at Tue Jul 30 22:57:30 2019.
