 Gaussian 16, Revision A.03,
 Gaussian 16:  ES64L-G16RevA.03 25-Dec-2016

 --------------------------
 # td=(NStates=1) B3LYP/SVP
 --------------------------

 --
 TD
 --
 Symbolic Z-matrix:
 Charge =  0 Multiplicity = 1

                         Standard orientation:
 ---------------------------------------------------------------------
 Center     Atomic      Atomic             Coordinates (Angstroms)
 Number     Number       Type             X           Y           Z
 ---------------------------------------------------------------------
      1          8           0       -3.378136   -1.502824   -2.855614
      2          8           0        3.250471    2.887981    3.073214
      3          8           0        3.744935    1.294571    4.388628
      4          8           0        7.628083   -1.586378   -0.686836
      5          8           0        6.609889   -2.900147   -2.257406
      6          8           0       -2.507462    1.715837    1.549797
      7          7           0       -0.323287   -2.445367    0.898803
      8          7           0       -2.740479   -1.125455   -0.579686
      9          7           0        1.120653    0.068821   -0.766960
     10          7           0       -0.904009    1.522043   -0.239865
     11          6           0       -3.480527   -1.257115    0.564480
     12          6           0       -2.689159   -2.282212    1.563951
     13          6           0       -1.226363   -2.097925    1.777986
     14          6           0       -0.600542   -1.291515    2.777303
     15          6           0        0.779861   -1.342744    2.504505
     16          6           0        0.937023   -1.956716    1.219622
     17          6           0       -4.863760   -1.873200    0.164371
     18          6           0        1.836714   -0.556956    3.283487
     19          6           0       -4.849075   -2.046192   -1.159772
     20          6           0        2.050669   -2.016505    0.225647
     21          6           0        2.056526   -0.912638   -0.739490
     22          6           0       -3.611343   -1.481600   -1.736789
     23          6           0        2.964813   -0.646271   -1.769219
     24          6           0       -1.188806   -0.662935    3.986193
     25          6           0       -5.909342   -2.040268    1.249236
     26          6           0        2.581782    0.508034   -2.435079
     27          6           0        1.925770    0.997133    2.768140
     28          6           0        1.406992    0.982777   -1.823797
     29          6           0        4.227113   -1.510080   -2.093292
     30          6           0       -5.858587   -2.441631   -2.097135
     31          6           0        5.356557   -1.134658   -1.204795
     32          6           0        3.283572    1.113314   -3.678044
     33          6           0        0.515718    2.072397   -2.009081
     34          6           0        3.047336    1.675381    3.531832
     35          6           0       -0.557605    2.356631   -1.160989
     36          6           0       -6.939776   -3.202475   -1.703857
     37          6           0        6.572440   -1.996505   -1.456890
     38          6           0       -1.344633    3.650440   -1.172425
     39          6           0       -2.204905    3.479166   -0.111911
     40          6           0       -1.968333    2.141718    0.601400
     41          6           0       -1.245689    4.749097   -2.115721
     42          6           0       -3.318395    4.395915    0.368831
     43          6           0       -1.937686    5.875553   -2.059147
     44          1           0       -3.756152   -0.230148    1.040991
     45          1           0       -2.959797   -3.296705    1.228644
     46          1           0       -3.133323   -2.370469    2.634529
     47          1           0       -0.581275   -2.876940   -0.009322
     48          1           0       -2.127024   -0.366912   -0.861713
     49          1           0        1.681015   -0.379190    4.397725
     50          1           0        2.824492   -1.048359    2.945590
     51          1           0        2.767117   -2.865008    0.186265
     52          1           0       -2.198953   -1.180517    4.274667
     53          1           0       -0.355737   -0.443495    4.747681
     54          1           0       -1.612144    0.301585    3.592150
     55          1           0       -5.738724   -1.263098    1.984185
     56          1           0       -5.810386   -3.082284    1.533401
     57          1           0       -6.883048   -1.963049    0.789937
     58          1           0        2.128439    1.046117    1.709390
     59          1           0        1.076822    1.762232    2.967615
     60          1           0        0.569569    0.310920    0.040294
     61          1           0        4.449498   -1.583936   -3.146366
     62          1           0        3.865020   -2.568385   -1.482425
     63          1           0       -5.554467   -2.026049   -3.122542
     64          1           0        5.077232   -1.176745   -0.204831
     65          1           0        5.479834   -0.049665   -1.375698
     66          1           0        4.220927    0.620844   -4.104953
     67          1           0        3.612628    2.156823   -3.380954
     68          1           0        2.622785    1.197333   -4.451787
     69          1           0        0.829852    2.766085   -2.757607
     70          1           0       -7.002607   -3.581001   -0.690379
     71          1           0       -7.862813   -3.164498   -2.430779
     72          1           0        3.945412    3.292036    3.534621
     73          1           0       -0.641931    4.340164   -3.018289
     74          1           0       -3.770471    4.889340   -0.601095
     75          1           0       -4.064637    3.859077    0.938706
     76          1           0       -2.724708    5.264219    1.035956
     77          1           0        8.576511   -2.110172   -0.910265
     78          1           0       -1.688729    6.668422   -2.807865
     79          1           0       -2.602763    6.254330   -1.463086
 ---------------------------------------------------------------------

 SCF Done:  E(RB3LYP) =  -1947.87391575     A.U. after   19 cycles

 Excitation energies and oscillator strengths:

 Excited State   1:      Singlet-A      0.9111 eV 1360.82 nm  f=0.0001  <S**2>=0.000
     155 ->156         0.70334
 This state for optimization and/or second-order correction.
 Total Energy, E(TD-HF/TD-DFT) =  -1947.84043349
 Copying the excited state density for this state as the 1-particle RhoCI density.

 The electronic state is 1-A.
 Alpha  occ. eigenvalues --  -19.19340 -19.16410 -19.14313 -19.13734 -19.11286
 Alpha  occ. eigenvalues --  -19.10720 -14.36620 -14.36156 -14.32155 -14.30179
 Alpha  occ. eigenvalues --  -10.33035 -10.30326 -10.29294 -10.26813 -10.26226
 Alpha  occ. eigenvalues --  -10.25007 -10.24462 -10.23361 -10.22734 -10.22448
 Alpha  occ. eigenvalues --  -10.22381 -10.22125 -10.22046 -10.21623 -10.21580
 Alpha  occ. eigenvalues --  -10.21080 -10.21042 -10.20961 -10.20652 -10.20547
 Alpha  occ. eigenvalues --  -10.20418 -10.20409 -10.20376 -10.19778 -10.19663
 Alpha  occ. eigenvalues --  -10.19500 -10.19381 -10.19292 -10.19241 -10.18174
 Alpha  occ. eigenvalues --  -10.17329 -10.17223 -10.15933  -1.11658  -1.08544
 Alpha  occ. eigenvalues --   -1.06793  -1.06164  -1.00900  -1.00481  -0.99187
 Alpha  occ. eigenvalues --   -0.97190  -0.93573  -0.92533  -0.83399  -0.81828
 Alpha  occ. eigenvalues --   -0.81302  -0.80987  -0.79202  -0.78843  -0.77169
 Alpha  occ. eigenvalues --   -0.75950  -0.75478  -0.75140  -0.73740  -0.72270
 Alpha  occ. eigenvalues --   -0.70560  -0.70320  -0.69421  -0.68440  -0.66655
 Alpha  occ. eigenvalues --   -0.66528  -0.65148  -0.62990  -0.61318  -0.59994
 Alpha  occ. eigenvalues --   -0.59674  -0.59446  -0.58922  -0.57478  -0.56349
 Alpha  occ. eigenvalues --   -0.55804  -0.55207  -0.54260  -0.53493  -0.52491
 Alpha  occ. eigenvalues --   -0.51973  -0.51564  -0.51036  -0.50045  -0.49229
 Alpha  occ. eigenvalues --   -0.48977  -0.48752  -0.48145  -0.48033  -0.47705
 Alpha  occ. eigenvalues --   -0.47144  -0.47035  -0.46822  -0.45979  -0.45718
 Alpha  occ. eigenvalues --   -0.45271  -0.45012  -0.44906  -0.44471  -0.44405
 Alpha  occ. eigenvalues --   -0.43729  -0.43564  -0.43230  -0.42386  -0.41980
 Alpha  occ. eigenvalues --   -0.41962  -0.41533  -0.41384  -0.41184  -0.40921
 Alpha  occ. eigenvalues --   -0.40745  -0.40634  -0.40390  -0.40214  -0.40061
 Alpha  occ. eigenvalues --   -0.39424  -0.38832  -0.38601  -0.38202  -0.38015
 Alpha  occ. eigenvalues --   -0.37836  -0.37541  -0.36919  -0.36850  -0.36544
 Alpha  occ. eigenvalues --   -0.36482  -0.35882  -0.35564  -0.35084  -0.34713
 Alpha  occ. eigenvalues --   -0.33639  -0.33067  -0.32974  -0.32118  -0.31981
 Alpha  occ. eigenvalues --   -0.31423  -0.30450  -0.30241  -0.29379  -0.29155
 Alpha  occ. eigenvalues --   -0.27342  -0.26837  -0.25961  -0.24869  -0.24452
 Alpha  occ. eigenvalues --   -0.23851  -0.22526  -0.22266  -0.21433  -0.18503
 Alpha virt. eigenvalues --   -0.12485  -0.07730  -0.04141  -0.01399  -0.00852
 Alpha virt. eigenvalues --    0.00612   0.01745   0.02329   0.02742   0.02939
 Alpha virt. eigenvalues --    0.03640   0.04690   0.04890   0.05436   0.05908

 Mulliken charges:
               1
     1  O   -0.136857
     2  O   -0.137294
     3  O   -0.194651
     4  O   -0.272701
     5  O   -0.209692
     6  O   -0.126143
     7  N    0.002026
     8  N   -0.234881
     9  N   -0.092219
    10  N   -0.324077
    11  C    0.058027
    12  C    0.158350
    13  C   -0.108161
    14  C   -0.144370
    15  C   -0.082491
    16  C   -0.043228
    17  C   -0.224536
    18  C    0.065840
    19  C   -0.076057
    20  C   -0.096681
    21  C    0.057394
    22  C    0.108635
    23  C   -0.096743
    24  C    0.084010
    25  C    0.155425
    26  C   -0.098029
    27  C   -0.050009
    28  C    0.095277
    29  C    0.044119
    30  C   -0.024670
    31  C    0.042195
    32  C    0.104914
    33  C   -0.081071
    34  C    0.071667
    35  C    0.100684
    36  C   -0.047689
    37  C    0.179351
    38  C    0.037809
    39  C   -0.252518
    40  C    0.202320
    41  C    0.014333
    42  C    0.022662
    43  C    0.021448
    44  H    0.044160
    45  H   -0.030418
    46  H   -0.005298
    47  H    0.124434
    48  H    0.136431
    49  H    0.038455
    50  H    0.020435
    51  H    0.031547
    52  H    0.008478
    53  H    0.021063
    54  H    0.024342
    55  H    0.027275
    56  H    0.034441
    57  H    0.015488
    58  H    0.024277
    59  H    0.057121
    60  H    0.178558
    61  H    0.030902
    62  H    0.033242
    63  H    0.030945
    64  H    0.013186
    65  H    0.028392
    66  H    0.032645
    67  H    0.031020
    68  H    0.012870
    69  H   -0.045037
    70  H    0.017148
    71  H    0.042346
    72  H    0.145559
    73  H    0.024911
    74  H    0.052235
    75  H    0.032237
    76  H    0.062365
    77  H    0.244913
    78  H    0.024513
    79  H   -0.036898
 Sum of Mulliken charges =  -0.00000

 Dipole moment (field-independent basis, Debye):
    X=              2.3685    Y=              4.0293    Z=             -1.6606  Tot=              4.9601
 Quadrupole moment (field-independent basis, Debye-Ang):
   XX=           -225.7369   YY=           -239.9844   ZZ=           -270.3612
   XY=              1.1373   XZ=            -20.1761   YZ=            -13.0698

 Normal termination of Gaussian 16 at Wed Jul 24 19:48:41 2019.
