 Gaussian 16, Revision A.03,
 Gaussian 16:  ES64L-G16RevA.03 25-Dec-2016

 --------------------------
 # td=(NStates=1) B3LYP/SVP
 --------------------------

 --
 TD
 --
 Symbolic Z-matrix:
 Charge =  0 Multiplicity = 1

                         Standard orientation:
 ---------------------------------------------------------------------
 Center     Atomic      Atomic             Coordinates (Angstroms)
 Number     Number       Type             X           Y           Z
 ---------------------------------------------------------------------
      1          8           0       -3.350076   -1.484470   -2.878066
      2          8           0        3.150831    3.233235    3.091600
      3          8           0        3.901695    1.369513    4.112285
      4          8           0        7.577346   -1.767172   -0.551401
      5          8           0        6.535321   -3.074865   -2.075874
      6          8           0       -2.649371    1.735732    1.403388
      7          7           0       -0.260200   -2.482694    0.983733
      8          7           0       -2.693995   -1.099598   -0.676318
      9          7           0        1.142899    0.040264   -0.786541
     10          7           0       -1.018941    1.430302   -0.202473
     11          6           0       -3.371626   -1.286164    0.619185
     12          6           0       -2.616898   -2.198549    1.608367
     13          6           0       -1.205561   -1.929341    1.825828
     14          6           0       -0.557328   -1.092780    2.766555
     15          6           0        0.783685   -1.042566    2.434202
     16          6           0        0.956603   -1.881211    1.359212
     17          6           0       -4.759716   -1.878667    0.315788
     18          6           0        1.863811   -0.256325    3.161453
     19          6           0       -4.802648   -2.178762   -0.979898
     20          6           0        2.108302   -1.930159    0.376053
     21          6           0        2.131558   -0.883897   -0.575876
     22          6           0       -3.518786   -1.698736   -1.663763
     23          6           0        3.007302   -0.613782   -1.765290
     24          6           0       -1.261872   -0.206976    3.781354
     25          6           0       -5.689656   -2.119940    1.429451
     26          6           0        2.560764    0.461810   -2.470146
     27          6           0        1.873956    1.176325    2.744334
     28          6           0        1.319060    0.977060   -1.874918
     29          6           0        4.254877   -1.407575   -2.022912
     30          6           0       -5.851878   -2.632439   -1.920215
     31          6           0        5.429621   -1.156123   -1.105081
     32          6           0        3.198754    1.053211   -3.682027
     33          6           0        0.515671    2.038926   -1.975330
     34          6           0        3.054272    1.882682    3.343492
     35          6           0       -0.634552    2.316385   -1.204501
     36          6           0       -6.862687   -3.474656   -1.400242
     37          6           0        6.538495   -2.155993   -1.348814
     38          6           0       -1.492634    3.543449   -1.287665
     39          6           0       -2.373864    3.395471   -0.307434
     40          6           0       -2.077921    2.153696    0.439389
     41          6           0       -1.337595    4.527743   -2.343415
     42          6           0       -3.420399    4.355125    0.189450
     43          6           0       -2.024253    5.698292   -2.389975
     44          1           0       -3.334560   -0.256707    1.338629
     45          1           0       -2.569967   -3.189675    1.137539
     46          1           0       -3.376495   -2.477548    2.400020
     47          1           0       -0.403887   -2.630267   -0.054872
     48          1           0       -1.975469   -0.484848   -0.851794
     49          1           0        1.625933   -0.609528    4.163121
     50          1           0        2.894962   -0.720451    3.090595
     51          1           0        3.114938   -2.815899    0.472440
     52          1           0       -1.918717   -1.022977    4.237677
     53          1           0       -0.667259    0.144503    4.711696
     54          1           0       -1.822962    0.733970    3.481638
     55          1           0       -5.434378   -1.703509    2.395971
     56          1           0       -5.626600   -3.148585    1.601958
     57          1           0       -6.728163   -1.809024    1.218346
     58          1           0        2.099857    1.118949    1.571533
     59          1           0        0.911517    1.657326    3.076262
     60          1           0        0.233790    0.338536   -0.163579
     61          1           0        4.734375   -1.233076   -3.028741
     62          1           0        4.080347   -2.508358   -1.847672
     63          1           0       -5.849008   -2.506023   -3.040419
     64          1           0        5.399694   -1.020891   -0.234358
     65          1           0        6.033183   -0.242712   -1.384377
     66          1           0        3.987211    0.340381   -4.040678
     67          1           0        3.720293    2.100565   -3.475171
     68          1           0        2.422855    1.437127   -4.321736
     69          1           0        0.774524    2.626155   -2.691788
     70          1           0       -7.093638   -3.931390   -0.294612
     71          1           0       -7.610274   -4.003121   -2.081284
     72          1           0        4.113076    3.444412    3.455415
     73          1           0       -0.587504    4.104905   -3.066712
     74          1           0       -4.233980    4.657555   -0.439980
     75          1           0       -3.702610    3.834386    1.264324
     76          1           0       -2.883922    5.282922    0.672216
     77          1           0        8.375599   -2.355553   -0.830221
     78          1           0       -1.848522    6.210877   -3.218417
     79          1           0       -2.789699    5.990659   -1.726877
 ---------------------------------------------------------------------

 SCF Done:  E(RB3LYP) =  -1947.79972830     A.U. after   17 cycles

 Excitation energies and oscillator strengths:

 Excited State   1:      Singlet-A      1.1023 eV 1124.76 nm  f=0.0022  <S**2>=0.000
     155 ->156         0.70367
 This state for optimization and/or second-order correction.
 Total Energy, E(TD-HF/TD-DFT) =  -1947.75921874
 Copying the excited state density for this state as the 1-particle RhoCI density.

 The electronic state is 1-A.
 Alpha  occ. eigenvalues --  -19.18920 -19.18129 -19.14249 -19.13377 -19.12194
 Alpha  occ. eigenvalues --  -19.08431 -14.36475 -14.36098 -14.32723 -14.32158
 Alpha  occ. eigenvalues --  -10.32459 -10.31919 -10.28853 -10.27139 -10.26310
 Alpha  occ. eigenvalues --  -10.26143 -10.25718 -10.24454 -10.23006 -10.22375
 Alpha  occ. eigenvalues --  -10.22358 -10.22186 -10.21845 -10.21797 -10.21661
 Alpha  occ. eigenvalues --  -10.21570 -10.21321 -10.21158 -10.20736 -10.20665
 Alpha  occ. eigenvalues --  -10.20584 -10.20495 -10.20352 -10.20315 -10.19892
 Alpha  occ. eigenvalues --  -10.19612 -10.19260 -10.18915 -10.18780 -10.18593
 Alpha  occ. eigenvalues --  -10.18584 -10.17038 -10.16916  -1.10764  -1.07366
 Alpha  occ. eigenvalues --   -1.05445  -1.02489  -0.99269  -0.97592  -0.97299
 Alpha  occ. eigenvalues --   -0.95908  -0.93386  -0.90659  -0.83528  -0.82749
 Alpha  occ. eigenvalues --   -0.82311  -0.81089  -0.81010  -0.79770  -0.78049
 Alpha  occ. eigenvalues --   -0.77098  -0.76440  -0.75592  -0.74203  -0.72546
 Alpha  occ. eigenvalues --   -0.71396  -0.70376  -0.69670  -0.68627  -0.67005
 Alpha  occ. eigenvalues --   -0.66284  -0.65517  -0.63296  -0.61771  -0.59659
 Alpha  occ. eigenvalues --   -0.59596  -0.58586  -0.57492  -0.57337  -0.57187
 Alpha  occ. eigenvalues --   -0.56292  -0.55413  -0.54722  -0.53279  -0.52900
 Alpha  occ. eigenvalues --   -0.51862  -0.51524  -0.50445  -0.50231  -0.49698
 Alpha  occ. eigenvalues --   -0.49219  -0.49132  -0.48581  -0.48292  -0.48032
 Alpha  occ. eigenvalues --   -0.47456  -0.47033  -0.46454  -0.46444  -0.46101
 Alpha  occ. eigenvalues --   -0.45673  -0.45060  -0.44891  -0.44608  -0.43744
 Alpha  occ. eigenvalues --   -0.43636  -0.43493  -0.42754  -0.42557  -0.42512
 Alpha  occ. eigenvalues --   -0.42244  -0.41866  -0.41424  -0.41094  -0.41000
 Alpha  occ. eigenvalues --   -0.40467  -0.39950  -0.39899  -0.39690  -0.39642
 Alpha  occ. eigenvalues --   -0.39183  -0.38962  -0.38602  -0.38389  -0.37928
 Alpha  occ. eigenvalues --   -0.37413  -0.37230  -0.37130  -0.37106  -0.36605
 Alpha  occ. eigenvalues --   -0.36060  -0.35903  -0.35107  -0.34895  -0.33871
 Alpha  occ. eigenvalues --   -0.33707  -0.33338  -0.32869  -0.31933  -0.31259
 Alpha  occ. eigenvalues --   -0.31023  -0.30460  -0.30014  -0.29689  -0.29283
 Alpha  occ. eigenvalues --   -0.27420  -0.26979  -0.26208  -0.24764  -0.24258
 Alpha  occ. eigenvalues --   -0.23925  -0.23458  -0.22592  -0.22242  -0.19277
 Alpha virt. eigenvalues --   -0.12789  -0.07529  -0.04154  -0.02412  -0.00825
 Alpha virt. eigenvalues --   -0.00087   0.00670   0.00919   0.02657   0.03391
 Alpha virt. eigenvalues --    0.03611   0.03922   0.04110   0.04793   0.05213

 Mulliken charges:
               1
     1  O   -0.265300
     2  O   -0.239717
     3  O   -0.273892
     4  O   -0.236388
     5  O   -0.174103
     6  O   -0.169474
     7  N   -0.096300
     8  N   -0.187975
     9  N   -0.243020
    10  N   -0.358285
    11  C   -0.023825
    12  C    0.143726
    13  C   -0.044490
    14  C   -0.097415
    15  C   -0.088735
    16  C   -0.046268
    17  C   -0.121322
    18  C    0.080712
    19  C   -0.054334
    20  C   -0.151019
    21  C    0.131768
    22  C    0.169825
    23  C   -0.050740
    24  C    0.006494
    25  C    0.130363
    26  C   -0.102748
    27  C    0.021610
    28  C    0.129609
    29  C    0.087255
    30  C    0.000851
    31  C    0.122774
    32  C    0.091860
    33  C    0.005709
    34  C    0.150258
    35  C    0.122766
    36  C   -0.126240
    37  C    0.100901
    38  C    0.071840
    39  C   -0.206351
    40  C    0.195888
    41  C   -0.039343
    42  C    0.012879
    43  C    0.091755
    44  H    0.092823
    45  H   -0.043901
    46  H   -0.005921
    47  H    0.151094
    48  H    0.097735
    49  H    0.014282
    50  H    0.004813
    51  H    0.072531
    52  H    0.015290
    53  H    0.003898
    54  H    0.066545
    55  H    0.011421
    56  H    0.016986
    57  H    0.036635
    58  H    0.073326
    59  H    0.065449
    60  H    0.236714
    61  H    0.018996
    62  H    0.036397
    63  H    0.047018
    64  H   -0.102635
    65  H    0.023857
    66  H    0.034504
    67  H    0.030281
    68  H    0.018339
    69  H   -0.139519
    70  H    0.047337
    71  H    0.028063
    72  H    0.214074
    73  H    0.010169
    74  H    0.051462
    75  H    0.047813
    76  H    0.044644
    77  H    0.202720
    78  H   -0.010111
    79  H    0.015316
 Sum of Mulliken charges =  -0.00000

 Dipole moment (field-independent basis, Debye):
    X=              2.5045    Y=              4.0511    Z=             -1.2125  Tot=              4.9147
 Quadrupole moment (field-independent basis, Debye-Ang):
   XX=           -229.1387   YY=           -237.0501   ZZ=           -267.6216
   XY=              2.4918   XZ=            -23.3055   YZ=            -17.2439

 Normal termination of Gaussian 16 at Sun Jul 28 11:54:51 2019.
