 Gaussian 16, Revision A.03,
 Gaussian 16:  ES64L-G16RevA.03 25-Dec-2016

 --------------------------
 # td=(NStates=1) B3LYP/SVP
 --------------------------

 --
 TD
 --
 Symbolic Z-matrix:
 Charge =  0 Multiplicity = 1

                         Standard orientation:
 ---------------------------------------------------------------------
 Center     Atomic      Atomic             Coordinates (Angstroms)
 Number     Number       Type             X           Y           Z
 ---------------------------------------------------------------------
      1          8           0        5.224390   -0.161938   -3.307077
      2          8           0       -2.881816   -2.738876    3.248784
      3          8           0       -3.401664   -0.604848    2.830168
      4          8           0       -1.763300    7.216263    1.304837
      5          8           0       -1.073018    7.107169   -0.811016
      6          8           0       -1.578658   -4.082663    0.035788
      7          7           0        2.331847    1.037785    0.570723
      8          7           0        4.345259   -0.560031   -1.249807
      9          7           0       -1.920323    0.640534   -0.331075
     10          7           0       -2.480904   -1.914841   -0.537666
     11          6           0        4.808169   -1.111235    0.070298
     12          6           0        4.528366   -0.336600    1.284954
     13          6           0        2.995039    0.089650    1.457066
     14          6           0        1.906787   -0.488477    2.221773
     15          6           0        0.822166    0.123969    1.915781
     16          6           0        0.990952    0.993387    0.768420
     17          6           0        6.254735   -1.297253   -0.102756
     18          6           0       -0.489516   -0.064051    2.751587
     19          6           0        6.537124   -0.775253   -1.337650
     20          6           0        0.235423    1.910507    0.074833
     21          6           0       -1.130447    1.809346   -0.327013
     22          6           0        5.347187   -0.423490   -2.147623
     23          6           0       -1.945434    2.835407   -0.939469
     24          6           0        2.147791   -1.519784    3.252292
     25          6           0        7.184658   -1.924731    0.838289
     26          6           0       -3.112188    2.264724   -1.264379
     27          6           0       -1.073409   -1.461994    2.672187
     28          6           0       -3.049816    0.873701   -0.977924
     29          6           0       -1.646020    4.185796   -0.927852
     30          6           0        7.906742   -0.766008   -2.065922
     31          6           0       -1.740313    5.004237    0.390957
     32          6           0       -4.301369    2.831090   -1.948373
     33          6           0       -4.042579   -0.240177   -1.243088
     34          6           0       -2.552893   -1.429229    2.871907
     35          6           0       -3.625804   -1.561093   -1.057508
     36          6           0        9.077549   -0.649009   -1.486474
     37          6           0       -1.501976    6.462473    0.199531
     38          6           0       -4.510220   -2.790487   -1.379336
     39          6           0       -3.763169   -3.902563   -0.968856
     40          6           0       -2.463590   -3.413591   -0.468584
     41          6           0       -5.735598   -2.779344   -2.102004
     42          6           0       -4.053943   -5.378805   -1.104922
     43          6           0       -6.626458   -3.717455   -2.374555
     44          1           0        4.169663   -2.067874    0.175648
     45          1           0        4.997722    0.650603    0.999911
     46          1           0        5.064919   -0.750049    2.078093
     47          1           0        2.743890    1.531032   -0.190275
     48          1           0        3.238341   -0.203731   -1.424107
     49          1           0       -0.541330    0.395640    3.845257
     50          1           0       -1.275753    0.598552    2.342739
     51          1           0        0.601784    2.795876   -0.455922
     52          1           0        3.154702   -1.617711    3.638738
     53          1           0        1.290835   -1.437594    4.147517
     54          1           0        1.858453   -2.574835    2.914719
     55          1           0        6.772425   -2.749506    1.444646
     56          1           0        7.470255   -1.062920    1.466026
     57          1           0        7.993189   -2.489515    0.238082
     58          1           0       -0.968206   -1.896099    1.657833
     59          1           0       -0.492840   -1.988879    3.555043
     60          1           0       -1.590134   -0.351862   -0.133235
     61          1           0       -2.045561    4.712125   -1.847699
     62          1           0       -0.570087    4.410512   -1.184423
     63          1           0        7.727996   -0.998623   -3.229143
     64          1           0       -1.193084    4.401893    1.228251
     65          1           0       -2.802837    4.999019    0.989107
     66          1           0       -4.144006    3.965318   -2.234127
     67          1           0       -5.329246    3.034134   -1.330641
     68          1           0       -4.623692    2.417796   -2.905461
     69          1           0       -5.123521   -0.151942   -1.788488
     70          1           0        9.170091   -0.169464   -0.259029
     71          1           0        9.957750   -0.653547   -2.167808
     72          1           0       -3.747374   -2.800336    3.466223
     73          1           0       -5.951093   -1.660388   -2.654461
     74          1           0       -5.087378   -5.554151   -0.669810
     75          1           0       -4.235010   -5.438506   -2.209021
     76          1           0       -3.173714   -5.766034   -0.627801
     77          1           0       -1.453250    8.203604    1.097598
     78          1           0       -7.636600   -3.411030   -2.792787
     79          1           0       -6.633601   -4.748446   -2.031809
 ---------------------------------------------------------------------

 SCF Done:  E(RB3LYP) =  -1947.81503306     A.U. after   18 cycles

 Excitation energies and oscillator strengths:

 Excited State   1:      Singlet-A      1.9709 eV  629.08 nm  f=0.4688  <S**2>=0.000
     154 ->156         0.14661
     155 ->156         0.69260
     155 <-156        -0.13211
 This state for optimization and/or second-order correction.
 Total Energy, E(TD-HF/TD-DFT) =  -1947.74260456
 Copying the excited state density for this state as the 1-particle RhoCI density.

 The electronic state is 1-A.
 Alpha  occ. eigenvalues --  -19.18918 -19.14487 -19.13099 -19.12781 -19.10907
 Alpha  occ. eigenvalues --  -19.09813 -14.40509 -14.36923 -14.36313 -14.28654
 Alpha  occ. eigenvalues --  -10.33639 -10.31080 -10.28144 -10.26708 -10.25875
 Alpha  occ. eigenvalues --  -10.25518 -10.24871 -10.24683 -10.24536 -10.24353
 Alpha  occ. eigenvalues --  -10.23384 -10.22940 -10.22289 -10.22283 -10.21880
 Alpha  occ. eigenvalues --  -10.21754 -10.21416 -10.21221 -10.21168 -10.21124
 Alpha  occ. eigenvalues --  -10.21070 -10.20667 -10.20515 -10.20496 -10.20409
 Alpha  occ. eigenvalues --  -10.20294 -10.20241 -10.20131 -10.20064 -10.19883
 Alpha  occ. eigenvalues --  -10.19413 -10.19389 -10.18945  -1.08527  -1.08278
 Alpha  occ. eigenvalues --   -1.03504  -1.01294  -1.00188  -0.99870  -0.99263
 Alpha  occ. eigenvalues --   -0.97608  -0.94287  -0.90582  -0.84664  -0.84086
 Alpha  occ. eigenvalues --   -0.82690  -0.81745  -0.80167  -0.79995  -0.78566
 Alpha  occ. eigenvalues --   -0.78168  -0.76443  -0.75850  -0.74685  -0.72439
 Alpha  occ. eigenvalues --   -0.71863  -0.71621  -0.69803  -0.69156  -0.68525
 Alpha  occ. eigenvalues --   -0.67502  -0.66254  -0.63950  -0.61243  -0.60682
 Alpha  occ. eigenvalues --   -0.59973  -0.59429  -0.58127  -0.57653  -0.56991
 Alpha  occ. eigenvalues --   -0.56228  -0.56121  -0.55109  -0.54119  -0.52754
 Alpha  occ. eigenvalues --   -0.52236  -0.51231  -0.50954  -0.50262  -0.50151
 Alpha  occ. eigenvalues --   -0.48957  -0.48276  -0.47952  -0.47820  -0.47485
 Alpha  occ. eigenvalues --   -0.47306  -0.46898  -0.46466  -0.46276  -0.46103
 Alpha  occ. eigenvalues --   -0.45858  -0.45451  -0.45229  -0.44522  -0.43889
 Alpha  occ. eigenvalues --   -0.43505  -0.43085  -0.42987  -0.42833  -0.42324
 Alpha  occ. eigenvalues --   -0.42156  -0.41903  -0.41810  -0.41628  -0.41458
 Alpha  occ. eigenvalues --   -0.41195  -0.40856  -0.40581  -0.40094  -0.39962
 Alpha  occ. eigenvalues --   -0.39776  -0.39583  -0.39071  -0.38591  -0.38339
 Alpha  occ. eigenvalues --   -0.38146  -0.38069  -0.37961  -0.37525  -0.37150
 Alpha  occ. eigenvalues --   -0.35816  -0.35282  -0.35044  -0.34623  -0.33512
 Alpha  occ. eigenvalues --   -0.33129  -0.32989  -0.32546  -0.31617  -0.31188
 Alpha  occ. eigenvalues --   -0.31141  -0.30879  -0.29360  -0.28316  -0.28182
 Alpha  occ. eigenvalues --   -0.27806  -0.27362  -0.26616  -0.26321  -0.25972
 Alpha  occ. eigenvalues --   -0.24976  -0.23844  -0.23535  -0.21888  -0.18669
 Alpha virt. eigenvalues --   -0.11150  -0.07020  -0.05253  -0.02950  -0.01071
 Alpha virt. eigenvalues --    0.00543   0.00780   0.01032   0.01601   0.02423
 Alpha virt. eigenvalues --    0.02726   0.03362   0.03670   0.03960   0.04311

 Mulliken charges:
               1
     1  O   -0.195740
     2  O   -0.190486
     3  O   -0.179534
     4  O   -0.235498
     5  O   -0.287750
     6  O   -0.207328
     7  N   -0.103805
     8  N   -0.287435
     9  N   -0.061448
    10  N   -0.346810
    11  C    0.108949
    12  C    0.196573
    13  C   -0.055043
    14  C   -0.063976
    15  C   -0.059406
    16  C    0.127821
    17  C   -0.178559
    18  C    0.004220
    19  C   -0.130376
    20  C   -0.082927
    21  C    0.002391
    22  C    0.157393
    23  C   -0.006305
    24  C    0.036700
    25  C    0.072624
    26  C   -0.070690
    27  C   -0.013507
    28  C    0.065035
    29  C    0.038961
    30  C   -0.019233
    31  C   -0.062754
    32  C    0.001408
    33  C   -0.109843
    34  C    0.127105
    35  C    0.076061
    36  C   -0.086344
    37  C    0.194599
    38  C    0.065176
    39  C   -0.246621
    40  C    0.186432
    41  C   -0.058749
    42  C    0.105423
    43  C   -0.076618
    44  H    0.031602
    45  H   -0.006166
    46  H   -0.010394
    47  H    0.111241
    48  H    0.171307
    49  H    0.031164
    50  H   -0.000120
    51  H   -0.010914
    52  H    0.013714
    53  H    0.040357
    54  H    0.047222
    55  H    0.021091
    56  H    0.050392
    57  H    0.064531
    58  H    0.086091
    59  H    0.050927
    60  H    0.168155
    61  H    0.030959
    62  H    0.010071
    63  H    0.061266
    64  H    0.071862
    65  H    0.063923
    66  H    0.009425
    67  H    0.042800
    68  H    0.036063
    69  H    0.021520
    70  H    0.057122
    71  H    0.038821
    72  H    0.126027
    73  H    0.026630
    74  H    0.037544
    75  H    0.040734
    76  H    0.039678
    77  H    0.228889
    78  H    0.034880
    79  H    0.011499
 Sum of Mulliken charges =  -0.00000

 Dipole moment (field-independent basis, Debye):
    X=              2.0029    Y=              2.1976    Z=              4.4061  Tot=              5.3155
 Quadrupole moment (field-independent basis, Debye-Ang):
   XX=           -226.1178   YY=           -255.7860   ZZ=           -263.2617
   XY=             -6.2044   XZ=             30.3159   YZ=              4.2148

 Normal termination of Gaussian 16 at Mon Oct  7 04:27:32 2019.
