 Gaussian 16, Revision A.03,
 Gaussian 16:  ES64L-G16RevA.03 25-Dec-2016

 --------------------------
 # td=(NStates=1) B3LYP/SVP
 --------------------------

 --
 TD
 --
 Symbolic Z-matrix:
 Charge =  0 Multiplicity = 1

                         Standard orientation:
 ---------------------------------------------------------------------
 Center     Atomic      Atomic             Coordinates (Angstroms)
 Number     Number       Type             X           Y           Z
 ---------------------------------------------------------------------
      1          8           0       -3.357651   -1.222224   -2.955824
      2          8           0        3.429498    2.620575    3.188170
      3          8           0        3.640236    0.916369    4.558909
      4          8           0        7.771831   -1.406186   -0.807180
      5          8           0        6.717187   -2.826161   -2.117180
      6          8           0       -2.652904    1.621751    1.542634
      7          7           0       -0.348124   -2.576838    0.732150
      8          7           0       -2.792348   -1.110134   -0.699513
      9          7           0        1.094496    0.001294   -0.867273
     10          7           0       -0.979267    1.385734   -0.078059
     11          6           0       -3.558547   -1.294415    0.553353
     12          6           0       -2.759426   -2.340537    1.355506
     13          6           0       -1.362088   -2.132940    1.581525
     14          6           0       -0.651103   -1.432428    2.679093
     15          6           0        0.672335   -1.413472    2.339182
     16          6           0        0.880679   -2.028989    1.029082
     17          6           0       -4.770615   -1.810384    0.149271
     18          6           0        1.776005   -0.716589    3.029660
     19          6           0       -4.940328   -1.868733   -1.177078
     20          6           0        2.036733   -2.022226    0.140606
     21          6           0        2.039350   -0.966558   -0.831758
     22          6           0       -3.594941   -1.311793   -1.790286
     23          6           0        3.049841   -0.606473   -1.813627
     24          6           0       -1.435436   -0.826685    3.656051
     25          6           0       -5.858868   -2.126559    1.149228
     26          6           0        2.686746    0.663906   -2.453484
     27          6           0        2.024160    0.767272    2.812132
     28          6           0        1.438630    1.078181   -1.762387
     29          6           0        4.264025   -1.437356   -2.115479
     30          6           0       -6.054834   -2.163735   -2.131722
     31          6           0        5.413260   -0.935841   -1.168887
     32          6           0        3.467028    1.369730   -3.420255
     33          6           0        0.571856    2.114520   -1.965367
     34          6           0        3.162782    1.385641    3.589003
     35          6           0       -0.485548    2.325803   -0.980581
     36          6           0       -7.172565   -2.749948   -1.865499
     37          6           0        6.709670   -1.839042   -1.401675
     38          6           0       -1.219912    3.580739   -0.844616
     39          6           0       -2.196453    3.411032    0.035559
     40          6           0       -2.015989    2.014331    0.620036
     41          6           0       -1.232565    4.799226   -1.763408
     42          6           0       -3.223530    4.332367    0.526495
     43          6           0       -1.840695    5.974319   -1.688210
     44          1           0       -3.605422   -0.441008    1.147086
     45          1           0       -2.763745   -3.353533    0.968705
     46          1           0       -3.207060   -2.140225    2.356886
     47          1           0       -0.822708   -2.883657   -0.107545
     48          1           0       -2.215975   -0.395357   -0.706499
     49          1           0        1.557797   -0.853843    4.081115
     50          1           0        2.709437   -1.459202    2.740904
     51          1           0        2.977831   -2.776791    0.336093
     52          1           0       -2.191846   -1.336343    4.123464
     53          1           0       -0.796103   -0.299579    4.530545
     54          1           0       -1.983039    0.199506    3.233016
     55          1           0       -6.004164   -1.359825    2.084603
     56          1           0       -5.705547   -3.259531    1.428491
     57          1           0       -6.921410   -1.926360    0.420007
     58          1           0        2.253507    0.985495    1.750003
     59          1           0        1.136804    1.353598    3.059038
     60          1           0        0.084882    0.116262   -0.447351
     61          1           0        4.531128   -1.261490   -3.120602
     62          1           0        4.070213   -2.512981   -1.939511
     63          1           0       -5.771772   -1.964910   -3.185410
     64          1           0        4.907933   -1.032521   -0.218751
     65          1           0        5.611032    0.157345   -1.401272
     66          1           0        4.268068    0.616030   -3.987258
     67          1           0        4.336291    2.071304   -3.131363
     68          1           0        2.737058    1.855797   -4.190180
     69          1           0        0.820593    2.946310   -2.784261
     70          1           0       -7.506765   -3.141399   -0.914105
     71          1           0       -8.129957   -2.880991   -2.619075
     72          1           0        4.101783    3.006008    3.747694
     73          1           0       -0.674069    4.605145   -2.681703
     74          1           0       -3.691553    4.982399   -0.276701
     75          1           0       -4.124096    3.877380    1.094859
     76          1           0       -2.676975    5.045208    1.339935
     77          1           0        8.545954   -2.030177   -1.038437
     78          1           0       -1.663791    6.766748   -2.371514
     79          1           0       -2.321136    6.437635   -0.637041
 ---------------------------------------------------------------------

 SCF Done:  E(RB3LYP) =  -1947.82719563     A.U. after   17 cycles

 Excitation energies and oscillator strengths:

 Excited State   1:      Singlet-A      0.7969 eV 1555.85 nm  f=0.0095  <S**2>=0.000
     155 ->156         0.70537
 This state for optimization and/or second-order correction.
 Total Energy, E(TD-HF/TD-DFT) =  -1947.79791053
 Copying the excited state density for this state as the 1-particle RhoCI density.

 The electronic state is 1-A.
 Alpha  occ. eigenvalues --  -19.20618 -19.17663 -19.13232 -19.13185 -19.11500
 Alpha  occ. eigenvalues --  -19.09270 -14.36941 -14.36388 -14.32494 -14.31996
 Alpha  occ. eigenvalues --  -10.33396 -10.30762 -10.28811 -10.27010 -10.26802
 Alpha  occ. eigenvalues --  -10.26664 -10.25597 -10.23891 -10.23292 -10.22960
 Alpha  occ. eigenvalues --  -10.22886 -10.22698 -10.22452 -10.22332 -10.21582
 Alpha  occ. eigenvalues --  -10.21437 -10.21236 -10.21234 -10.21112 -10.20911
 Alpha  occ. eigenvalues --  -10.20817 -10.20629 -10.19893 -10.19552 -10.19508
 Alpha  occ. eigenvalues --  -10.19445 -10.19068 -10.19028 -10.18887 -10.18556
 Alpha  occ. eigenvalues --  -10.17784 -10.17347 -10.16426  -1.12459  -1.10716
 Alpha  occ. eigenvalues --   -1.05698  -1.02493  -1.01181  -1.01150  -0.97616
 Alpha  occ. eigenvalues --   -0.96100  -0.94158  -0.93614  -0.82916  -0.82168
 Alpha  occ. eigenvalues --   -0.81909  -0.81497  -0.80571  -0.79458  -0.77950
 Alpha  occ. eigenvalues --   -0.76920  -0.76330  -0.75846  -0.74703  -0.72587
 Alpha  occ. eigenvalues --   -0.71009  -0.70599  -0.68839  -0.68356  -0.67571
 Alpha  occ. eigenvalues --   -0.66486  -0.66202  -0.63194  -0.61843  -0.60464
 Alpha  occ. eigenvalues --   -0.60323  -0.59812  -0.58990  -0.56780  -0.56335
 Alpha  occ. eigenvalues --   -0.55502  -0.54749  -0.54511  -0.53248  -0.52761
 Alpha  occ. eigenvalues --   -0.52259  -0.51847  -0.51168  -0.50791  -0.49881
 Alpha  occ. eigenvalues --   -0.49275  -0.48940  -0.48692  -0.48212  -0.47543
 Alpha  occ. eigenvalues --   -0.47408  -0.47132  -0.46950  -0.46115  -0.46046
 Alpha  occ. eigenvalues --   -0.45668  -0.45184  -0.44972  -0.44744  -0.44483
 Alpha  occ. eigenvalues --   -0.43689  -0.43334  -0.43061  -0.42712  -0.42346
 Alpha  occ. eigenvalues --   -0.41607  -0.41542  -0.41373  -0.41155  -0.40800
 Alpha  occ. eigenvalues --   -0.40513  -0.40489  -0.40079  -0.39928  -0.39405
 Alpha  occ. eigenvalues --   -0.39250  -0.39099  -0.39045  -0.38818  -0.37991
 Alpha  occ. eigenvalues --   -0.37707  -0.37310  -0.37005  -0.36876  -0.36347
 Alpha  occ. eigenvalues --   -0.36139  -0.35792  -0.35503  -0.34997  -0.33782
 Alpha  occ. eigenvalues --   -0.33335  -0.33265  -0.32704  -0.32369  -0.31681
 Alpha  occ. eigenvalues --   -0.31176  -0.30519  -0.30050  -0.29303  -0.29080
 Alpha  occ. eigenvalues --   -0.27228  -0.26275  -0.26105  -0.25472  -0.24366
 Alpha  occ. eigenvalues --   -0.24129  -0.23389  -0.22863  -0.22157  -0.18043
 Alpha virt. eigenvalues --   -0.12747  -0.07743  -0.03517  -0.01985  -0.00437
 Alpha virt. eigenvalues --    0.00721   0.01611   0.02044   0.02441   0.02801
 Alpha virt. eigenvalues --    0.03051   0.03966   0.04327   0.04548   0.05265

 Mulliken charges:
               1
     1  O   -0.199104
     2  O   -0.158239
     3  O   -0.195609
     4  O   -0.146550
     5  O   -0.243828
     6  O   -0.164998
     7  N   -0.048403
     8  N   -0.158124
     9  N   -0.169629
    10  N   -0.353661
    11  C    0.152206
    12  C    0.205354
    13  C   -0.184757
    14  C    0.002018
    15  C   -0.107311
    16  C    0.008347
    17  C   -0.156028
    18  C    0.073281
    19  C   -0.076434
    20  C   -0.136674
    21  C    0.127158
    22  C    0.115776
    23  C   -0.146813
    24  C   -0.017439
    25  C   -0.062978
    26  C   -0.039086
    27  C    0.040630
    28  C    0.139050
    29  C    0.136833
    30  C    0.054977
    31  C   -0.046769
    32  C   -0.043798
    33  C   -0.126470
    34  C    0.079842
    35  C    0.103329
    36  C   -0.093432
    37  C    0.143719
    38  C    0.027642
    39  C   -0.170108
    40  C    0.174503
    41  C    0.010788
    42  C   -0.001484
    43  C   -0.070207
    44  H    0.006017
    45  H   -0.012531
    46  H   -0.010864
    47  H    0.110027
    48  H    0.082546
    49  H    0.000241
    50  H    0.012226
    51  H    0.063574
    52  H   -0.002784
    53  H   -0.001661
    54  H    0.056866
    55  H    0.055567
    56  H    0.064755
    57  H    0.060537
    58  H    0.020365
    59  H    0.037390
    60  H    0.223688
    61  H   -0.002900
    62  H    0.031907
    63  H    0.018530
    64  H    0.040145
    65  H    0.044600
    66  H    0.031388
    67  H    0.055724
    68  H    0.055784
    69  H    0.038235
    70  H    0.015264
    71  H    0.036883
    72  H    0.167928
    73  H   -0.006486
    74  H    0.052317
    75  H    0.040923
    76  H    0.060069
    77  H    0.210765
    78  H    0.016412
    79  H    0.049036
 Sum of Mulliken charges =  -0.00000

 Dipole moment (field-independent basis, Debye):
    X=              3.4507    Y=              3.9087    Z=             -0.7615  Tot=              5.2692
 Quadrupole moment (field-independent basis, Debye-Ang):
   XX=           -223.8532   YY=           -237.9080   ZZ=           -274.4553
   XY=              6.8063   XZ=            -21.7193   YZ=             -9.6737

 Normal termination of Gaussian 16 at Tue Jul 30 22:02:39 2019.
