 Gaussian 16, Revision A.03,
 Gaussian 16:  ES64L-G16RevA.03 25-Dec-2016

 --------------------------
 # td=(NStates=1) B3LYP/SVP
 --------------------------

 --
 TD
 --
 Symbolic Z-matrix:
 Charge =  0 Multiplicity = 1

                         Standard orientation:
 ---------------------------------------------------------------------
 Center     Atomic      Atomic             Coordinates (Angstroms)
 Number     Number       Type             X           Y           Z
 ---------------------------------------------------------------------
      1          8           0        5.367813   -0.044040   -3.268454
      2          8           0       -2.999746   -2.853396    3.172391
      3          8           0       -3.320238   -0.684880    2.808516
      4          8           0       -1.507229    7.190504    1.428968
      5          8           0       -0.843454    7.122140   -0.819117
      6          8           0       -1.666285   -4.022558    0.056151
      7          7           0        2.318362    1.044213    0.545564
      8          7           0        4.400577   -0.699921   -1.242706
      9          7           0       -2.007023    0.617404   -0.294888
     10          7           0       -2.590205   -1.940742   -0.325160
     11          6           0        4.838535   -1.202839   -0.007411
     12          6           0        4.389725   -0.211013    1.165332
     13          6           0        2.959898    0.052690    1.282810
     14          6           0        2.004973   -0.578119    2.062430
     15          6           0        0.768987    0.134269    1.850356
     16          6           0        0.910184    0.995809    0.813146
     17          6           0        6.363265   -1.336082   -0.176725
     18          6           0       -0.480767   -0.140544    2.608492
     19          6           0        6.658945   -0.935498   -1.427563
     20          6           0        0.101805    1.940812    0.160772
     21          6           0       -1.302497    1.922755   -0.259015
     22          6           0        5.436169   -0.527226   -2.158316
     23          6           0       -2.027727    2.881870   -0.801863
     24          6           0        2.240191   -1.581638    3.147784
     25          6           0        7.084294   -1.904282    0.962644
     26          6           0       -3.288124    2.224920   -1.175043
     27          6           0       -1.131349   -1.572464    2.557235
     28          6           0       -3.127627    0.835609   -0.854326
     29          6           0       -1.631684    4.292068   -0.983214
     30          6           0        8.024483   -0.812569   -2.038750
     31          6           0       -1.587255    5.090171    0.408067
     32          6           0       -4.519267    2.851879   -1.787871
     33          6           0       -3.936035   -0.191879   -1.261439
     34          6           0       -2.536822   -1.588629    2.829970
     35          6           0       -3.659234   -1.453149   -1.039861
     36          6           0        9.236503   -0.899484   -1.396375
     37          6           0       -1.218772    6.554692    0.231203
     38          6           0       -4.579294   -2.623475   -1.418711
     39          6           0       -3.923709   -3.745637   -0.992981
     40          6           0       -2.682424   -3.375941   -0.345512
     41          6           0       -5.758178   -2.536351   -2.246313
     42          6           0       -4.307481   -5.236477   -1.045089
     43          6           0       -6.699203   -3.522643   -2.520168
     44          1           0        4.397163   -2.176000    0.265086
     45          1           0        4.952186    0.703625    1.167696
     46          1           0        4.812193   -0.748656    2.139885
     47          1           0        2.673107    1.801629   -0.103916
     48          1           0        3.338854   -0.698747   -1.672682
     49          1           0       -0.216811    0.216626    3.786222
     50          1           0       -1.305251    0.466831    2.208600
     51          1           0        0.613977    2.853508   -0.141515
     52          1           0        3.237080   -1.635315    3.610230
     53          1           0        1.476597   -1.559307    3.867147
     54          1           0        2.341305   -2.712032    2.661817
     55          1           0        6.443480   -2.662809    1.595577
     56          1           0        7.433385   -0.906364    1.601187
     57          1           0        8.073367   -2.280018    0.639573
     58          1           0       -0.983713   -2.253519    1.540633
     59          1           0       -0.596736   -2.297847    3.186330
     60          1           0       -1.700075   -0.395510   -0.013048
     61          1           0       -2.240262    4.901911   -1.859910
     62          1           0       -0.495609    4.463619   -1.240960
     63          1           0        8.106695   -0.731754   -3.186307
     64          1           0       -0.662530    4.604328    1.047582
     65          1           0       -2.696806    4.964247    0.946687
     66          1           0       -4.027937    3.729792   -2.301308
     67          1           0       -5.378367    3.146191   -0.954275
     68          1           0       -4.913383    2.424804   -2.788111
     69          1           0       -4.873979   -0.185676   -2.010785
     70          1           0        9.424887   -1.128742   -0.370359
     71          1           0       10.165024   -0.734247   -2.076798
     72          1           0       -3.977097   -2.660804    3.190852
     73          1           0       -6.062357   -1.630210   -2.908305
     74          1           0       -5.259610   -5.355955   -0.683442
     75          1           0       -4.290986   -5.560649   -1.931709
     76          1           0       -3.442554   -5.773698   -0.450502
     77          1           0       -0.996493    8.071376    1.467537
     78          1           0       -7.467743   -3.301536   -3.003321
     79          1           0       -6.722929   -4.577567   -1.894857
 ---------------------------------------------------------------------

 SCF Done:  E(RB3LYP) =  -1947.80578610     A.U. after   20 cycles

 Excitation energies and oscillator strengths:

 Excited State   1:      Singlet-A      1.8571 eV  667.63 nm  f=0.3512  <S**2>=0.000
     154 ->156         0.19470
     155 ->156         0.68166
     155 <-156        -0.12786
 This state for optimization and/or second-order correction.
 Total Energy, E(TD-HF/TD-DFT) =  -1947.73753988
 Copying the excited state density for this state as the 1-particle RhoCI density.

 The electronic state is 1-A.
 Alpha  occ. eigenvalues --  -19.19603 -19.15218 -19.14661 -19.11019 -19.10306
 Alpha  occ. eigenvalues --  -19.09223 -14.39236 -14.36393 -14.36098 -14.27884
 Alpha  occ. eigenvalues --  -10.34115 -10.29763 -10.28654 -10.25538 -10.25470
 Alpha  occ. eigenvalues --  -10.24942 -10.24726 -10.24649 -10.23887 -10.23774
 Alpha  occ. eigenvalues --  -10.23653 -10.23537 -10.23340 -10.22746 -10.22569
 Alpha  occ. eigenvalues --  -10.21983 -10.21665 -10.21565 -10.21552 -10.21305
 Alpha  occ. eigenvalues --  -10.21217 -10.21120 -10.20928 -10.20826 -10.20573
 Alpha  occ. eigenvalues --  -10.20263 -10.20164 -10.20111 -10.19502 -10.19327
 Alpha  occ. eigenvalues --  -10.19315 -10.17996 -10.16750  -1.08328  -1.07418
 Alpha  occ. eigenvalues --   -1.02812  -1.00326  -0.99431  -0.98303  -0.97995
 Alpha  occ. eigenvalues --   -0.97787  -0.94795  -0.89516  -0.84101  -0.82242
 Alpha  occ. eigenvalues --   -0.81958  -0.81692  -0.79593  -0.78971  -0.77447
 Alpha  occ. eigenvalues --   -0.77277  -0.76634  -0.75715  -0.74553  -0.73196
 Alpha  occ. eigenvalues --   -0.71897  -0.71709  -0.69646  -0.69163  -0.68203
 Alpha  occ. eigenvalues --   -0.67420  -0.66756  -0.63983  -0.61437  -0.60314
 Alpha  occ. eigenvalues --   -0.59628  -0.58658  -0.57941  -0.57269  -0.56178
 Alpha  occ. eigenvalues --   -0.55924  -0.55088  -0.54797  -0.54180  -0.53466
 Alpha  occ. eigenvalues --   -0.51977  -0.51550  -0.50843  -0.50120  -0.49909
 Alpha  occ. eigenvalues --   -0.49027  -0.48395  -0.47979  -0.47525  -0.47382
 Alpha  occ. eigenvalues --   -0.46925  -0.46681  -0.46327  -0.45880  -0.45616
 Alpha  occ. eigenvalues --   -0.45388  -0.44950  -0.44296  -0.43953  -0.43814
 Alpha  occ. eigenvalues --   -0.43724  -0.43576  -0.42966  -0.42770  -0.42479
 Alpha  occ. eigenvalues --   -0.42176  -0.41775  -0.41731  -0.41595  -0.41236
 Alpha  occ. eigenvalues --   -0.40197  -0.39870  -0.39716  -0.39678  -0.39562
 Alpha  occ. eigenvalues --   -0.39474  -0.39179  -0.39000  -0.38718  -0.38233
 Alpha  occ. eigenvalues --   -0.37991  -0.37680  -0.37614  -0.37378  -0.37040
 Alpha  occ. eigenvalues --   -0.35680  -0.35184  -0.35031  -0.34844  -0.34281
 Alpha  occ. eigenvalues --   -0.34013  -0.33287  -0.33065  -0.32188  -0.31437
 Alpha  occ. eigenvalues --   -0.31386  -0.30184  -0.29483  -0.28707  -0.26847
 Alpha  occ. eigenvalues --   -0.26632  -0.26149  -0.26057  -0.25845  -0.24955
 Alpha  occ. eigenvalues --   -0.24545  -0.23719  -0.23246  -0.21995  -0.18915
 Alpha virt. eigenvalues --   -0.11687  -0.07197  -0.06172  -0.03015  -0.00693
 Alpha virt. eigenvalues --   -0.00038   0.00298   0.01587   0.01816   0.01872
 Alpha virt. eigenvalues --    0.02449   0.03419   0.03521   0.03855   0.04411

 Mulliken charges:
               1
     1  O   -0.208594
     2  O   -0.228242
     3  O   -0.227454
     4  O   -0.232927
     5  O   -0.245119
     6  O   -0.268992
     7  N   -0.152874
     8  N   -0.248831
     9  N   -0.097232
    10  N   -0.354161
    11  C    0.079076
    12  C    0.136242
    13  C   -0.002018
    14  C   -0.105972
    15  C   -0.073138
    16  C    0.128869
    17  C   -0.141212
    18  C    0.032776
    19  C   -0.035927
    20  C   -0.095498
    21  C    0.077352
    22  C    0.148584
    23  C    0.024303
    24  C    0.070989
    25  C    0.024788
    26  C   -0.177982
    27  C   -0.037285
    28  C    0.182383
    29  C   -0.018009
    30  C   -0.030902
    31  C   -0.117895
    32  C    0.036433
    33  C   -0.163172
    34  C    0.141129
    35  C    0.055388
    36  C   -0.059568
    37  C    0.193586
    38  C    0.098647
    39  C   -0.224166
    40  C    0.184545
    41  C   -0.111510
    42  C    0.217466
    43  C    0.009970
    44  H    0.017790
    45  H   -0.014816
    46  H    0.008370
    47  H    0.141577
    48  H    0.181857
    49  H    0.040426
    50  H    0.021887
    51  H   -0.019927
    52  H    0.005653
    53  H    0.020001
    54  H    0.032070
    55  H    0.063029
    56  H    0.058500
    57  H    0.039624
    58  H    0.121779
    59  H    0.012419
    60  H    0.193331
    61  H    0.067694
    62  H    0.035926
    63  H    0.039039
    64  H    0.077086
    65  H    0.090970
    66  H    0.006021
    67  H    0.077747
    68  H    0.037874
    69  H    0.002619
    70  H    0.004271
    71  H    0.045368
    72  H    0.177298
    73  H    0.026881
    74  H    0.005849
    75  H   -0.043670
    76  H    0.042667
    77  H    0.208922
    78  H   -0.048433
    79  H    0.038455
 Sum of Mulliken charges =  -0.00000

 Dipole moment (field-independent basis, Debye):
    X=              2.6231    Y=              3.5430    Z=              3.3916  Tot=              5.5620
 Quadrupole moment (field-independent basis, Debye-Ang):
   XX=           -222.2693   YY=           -253.2214   ZZ=           -264.0092
   XY=             -8.0507   XZ=             36.2540   YZ=              9.6197

 Normal termination of Gaussian 16 at Sat Sep 21 09:58:48 2019.
