 Gaussian 16, Revision A.03,
 Gaussian 16:  ES64L-G16RevA.03 25-Dec-2016

 --------------------------
 # td=(NStates=1) B3LYP/SVP
 --------------------------

 --
 TD
 --
 Symbolic Z-matrix:
 Charge =  0 Multiplicity = 1

                         Standard orientation:
 ---------------------------------------------------------------------
 Center     Atomic      Atomic             Coordinates (Angstroms)
 Number     Number       Type             X           Y           Z
 ---------------------------------------------------------------------
      1          8           0       -3.144017   -1.457093   -2.849681
      2          8           0        3.116876    3.244304    3.034023
      3          8           0        3.618744    1.516565    4.572576
      4          8           0        7.656367   -1.610785   -0.661691
      5          8           0        6.717197   -3.031695   -2.012315
      6          8           0       -2.625532    1.667649    1.426513
      7          7           0       -0.302071   -2.396846    0.955169
      8          7           0       -2.671989   -1.090729   -0.690866
      9          7           0        1.106570    0.030822   -0.771441
     10          7           0       -0.923037    1.437819   -0.202475
     11          6           0       -3.337057   -1.230386    0.662460
     12          6           0       -2.729087   -2.190369    1.661955
     13          6           0       -1.175673   -1.983861    1.827256
     14          6           0       -0.527029   -1.185653    2.912816
     15          6           0        0.804457   -1.072437    2.513420
     16          6           0        0.911581   -1.857455    1.259196
     17          6           0       -4.740940   -1.818401    0.251862
     18          6           0        1.866886   -0.183118    3.249149
     19          6           0       -4.772695   -2.039025   -1.122886
     20          6           0        2.018009   -1.841020    0.359871
     21          6           0        2.014846   -0.949817   -0.615788
     22          6           0       -3.442342   -1.569471   -1.633817
     23          6           0        2.983814   -0.719456   -1.819608
     24          6           0       -1.262882   -0.388354    3.937566
     25          6           0       -5.781659   -2.019204    1.370151
     26          6           0        2.551690    0.436197   -2.484557
     27          6           0        2.012132    1.176873    2.701074
     28          6           0        1.331944    0.861306   -1.824965
     29          6           0        4.184734   -1.622522   -2.034696
     30          6           0       -5.856036   -2.586007   -1.880512
     31          6           0        5.416759   -1.200748   -1.225694
     32          6           0        3.231376    1.128877   -3.645134
     33          6           0        0.510252    1.944947   -2.069768
     34          6           0        3.117536    1.966651    3.582902
     35          6           0       -0.592643    2.287211   -1.235575
     36          6           0       -6.813295   -3.511781   -1.427891
     37          6           0        6.629803   -1.991040   -1.438210
     38          6           0       -1.502000    3.447915   -1.334141
     39          6           0       -2.457926    3.308081   -0.335485
     40          6           0       -2.056355    2.062466    0.448019
     41          6           0       -1.356116    4.475147   -2.376820
     42          6           0       -3.489978    4.138668    0.124184
     43          6           0       -1.991936    5.652302   -2.560366
     44          1           0       -3.325219   -0.173599    1.316417
     45          1           0       -2.744469   -3.313876    1.314285
     46          1           0       -3.226816   -2.028649    2.545798
     47          1           0       -0.262914   -3.040198    0.185223
     48          1           0       -1.859682   -0.548842   -0.825237
     49          1           0        1.477114   -0.223104    4.320728
     50          1           0        2.784700   -0.832381    3.103542
     51          1           0        2.832099   -2.590410    0.517407
     52          1           0       -2.179572   -0.891756    4.317171
     53          1           0       -0.609302   -0.123034    4.924050
     54          1           0       -1.444316    0.597050    3.363076
     55          1           0       -5.539972   -1.534360    2.431782
     56          1           0       -5.925536   -3.243507    1.307642
     57          1           0       -6.802193   -1.566958    1.064764
     58          1           0        2.404677    1.142225    1.793534
     59          1           0        1.256223    1.879391    2.966276
     60          1           0        0.303588   -0.046321   -0.185118
     61          1           0        4.713200   -1.756718   -3.115740
     62          1           0        3.920998   -2.645554   -2.002642
     63          1           0       -5.765074   -2.363712   -3.060264
     64          1           0        5.426589   -1.080658   -0.090687
     65          1           0        5.604883   -0.271133   -1.563979
     66          1           0        4.186408    0.804935   -3.975613
     67          1           0        3.397076    2.293175   -3.437301
     68          1           0        2.756721    1.008377   -4.734213
     69          1           0        0.812943    2.664055   -2.817024
     70          1           0       -7.002303   -3.600044   -0.365180
     71          1           0       -7.692163   -3.964766   -2.014920
     72          1           0        3.688843    3.817597    3.560468
     73          1           0       -0.844295    4.155607   -3.189915
     74          1           0       -4.196493    4.572121   -0.874636
     75          1           0       -4.283951    3.561026    0.698575
     76          1           0       -3.163648    5.163986    0.483813
     77          1           0        8.424025   -2.252237   -0.661561
     78          1           0       -1.755587    6.390797   -3.286061
     79          1           0       -2.750999    5.983356   -1.898357
 ---------------------------------------------------------------------

 SCF Done:  E(RB3LYP) =  -1947.84138215     A.U. after   20 cycles

 Excitation energies and oscillator strengths:

 Excited State   1:      Singlet-A      0.9575 eV 1294.91 nm  f=0.0030  <S**2>=0.000
     155 ->156         0.70403
 This state for optimization and/or second-order correction.
 Total Energy, E(TD-HF/TD-DFT) =  -1947.80619571
 Copying the excited state density for this state as the 1-particle RhoCI density.

 The electronic state is 1-A.
 Alpha  occ. eigenvalues --  -19.18616 -19.18164 -19.13851 -19.13206 -19.12791
 Alpha  occ. eigenvalues --  -19.06194 -14.38358 -14.37008 -14.33309 -14.30554
 Alpha  occ. eigenvalues --  -10.32256 -10.32105 -10.28482 -10.26590 -10.25943
 Alpha  occ. eigenvalues --  -10.25082 -10.24753 -10.23900 -10.23444 -10.23433
 Alpha  occ. eigenvalues --  -10.22753 -10.22605 -10.22499 -10.21636 -10.21598
 Alpha  occ. eigenvalues --  -10.21543 -10.21537 -10.21016 -10.20981 -10.20970
 Alpha  occ. eigenvalues --  -10.20561 -10.20522 -10.20334 -10.20059 -10.19966
 Alpha  occ. eigenvalues --  -10.19894 -10.19315 -10.19238 -10.19128 -10.19107
 Alpha  occ. eigenvalues --  -10.18479 -10.17745 -10.17173  -1.10695  -1.08591
 Alpha  occ. eigenvalues --   -1.04778  -1.02021  -1.00843  -1.00565  -0.99072
 Alpha  occ. eigenvalues --   -0.98783  -0.92005  -0.90398  -0.83558  -0.83064
 Alpha  occ. eigenvalues --   -0.81339  -0.80373  -0.80138  -0.79476  -0.78335
 Alpha  occ. eigenvalues --   -0.77307  -0.76244  -0.75879  -0.73087  -0.72382
 Alpha  occ. eigenvalues --   -0.70977  -0.69990  -0.69413  -0.69080  -0.67856
 Alpha  occ. eigenvalues --   -0.66556  -0.65302  -0.62366  -0.61371  -0.60978
 Alpha  occ. eigenvalues --   -0.60348  -0.59792  -0.59437  -0.58609  -0.57235
 Alpha  occ. eigenvalues --   -0.56481  -0.55698  -0.55117  -0.53333  -0.52380
 Alpha  occ. eigenvalues --   -0.52139  -0.51881  -0.51089  -0.50379  -0.49975
 Alpha  occ. eigenvalues --   -0.49077  -0.48655  -0.48429  -0.48091  -0.47592
 Alpha  occ. eigenvalues --   -0.47094  -0.46857  -0.46398  -0.46310  -0.46171
 Alpha  occ. eigenvalues --   -0.45428  -0.45284  -0.44927  -0.44632  -0.44020
 Alpha  occ. eigenvalues --   -0.43758  -0.42795  -0.42495  -0.42168  -0.41845
 Alpha  occ. eigenvalues --   -0.41818  -0.41459  -0.41354  -0.41149  -0.40965
 Alpha  occ. eigenvalues --   -0.40699  -0.40503  -0.40314  -0.40025  -0.39725
 Alpha  occ. eigenvalues --   -0.39420  -0.39214  -0.39055  -0.38416  -0.38280
 Alpha  occ. eigenvalues --   -0.38088  -0.37570  -0.37165  -0.36367  -0.36079
 Alpha  occ. eigenvalues --   -0.35518  -0.35159  -0.35037  -0.34562  -0.34085
 Alpha  occ. eigenvalues --   -0.33913  -0.33383  -0.32909  -0.32728  -0.31350
 Alpha  occ. eigenvalues --   -0.30630  -0.29666  -0.29274  -0.28957  -0.28658
 Alpha  occ. eigenvalues --   -0.27318  -0.27125  -0.25567  -0.23804  -0.23479
 Alpha  occ. eigenvalues --   -0.23191  -0.22324  -0.21948  -0.21782  -0.18142
 Alpha virt. eigenvalues --   -0.12189  -0.07350  -0.04712  -0.01701  -0.00414
 Alpha virt. eigenvalues --    0.00689   0.01645   0.02140   0.03001   0.03576
 Alpha virt. eigenvalues --    0.04005   0.04148   0.04608   0.04647   0.04939

 Mulliken charges:
               1
     1  O   -0.296353
     2  O   -0.213875
     3  O   -0.187840
     4  O   -0.212394
     5  O   -0.211020
     6  O   -0.182931
     7  N    0.047987
     8  N   -0.114580
     9  N   -0.018381
    10  N   -0.364758
    11  C   -0.022147
    12  C    0.245680
    13  C   -0.162437
    14  C   -0.109676
    15  C   -0.098627
    16  C   -0.136000
    17  C   -0.134790
    18  C    0.100084
    19  C   -0.011716
    20  C   -0.174495
    21  C    0.123854
    22  C    0.107157
    23  C   -0.050117
    24  C    0.011286
    25  C   -0.027846
    26  C   -0.070837
    27  C    0.108385
    28  C    0.150180
    29  C    0.045625
    30  C   -0.052861
    31  C    0.063386
    32  C    0.026565
    33  C   -0.099261
    34  C    0.122714
    35  C    0.102603
    36  C   -0.071070
    37  C    0.095892
    38  C    0.095412
    39  C   -0.156132
    40  C    0.194579
    41  C   -0.001864
    42  C   -0.026292
    43  C   -0.000228
    44  H    0.102784
    45  H   -0.006836
    46  H   -0.045236
    47  H    0.121103
    48  H    0.109512
    49  H    0.017601
    50  H    0.007908
    51  H    0.015935
    52  H    0.017692
    53  H    0.020097
    54  H    0.067764
    55  H    0.057691
    56  H    0.074639
    57  H    0.056285
    58  H   -0.014938
    59  H    0.029401
    60  H    0.171332
    61  H    0.033868
    62  H    0.012627
    63  H    0.043136
    64  H    0.056204
    65  H   -0.007291
    66  H    0.001135
    67  H    0.048864
    68  H    0.050303
    69  H   -0.028263
    70  H   -0.001064
    71  H    0.041688
    72  H    0.170713
    73  H   -0.028250
    74  H    0.036558
    75  H    0.053483
    76  H    0.060958
    77  H    0.203506
    78  H    0.020843
    79  H   -0.004616
 Sum of Mulliken charges =  -0.00000

 Dipole moment (field-independent basis, Debye):
    X=              3.5002    Y=              3.8817    Z=              0.1106  Tot=              5.2279
 Quadrupole moment (field-independent basis, Debye-Ang):
   XX=           -231.1710   YY=           -234.3634   ZZ=           -270.0585
   XY=              3.5948   XZ=            -22.4111   YZ=            -13.4580

 Normal termination of Gaussian 16 at Mon Jul 29 06:09:12 2019.
