 Gaussian 16, Revision A.03,
 Gaussian 16:  ES64L-G16RevA.03 25-Dec-2016

 --------------------------
 # td=(NStates=1) B3LYP/SVP
 --------------------------

 --
 TD
 --
 Symbolic Z-matrix:
 Charge =  0 Multiplicity = 1

                         Standard orientation:
 ---------------------------------------------------------------------
 Center     Atomic      Atomic             Coordinates (Angstroms)
 Number     Number       Type             X           Y           Z
 ---------------------------------------------------------------------
      1          8           0       -3.288778   -1.145283   -2.834092
      2          8           0        3.038136    3.038207    3.269266
      3          8           0        3.618795    1.319166    4.623020
      4          8           0        7.760658   -1.717063   -0.969983
      5          8           0        6.585430   -3.085019   -2.233999
      6          8           0       -2.534751    1.734312    1.402962
      7          7           0       -0.322609   -2.402806    0.859223
      8          7           0       -2.739544   -1.164854   -0.574694
      9          7           0        1.181857    0.171490   -0.665610
     10          7           0       -0.913197    1.558652   -0.250929
     11          6           0       -3.441497   -1.352708    0.592990
     12          6           0       -2.742041   -2.324196    1.566225
     13          6           0       -1.372254   -1.960794    1.816124
     14          6           0       -0.603351   -1.232207    2.795748
     15          6           0        0.692763   -1.187415    2.499566
     16          6           0        0.881956   -1.804468    1.227983
     17          6           0       -4.871063   -1.857280    0.141062
     18          6           0        1.862623   -0.489948    3.297682
     19          6           0       -4.809252   -2.105624   -1.212019
     20          6           0        1.982246   -1.961173    0.379624
     21          6           0        2.017472   -0.905107   -0.643290
     22          6           0       -3.505753   -1.432620   -1.661445
     23          6           0        3.005564   -0.705075   -1.751798
     24          6           0       -1.357463   -0.444568    4.031568
     25          6           0       -5.698610   -2.203254    1.270204
     26          6           0        2.681359    0.508835   -2.344248
     27          6           0        1.907198    1.059651    2.908724
     28          6           0        1.456303    1.128592   -1.689355
     29          6           0        4.174287   -1.638281   -1.960577
     30          6           0       -5.805069   -2.659334   -2.131349
     31          6           0        5.450205   -1.129963   -1.159340
     32          6           0        3.409086    1.202147   -3.508321
     33          6           0        0.663231    2.100764   -1.963661
     34          6           0        2.950478    1.829099    3.708469
     35          6           0       -0.592636    2.355026   -1.302255
     36          6           0       -6.773032   -3.498452   -1.779807
     37          6           0        6.578102   -2.114050   -1.490087
     38          6           0       -1.491047    3.519927   -1.375264
     39          6           0       -2.348130    3.468961   -0.305377
     40          6           0       -1.920722    2.139437    0.494781
     41          6           0       -1.155438    4.679779   -2.269506
     42          6           0       -3.367698    4.319876    0.173243
     43          6           0       -1.988509    5.792458   -2.402380
     44          1           0       -3.618518   -0.279581    1.114007
     45          1           0       -2.767007   -3.249408    1.166387
     46          1           0       -3.338934   -2.254319    2.684624
     47          1           0       -0.496167   -2.799374   -0.045308
     48          1           0       -1.806309   -0.563376   -0.839083
     49          1           0        1.609461   -0.605272    4.279199
     50          1           0        2.618607   -1.218104    3.123944
     51          1           0        2.567759   -2.765072    0.407024
     52          1           0       -2.085343   -1.173144    4.680986
     53          1           0       -0.552140   -0.134301    4.680138
     54          1           0       -2.006748    0.413697    3.542601
     55          1           0       -5.683899   -1.355837    2.089091
     56          1           0       -5.457960   -3.264047    1.859738
     57          1           0       -6.794130   -2.529075    0.834147
     58          1           0        2.033655    1.310527    1.869868
     59          1           0        0.869191    1.576990    3.274105
     60          1           0        0.272654    0.474251   -0.165798
     61          1           0        4.433322   -1.504454   -2.984311
     62          1           0        3.873424   -2.507509   -1.610286
     63          1           0       -5.548341   -2.368079   -3.267928
     64          1           0        5.341388   -1.289795   -0.106629
     65          1           0        5.758465   -0.091590   -1.404279
     66          1           0        4.341650    0.356414   -3.893623
     67          1           0        3.821599    2.111526   -3.371259
     68          1           0        2.878590    1.239870   -4.371852
     69          1           0        0.724720    2.813502   -2.913023
     70          1           0       -7.190911   -3.904023   -0.775528
     71          1           0       -7.536272   -3.850317   -2.646157
     72          1           0        3.638198    3.343322    3.914269
     73          1           0       -0.191229    4.754601   -3.046812
     74          1           0       -3.922962    4.494245   -0.724589
     75          1           0       -3.867233    4.136536    1.092138
     76          1           0       -2.850680    5.332122    0.204061
     77          1           0        8.413815   -2.366337   -1.316576
     78          1           0       -1.856747    6.772790   -2.923301
     79          1           0       -2.722284    6.062485   -1.766777
 ---------------------------------------------------------------------

 SCF Done:  E(RB3LYP) =  -1947.76237097     A.U. after   19 cycles

 Excitation energies and oscillator strengths:

 Excited State   1:      Singlet-A      0.8098 eV 1531.11 nm  f=0.0004  <S**2>=0.000
     155 ->156         0.70415
 This state for optimization and/or second-order correction.
 Total Energy, E(TD-HF/TD-DFT) =  -1947.73261265
 Copying the excited state density for this state as the 1-particle RhoCI density.

 The electronic state is 1-A.
 Alpha  occ. eigenvalues --  -19.19810 -19.18554 -19.13969 -19.13398 -19.11934
 Alpha  occ. eigenvalues --  -19.08075 -14.35984 -14.35980 -14.34248 -14.31797
 Alpha  occ. eigenvalues --  -10.32883 -10.31597 -10.29439 -10.26629 -10.26610
 Alpha  occ. eigenvalues --  -10.25992 -10.25846 -10.24103 -10.22926 -10.22690
 Alpha  occ. eigenvalues --  -10.22606 -10.22417 -10.22292 -10.22226 -10.21835
 Alpha  occ. eigenvalues --  -10.21458 -10.21346 -10.21040 -10.20906 -10.20877
 Alpha  occ. eigenvalues --  -10.20442 -10.20421 -10.20345 -10.20166 -10.20067
 Alpha  occ. eigenvalues --  -10.20053 -10.20042 -10.19687 -10.19605 -10.19216
 Alpha  occ. eigenvalues --  -10.18387 -10.17198 -10.16487  -1.13581  -1.10409
 Alpha  occ. eigenvalues --   -1.07138  -1.00589  -1.00157  -0.99672  -0.97728
 Alpha  occ. eigenvalues --   -0.94476  -0.93999  -0.92954  -0.83524  -0.82500
 Alpha  occ. eigenvalues --   -0.81869  -0.80328  -0.79248  -0.78698  -0.78304
 Alpha  occ. eigenvalues --   -0.77098  -0.75966  -0.75257  -0.74276  -0.72977
 Alpha  occ. eigenvalues --   -0.72145  -0.69463  -0.69181  -0.68733  -0.67714
 Alpha  occ. eigenvalues --   -0.66497  -0.65174  -0.63149  -0.61157  -0.60224
 Alpha  occ. eigenvalues --   -0.59925  -0.59134  -0.58603  -0.57108  -0.56468
 Alpha  occ. eigenvalues --   -0.55472  -0.55294  -0.54531  -0.54483  -0.52255
 Alpha  occ. eigenvalues --   -0.51768  -0.51687  -0.50822  -0.50427  -0.50302
 Alpha  occ. eigenvalues --   -0.49605  -0.48822  -0.48558  -0.48447  -0.48135
 Alpha  occ. eigenvalues --   -0.47506  -0.47221  -0.46821  -0.46537  -0.45813
 Alpha  occ. eigenvalues --   -0.45589  -0.45367  -0.45073  -0.44762  -0.44254
 Alpha  occ. eigenvalues --   -0.44131  -0.43600  -0.43073  -0.42800  -0.42507
 Alpha  occ. eigenvalues --   -0.42188  -0.41741  -0.41566  -0.40930  -0.40844
 Alpha  occ. eigenvalues --   -0.40730  -0.40451  -0.40318  -0.40094  -0.39907
 Alpha  occ. eigenvalues --   -0.39399  -0.39165  -0.38406  -0.37937  -0.37771
 Alpha  occ. eigenvalues --   -0.37317  -0.37154  -0.36814  -0.36427  -0.36196
 Alpha  occ. eigenvalues --   -0.36016  -0.35629  -0.35048  -0.34711  -0.34475
 Alpha  occ. eigenvalues --   -0.34018  -0.32702  -0.32436  -0.32113  -0.31554
 Alpha  occ. eigenvalues --   -0.30841  -0.30624  -0.30213  -0.29247  -0.28924
 Alpha  occ. eigenvalues --   -0.27492  -0.26532  -0.26000  -0.24582  -0.23952
 Alpha  occ. eigenvalues --   -0.23651  -0.23480  -0.22880  -0.21869  -0.18110
 Alpha virt. eigenvalues --   -0.12598  -0.07174  -0.04540  -0.03058  -0.00892
 Alpha virt. eigenvalues --    0.00717   0.01116   0.02010   0.02550   0.03248
 Alpha virt. eigenvalues --    0.03693   0.03951   0.04213   0.05098   0.05546

 Mulliken charges:
               1
     1  O   -0.255234
     2  O   -0.080950
     3  O   -0.271015
     4  O   -0.189572
     5  O   -0.244460
     6  O   -0.133864
     7  N   -0.135644
     8  N   -0.194297
     9  N   -0.162312
    10  N   -0.336210
    11  C   -0.018039
    12  C    0.245183
    13  C   -0.066180
    14  C   -0.108130
    15  C   -0.157752
    16  C    0.022144
    17  C   -0.109825
    18  C    0.260895
    19  C   -0.054366
    20  C   -0.063046
    21  C    0.082320
    22  C    0.105011
    23  C   -0.127671
    24  C   -0.001764
    25  C   -0.043774
    26  C   -0.115333
    27  C   -0.038553
    28  C    0.205077
    29  C    0.248222
    30  C    0.002146
    31  C    0.006233
    32  C    0.107866
    33  C   -0.138338
    34  C    0.113421
    35  C    0.054452
    36  C   -0.106647
    37  C    0.123990
    38  C    0.076352
    39  C   -0.248359
    40  C    0.183705
    41  C   -0.058989
    42  C    0.141482
    43  C   -0.039172
    44  H    0.056685
    45  H   -0.061417
    46  H    0.024017
    47  H    0.102118
    48  H    0.189629
    49  H   -0.036074
    50  H   -0.007768
    51  H   -0.043936
    52  H    0.028144
    53  H    0.004005
    54  H    0.070077
    55  H    0.051818
    56  H    0.062309
    57  H    0.037540
    58  H    0.029958
    59  H    0.063387
    60  H    0.205029
    61  H    0.009439
    62  H   -0.028799
    63  H    0.053406
    64  H    0.034919
    65  H    0.057874
    66  H    0.015629
    67  H    0.009999
    68  H    0.006860
    69  H    0.025988
    70  H    0.045422
    71  H    0.035149
    72  H    0.141409
    73  H    0.056174
    74  H    0.037131
    75  H    0.031519
    76  H    0.035765
    77  H    0.184902
    78  H    0.026000
    79  H   -0.033310
 Sum of Mulliken charges =  -0.00000

 Dipole moment (field-independent basis, Debye):
    X=              1.9660    Y=              4.3212    Z=             -0.5519  Tot=              4.7794
 Quadrupole moment (field-independent basis, Debye-Ang):
   XX=           -239.9592   YY=           -230.4169   ZZ=           -272.6916
   XY=              3.5954   XZ=            -22.6743   YZ=            -10.4534

 Normal termination of Gaussian 16 at Sat Jul 27 01:44:35 2019.
