 Gaussian 16, Revision A.03,
 Gaussian 16:  ES64L-G16RevA.03 25-Dec-2016

 --------------------------
 # td=(NStates=1) B3LYP/SVP
 --------------------------

 --
 TD
 --
 Symbolic Z-matrix:
 Charge =  0 Multiplicity = 1

                         Standard orientation:
 ---------------------------------------------------------------------
 Center     Atomic      Atomic             Coordinates (Angstroms)
 Number     Number       Type             X           Y           Z
 ---------------------------------------------------------------------
      1          8           0        5.292804   -0.226852   -3.391233
      2          8           0       -3.185333   -2.771797    3.355739
      3          8           0       -3.346633   -0.553250    3.155276
      4          8           0       -1.492223    7.194079    1.446795
      5          8           0       -0.510193    6.898625   -0.582474
      6          8           0       -1.894111   -3.919755    0.227227
      7          7           0        2.362755    0.909066    0.634588
      8          7           0        4.348989   -0.556665   -1.215147
      9          7           0       -1.835750    0.739345   -0.369809
     10          7           0       -2.582507   -1.849843   -0.592233
     11          6           0        4.848017   -1.278731   -0.013963
     12          6           0        4.367238   -0.497570    1.297122
     13          6           0        2.957957   -0.074297    1.434062
     14          6           0        1.911826   -0.649820    2.188924
     15          6           0        0.753272    0.000131    1.863809
     16          6           0        1.035361    0.945010    0.863569
     17          6           0        6.298666   -1.366693   -0.225002
     18          6           0       -0.565198   -0.183131    2.503251
     19          6           0        6.704396   -0.916386   -1.432775
     20          6           0        0.249883    1.883667    0.197624
     21          6           0       -1.056506    1.888637   -0.373473
     22          6           0        5.446170   -0.496700   -2.232530
     23          6           0       -1.844881    2.929888   -0.947311
     24          6           0        2.044365   -1.796883    3.240619
     25          6           0        7.216670   -2.056564    0.855528
     26          6           0       -3.044705    2.482982   -1.395935
     27          6           0       -1.206314   -1.528592    2.732831
     28          6           0       -3.074574    0.992711   -1.082959
     29          6           0       -1.434547    4.309427   -0.853509
     30          6           0        7.976863   -0.771531   -2.035326
     31          6           0       -1.725741    5.024216    0.501062
     32          6           0       -4.226979    3.111210   -1.940837
     33          6           0       -3.859441   -0.093591   -1.486237
     34          6           0       -2.694439   -1.545673    3.062685
     35          6           0       -3.716366   -1.475660   -1.145380
     36          6           0        9.175701   -0.767409   -1.392929
     37          6           0       -1.218537    6.411993    0.299796
     38          6           0       -4.595039   -2.609609   -1.627013
     39          6           0       -3.958716   -3.709996   -1.073252
     40          6           0       -2.825515   -3.181921   -0.372900
     41          6           0       -5.912818   -2.423893   -2.296799
     42          6           0       -4.362807   -5.180640   -1.102162
     43          6           0       -6.662870   -3.539484   -2.756524
     44          1           0        4.441641   -2.234610    0.185961
     45          1           0        4.853927    0.372944    1.427607
     46          1           0        4.771465   -1.083381    2.139779
     47          1           0        2.727075    1.439428    0.037001
     48          1           0        3.411508   -0.668345   -1.670617
     49          1           0       -0.483033    0.308795    3.607568
     50          1           0       -1.466394    0.391990    2.045851
     51          1           0        0.765403    2.657891    0.040553
     52          1           0        3.078609   -2.089522    3.029034
     53          1           0        1.824827   -1.601741    4.324864
     54          1           0        1.449967   -2.639069    3.069612
     55          1           0        6.546543   -3.034843    1.214647
     56          1           0        7.609124   -1.420673    1.706352
     57          1           0        7.880382   -2.757521    0.330778
     58          1           0       -1.110929   -2.232201    1.810480
     59          1           0       -0.787003   -2.066659    3.544223
     60          1           0       -1.442492   -0.190693   -0.257829
     61          1           0       -1.838579    4.978689   -1.820983
     62          1           0       -0.374429    4.601020   -1.156635
     63          1           0        7.994251   -0.701150   -3.036318
     64          1           0       -1.159060    4.362110    1.133869
     65          1           0       -2.841603    5.040294    0.606852
     66          1           0       -3.947646    4.241263   -2.203130
     67          1           0       -4.890527    3.279165   -1.101870
     68          1           0       -4.785115    2.480823   -2.730469
     69          1           0       -4.652480    0.105321   -2.301700
     70          1           0        9.098395   -0.711081   -0.243784
     71          1           0       10.036550   -0.796142   -2.017658
     72          1           0       -4.099342   -2.666720    3.752108
     73          1           0       -6.321829   -1.326728   -2.161634
     74          1           0       -5.357727   -5.304709   -0.651888
     75          1           0       -4.752403   -5.539666   -2.116150
     76          1           0       -3.848292   -6.047853   -0.657111
     77          1           0       -1.142766    8.081401    1.469245
     78          1           0       -7.766014   -3.349298   -3.194728
     79          1           0       -6.393253   -4.550825   -2.570700
 ---------------------------------------------------------------------

 SCF Done:  E(RB3LYP) =  -1947.83666761     A.U. after   19 cycles

 Excitation energies and oscillator strengths:

 Excited State   1:      Singlet-A      1.8734 eV  661.80 nm  f=0.4373  <S**2>=0.000
     155 ->156         0.70139
     155 <-156        -0.13833
 This state for optimization and/or second-order correction.
 Total Energy, E(TD-HF/TD-DFT) =  -1947.76782035
 Copying the excited state density for this state as the 1-particle RhoCI density.

 The electronic state is 1-A.
 Alpha  occ. eigenvalues --  -19.17160 -19.16558 -19.14285 -19.12325 -19.10749
 Alpha  occ. eigenvalues --  -19.09110 -14.37493 -14.36023 -14.35024 -14.29150
 Alpha  occ. eigenvalues --  -10.33764 -10.29992 -10.29777 -10.25664 -10.25453
 Alpha  occ. eigenvalues --  -10.24922 -10.24187 -10.23467 -10.23293 -10.23035
 Alpha  occ. eigenvalues --  -10.22775 -10.22721 -10.22408 -10.22221 -10.21657
 Alpha  occ. eigenvalues --  -10.21578 -10.21442 -10.21407 -10.21106 -10.20871
 Alpha  occ. eigenvalues --  -10.20761 -10.20754 -10.20676 -10.20307 -10.20171
 Alpha  occ. eigenvalues --  -10.19949 -10.19682 -10.19367 -10.19339 -10.19072
 Alpha  occ. eigenvalues --  -10.18960 -10.18347 -10.18127  -1.07941  -1.07891
 Alpha  occ. eigenvalues --   -1.04034  -1.00205  -0.99869  -0.99138  -0.97677
 Alpha  occ. eigenvalues --   -0.96160  -0.92238  -0.90915  -0.83577  -0.82331
 Alpha  occ. eigenvalues --   -0.82282  -0.81634  -0.80156  -0.79751  -0.78361
 Alpha  occ. eigenvalues --   -0.77172  -0.76093  -0.75544  -0.74315  -0.72929
 Alpha  occ. eigenvalues --   -0.71626  -0.70927  -0.69738  -0.69254  -0.68092
 Alpha  occ. eigenvalues --   -0.67014  -0.66588  -0.64318  -0.61382  -0.60921
 Alpha  occ. eigenvalues --   -0.60432  -0.59920  -0.58788  -0.57730  -0.57110
 Alpha  occ. eigenvalues --   -0.56225  -0.55176  -0.54584  -0.53512  -0.53187
 Alpha  occ. eigenvalues --   -0.52518  -0.52363  -0.51625  -0.50969  -0.49988
 Alpha  occ. eigenvalues --   -0.49289  -0.48659  -0.47980  -0.47783  -0.47126
 Alpha  occ. eigenvalues --   -0.46817  -0.46737  -0.46308  -0.46166  -0.45395
 Alpha  occ. eigenvalues --   -0.45179  -0.44571  -0.44414  -0.43913  -0.43708
 Alpha  occ. eigenvalues --   -0.43259  -0.43086  -0.42978  -0.42664  -0.42592
 Alpha  occ. eigenvalues --   -0.42284  -0.41785  -0.41460  -0.41029  -0.40693
 Alpha  occ. eigenvalues --   -0.40273  -0.39965  -0.39808  -0.39658  -0.39362
 Alpha  occ. eigenvalues --   -0.39269  -0.39077  -0.38904  -0.38774  -0.38365
 Alpha  occ. eigenvalues --   -0.38285  -0.37619  -0.37552  -0.37224  -0.36895
 Alpha  occ. eigenvalues --   -0.36113  -0.35595  -0.34965  -0.34891  -0.33463
 Alpha  occ. eigenvalues --   -0.33330  -0.32754  -0.31940  -0.31838  -0.31601
 Alpha  occ. eigenvalues --   -0.30833  -0.30517  -0.29313  -0.28155  -0.27765
 Alpha  occ. eigenvalues --   -0.27387  -0.26237  -0.26199  -0.25962  -0.25069
 Alpha  occ. eigenvalues --   -0.24531  -0.23699  -0.22945  -0.22383  -0.18368
 Alpha virt. eigenvalues --   -0.11323  -0.07168  -0.06488  -0.02563  -0.02157
 Alpha virt. eigenvalues --    0.00173   0.01148   0.02734   0.02921   0.03056
 Alpha virt. eigenvalues --    0.03329   0.04336   0.05294   0.05496   0.05869

 Mulliken charges:
               1
     1  O   -0.178654
     2  O   -0.203657
     3  O   -0.217661
     4  O   -0.236028
     5  O   -0.225688
     6  O   -0.303187
     7  N    0.054213
     8  N   -0.303557
     9  N   -0.131380
    10  N   -0.207313
    11  C    0.167300
    12  C    0.239856
    13  C   -0.106457
    14  C   -0.137647
    15  C   -0.001297
    16  C    0.057144
    17  C   -0.173172
    18  C   -0.020731
    19  C   -0.019688
    20  C   -0.017327
    21  C    0.068431
    22  C    0.171489
    23  C    0.037285
    24  C    0.126623
    25  C    0.020503
    26  C   -0.108706
    27  C   -0.020089
    28  C    0.123651
    29  C   -0.148496
    30  C   -0.008343
    31  C    0.083268
    32  C    0.078430
    33  C   -0.133256
    34  C    0.112745
    35  C    0.048851
    36  C   -0.000331
    37  C    0.170446
    38  C    0.002780
    39  C   -0.100665
    40  C    0.146663
    41  C   -0.037454
    42  C    0.072516
    43  C   -0.048893
    44  H    0.005127
    45  H   -0.055877
    46  H   -0.006523
    47  H    0.021179
    48  H    0.143116
    49  H    0.016181
    50  H    0.045008
    51  H   -0.117008
    52  H   -0.014336
    53  H    0.028262
    54  H    0.015890
    55  H    0.021154
    56  H    0.077782
    57  H    0.038906
    58  H    0.084261
    59  H    0.003440
    60  H    0.152939
    61  H    0.031049
    62  H    0.037330
    63  H   -0.040248
    64  H    0.055172
    65  H    0.053833
    66  H    0.026721
    67  H    0.028507
    68  H    0.055287
    69  H   -0.001161
    70  H    0.037595
    71  H    0.022917
    72  H    0.191470
    73  H    0.044433
    74  H    0.004970
    75  H    0.020861
    76  H    0.035931
    77  H    0.177029
    78  H    0.051997
    79  H    0.014290
 Sum of Mulliken charges =  -0.00000

 Dipole moment (field-independent basis, Debye):
    X=              0.6895    Y=              1.5724    Z=              2.5727  Tot=              3.0930
 Quadrupole moment (field-independent basis, Debye-Ang):
   XX=           -206.8951   YY=           -244.8440   ZZ=           -261.9601
   XY=             -8.4508   XZ=             26.7872   YZ=              4.0177

 Normal termination of Gaussian 16 at Sun Sep 29 00:08:54 2019.
