 Gaussian 16, Revision A.03,
 Gaussian 16:  ES64L-G16RevA.03 25-Dec-2016

 --------------------------
 # td=(NStates=1) B3LYP/SVP
 --------------------------

 --
 TD
 --
 Symbolic Z-matrix:
 Charge =  0 Multiplicity = 1

                         Standard orientation:
 ---------------------------------------------------------------------
 Center     Atomic      Atomic             Coordinates (Angstroms)
 Number     Number       Type             X           Y           Z
 ---------------------------------------------------------------------
      1          8           0       -3.257601   -1.539601   -2.803305
      2          8           0        3.252969    3.084929    2.950372
      3          8           0        3.902715    1.400471    4.166862
      4          8           0        7.656098   -1.750739   -0.655168
      5          8           0        6.613401   -3.088236   -1.941236
      6          8           0       -2.807056    1.737821    1.293368
      7          7           0       -0.359883   -2.345811    0.994464
      8          7           0       -2.677046   -1.253020   -0.541361
      9          7           0        1.146363    0.125461   -0.767315
     10          7           0       -0.926565    1.508203   -0.238365
     11          6           0       -3.451145   -1.351972    0.674610
     12          6           0       -2.729101   -2.315536    1.812371
     13          6           0       -1.353276   -1.851732    1.915450
     14          6           0       -0.584470   -1.080601    2.891764
     15          6           0        0.752516   -1.081204    2.486340
     16          6           0        0.827126   -1.779073    1.246209
     17          6           0       -4.772606   -1.868734    0.272648
     18          6           0        1.922419   -0.431770    3.210212
     19          6           0       -4.869729   -1.956391   -1.103295
     20          6           0        1.922358   -1.904198    0.289935
     21          6           0        2.061579   -0.944309   -0.687285
     22          6           0       -3.573563   -1.502269   -1.650670
     23          6           0        2.975275   -0.815631   -1.840957
     24          6           0       -1.259878   -0.421392    4.032560
     25          6           0       -5.872913   -2.070320    1.261340
     26          6           0        2.524791    0.332841   -2.578335
     27          6           0        1.962186    1.063555    2.773713
     28          6           0        1.266792    0.864116   -1.900243
     29          6           0        4.086788   -1.688164   -1.991478
     30          6           0       -5.880546   -2.401177   -1.987568
     31          6           0        5.334161   -1.251048   -1.113391
     32          6           0        3.122777    0.968084   -3.738003
     33          6           0        0.495939    1.976516   -2.082161
     34          6           0        3.073251    1.825343    3.374000
     35          6           0       -0.547754    2.320792   -1.266090
     36          6           0       -6.916813   -3.242257   -1.754338
     37          6           0        6.523212   -2.081101   -1.228690
     38          6           0       -1.222579    3.572112   -1.243303
     39          6           0       -2.062861    3.591062   -0.261806
     40          6           0       -1.992301    2.135243    0.366069
     41          6           0       -0.981401    4.713325   -2.217421
     42          6           0       -3.253289    4.413996    0.340302
     43          6           0       -1.659050    5.855851   -2.201763
     44          1           0       -3.505891   -0.337844    1.077218
     45          1           0       -2.658235   -3.289862    1.388774
     46          1           0       -3.420215   -2.291801    2.829378
     47          1           0       -0.747693   -2.790244    0.111251
     48          1           0       -1.924013   -0.589932   -0.397465
     49          1           0        1.533573   -0.433762    4.298837
     50          1           0        2.958293   -0.961099    3.131847
     51          1           0        2.665705   -2.684162    0.355743
     52          1           0       -2.040097   -1.097391    4.383006
     53          1           0       -0.583072   -0.132052    4.977264
     54          1           0       -1.860577    0.474710    3.555413
     55          1           0       -6.272523   -1.012993    1.869459
     56          1           0       -5.391008   -2.888174    2.036252
     57          1           0       -6.827243   -2.493172    0.533578
     58          1           0        2.112499    1.212700    1.711689
     59          1           0        0.958753    1.576919    3.083661
     60          1           0        0.334700    0.302288   -0.205343
     61          1           0        4.346035   -1.797307   -3.111415
     62          1           0        3.833352   -2.717941   -1.737137
     63          1           0       -5.778124   -1.972780   -2.984079
     64          1           0        5.056102   -1.274570   -0.107002
     65          1           0        5.629253   -0.330756   -1.403658
     66          1           0        3.963014    0.436951   -4.158761
     67          1           0        3.515631    2.106620   -3.745703
     68          1           0        2.362871    0.822704   -4.519223
     69          1           0        0.805861    2.742158   -3.159113
     70          1           0       -7.096700   -3.830306   -0.735750
     71          1           0       -7.655500   -3.444592   -2.413832
     72          1           0        3.921218    3.527883    3.494059
     73          1           0       -0.407892    4.514404   -3.012906
     74          1           0       -3.904559    4.828425   -0.605720
     75          1           0       -3.852962    3.588780    0.983396
     76          1           0       -3.044798    5.371002    0.938749
     77          1           0        8.364895   -2.389436   -1.023712
     78          1           0       -1.489567    6.547049   -2.936034
     79          1           0       -2.272759    6.142856   -1.326176
 ---------------------------------------------------------------------

 SCF Done:  E(RB3LYP) =  -1947.85407019     A.U. after   16 cycles

 Excitation energies and oscillator strengths:

 Excited State   1:      Singlet-A      0.9037 eV 1372.03 nm  f=0.0000  <S**2>=0.000
     155 ->156         0.70459
 This state for optimization and/or second-order correction.
 Total Energy, E(TD-HF/TD-DFT) =  -1947.82086153
 Copying the excited state density for this state as the 1-particle RhoCI density.

 The electronic state is 1-A.
 Alpha  occ. eigenvalues --  -19.19237 -19.17052 -19.12596 -19.11956 -19.10963
 Alpha  occ. eigenvalues --  -19.08879 -14.37580 -14.37389 -14.32402 -14.31559
 Alpha  occ. eigenvalues --  -10.32627 -10.30894 -10.28850 -10.27495 -10.27081
 Alpha  occ. eigenvalues --  -10.26112 -10.25411 -10.24482 -10.23777 -10.23067
 Alpha  occ. eigenvalues --  -10.22774 -10.22741 -10.22638 -10.22280 -10.22192
 Alpha  occ. eigenvalues --  -10.21731 -10.21401 -10.21226 -10.21069 -10.20924
 Alpha  occ. eigenvalues --  -10.20698 -10.20625 -10.20505 -10.20446 -10.20409
 Alpha  occ. eigenvalues --  -10.20084 -10.19213 -10.19123 -10.19042 -10.18655
 Alpha  occ. eigenvalues --  -10.18413 -10.17788 -10.17697  -1.11579  -1.09180
 Alpha  occ. eigenvalues --   -1.01866  -1.00321  -0.99463  -0.98797  -0.98323
 Alpha  occ. eigenvalues --   -0.96218  -0.94188  -0.91632  -0.85309  -0.82817
 Alpha  occ. eigenvalues --   -0.81778  -0.80710  -0.80521  -0.80333  -0.78650
 Alpha  occ. eigenvalues --   -0.76824  -0.76140  -0.75645  -0.75205  -0.74098
 Alpha  occ. eigenvalues --   -0.70961  -0.70405  -0.70208  -0.69066  -0.67275
 Alpha  occ. eigenvalues --   -0.66543  -0.65149  -0.62786  -0.61731  -0.60700
 Alpha  occ. eigenvalues --   -0.60490  -0.59532  -0.59216  -0.58067  -0.57250
 Alpha  occ. eigenvalues --   -0.55706  -0.54990  -0.54593  -0.53312  -0.52889
 Alpha  occ. eigenvalues --   -0.52572  -0.52360  -0.51668  -0.51300  -0.50290
 Alpha  occ. eigenvalues --   -0.48976  -0.48564  -0.48388  -0.47927  -0.47870
 Alpha  occ. eigenvalues --   -0.47478  -0.47091  -0.46652  -0.46382  -0.45883
 Alpha  occ. eigenvalues --   -0.45380  -0.44985  -0.44564  -0.44242  -0.43895
 Alpha  occ. eigenvalues --   -0.43642  -0.43037  -0.42991  -0.42640  -0.42472
 Alpha  occ. eigenvalues --   -0.41943  -0.41779  -0.41507  -0.41285  -0.40471
 Alpha  occ. eigenvalues --   -0.40295  -0.40049  -0.39457  -0.39249  -0.38921
 Alpha  occ. eigenvalues --   -0.38839  -0.38738  -0.38626  -0.38255  -0.38029
 Alpha  occ. eigenvalues --   -0.37768  -0.37577  -0.37282  -0.37192  -0.36765
 Alpha  occ. eigenvalues --   -0.36568  -0.36427  -0.35920  -0.35260  -0.34757
 Alpha  occ. eigenvalues --   -0.33984  -0.33698  -0.32229  -0.31990  -0.31950
 Alpha  occ. eigenvalues --   -0.30989  -0.30375  -0.29723  -0.29219  -0.27770
 Alpha  occ. eigenvalues --   -0.27088  -0.26606  -0.25863  -0.24806  -0.24561
 Alpha  occ. eigenvalues --   -0.24343  -0.23318  -0.22946  -0.22288  -0.18797
 Alpha virt. eigenvalues --   -0.12902  -0.07393  -0.05075  -0.01734  -0.00612
 Alpha virt. eigenvalues --    0.00772   0.01047   0.01488   0.01726   0.02326
 Alpha virt. eigenvalues --    0.03119   0.03938   0.04101   0.04447   0.05018

 Mulliken charges:
               1
     1  O   -0.199334
     2  O   -0.181693
     3  O   -0.252594
     4  O   -0.177046
     5  O   -0.280730
     6  O   -0.286915
     7  N   -0.091850
     8  N   -0.264353
     9  N   -0.082420
    10  N   -0.316319
    11  C    0.034163
    12  C    0.170445
    13  C   -0.120083
    14  C   -0.089400
    15  C   -0.107605
    16  C   -0.001832
    17  C   -0.124715
    18  C    0.091513
    19  C   -0.025251
    20  C   -0.099148
    21  C    0.115692
    22  C    0.161582
    23  C   -0.040086
    24  C    0.028988
    25  C   -0.078526
    26  C   -0.105843
    27  C   -0.009672
    28  C    0.108190
    29  C    0.052340
    30  C   -0.008565
    31  C    0.137804
    32  C    0.047570
    33  C   -0.183062
    34  C    0.106077
    35  C    0.145238
    36  C   -0.038549
    37  C    0.088507
    38  C    0.038341
    39  C   -0.183227
    40  C    0.210204
    41  C    0.049913
    42  C   -0.036625
    43  C    0.034964
    44  H    0.048358
    45  H   -0.029833
    46  H    0.042112
    47  H    0.140267
    48  H    0.139500
    49  H    0.017267
    50  H    0.032912
    51  H    0.004092
    52  H    0.001559
    53  H    0.029289
    54  H    0.060215
    55  H    0.073127
    56  H    0.058460
    57  H    0.056740
    58  H    0.028883
    59  H    0.068113
    60  H    0.173899
    61  H    0.034559
    62  H    0.022227
    63  H    0.006577
    64  H    0.023920
    65  H    0.006094
    66  H    0.001992
    67  H    0.065509
    68  H    0.038351
    69  H    0.062316
    70  H    0.039151
    71  H   -0.005647
    72  H    0.180984
    73  H   -0.075575
    74  H    0.045710
    75  H    0.084373
    76  H    0.053537
    77  H    0.217308
    78  H   -0.002916
    79  H    0.020479
 Sum of Mulliken charges =  -0.00000

 Dipole moment (field-independent basis, Debye):
    X=              3.3642    Y=              2.7408    Z=             -1.7464  Tot=              4.6776
 Quadrupole moment (field-independent basis, Debye-Ang):
   XX=           -241.3954   YY=           -241.4005   ZZ=           -263.2242
   XY=              6.5346   XZ=            -23.0344   YZ=            -14.4302

 Normal termination of Gaussian 16 at Sat Jul 27 11:13:29 2019.
