 Gaussian 16, Revision A.03,
 Gaussian 16:  ES64L-G16RevA.03 25-Dec-2016

 --------------------------
 # td=(NStates=1) B3LYP/SVP
 --------------------------

 --
 TD
 --
 Symbolic Z-matrix:
 Charge =  0 Multiplicity = 1

                         Standard orientation:
 ---------------------------------------------------------------------
 Center     Atomic      Atomic             Coordinates (Angstroms)
 Number     Number       Type             X           Y           Z
 ---------------------------------------------------------------------
      1          8           0       -3.294131   -1.021765   -3.065462
      2          8           0        3.109436    2.528029    3.722746
      3          8           0        3.790091    0.479581    4.433277
      4          8           0        7.787960   -1.311409   -1.123214
      5          8           0        6.621880   -2.879608   -2.376946
      6          8           0       -2.611693    1.638847    1.580301
      7          7           0       -0.424683   -2.483325    0.716640
      8          7           0       -2.754786   -1.064450   -0.865357
      9          7           0        1.196392    0.215752   -0.702041
     10          7           0       -1.059317    1.559874   -0.176105
     11          6           0       -3.449900   -1.382409    0.413595
     12          6           0       -2.809497   -2.376262    1.370132
     13          6           0       -1.337286   -2.264409    1.646244
     14          6           0       -0.682906   -1.571083    2.778788
     15          6           0        0.698182   -1.527544    2.396100
     16          6           0        0.818821   -2.025192    1.154233
     17          6           0       -4.768970   -1.832774   -0.014841
     18          6           0        1.827496   -0.799212    3.071062
     19          6           0       -4.963496   -1.913107   -1.412322
     20          6           0        1.940705   -1.936199    0.112670
     21          6           0        2.023999   -0.796860   -0.677348
     22          6           0       -3.642021   -1.303330   -1.919369
     23          6           0        3.013173   -0.512210   -1.885805
     24          6           0       -1.441328   -1.087042    3.842510
     25          6           0       -5.841660   -2.090476    0.921997
     26          6           0        2.697221    0.789279   -2.232187
     27          6           0        1.894394    0.720231    2.928172
     28          6           0        1.386173    1.122215   -1.661952
     29          6           0        4.237198   -1.421106   -2.065430
     30          6           0       -5.959887   -2.245473   -2.226183
     31          6           0        5.587433   -0.956902   -1.426536
     32          6           0        3.341116    1.428808   -3.366513
     33          6           0        0.622478    2.260389   -1.782298
     34          6           0        3.092142    1.155030    3.801519
     35          6           0       -0.567336    2.496610   -1.056098
     36          6           0       -7.040852   -2.945799   -2.001664
     37          6           0        6.630589   -1.840508   -1.687892
     38          6           0       -1.403466    3.689486   -0.962399
     39          6           0       -2.170236    3.479820    0.110825
     40          6           0       -1.975131    2.146308    0.673270
     41          6           0       -1.043075    4.898305   -1.645555
     42          6           0       -3.125082    4.405685    0.814423
     43          6           0       -1.770955    6.001872   -1.762374
     44          1           0       -3.611017   -0.342513    0.945663
     45          1           0       -3.028009   -3.389336    1.104675
     46          1           0       -3.153940   -2.398901    2.391222
     47          1           0       -0.681157   -2.625557   -0.379740
     48          1           0       -2.019970   -0.320917   -0.739436
     49          1           0        1.470642   -0.934411    4.032403
     50          1           0        2.746352   -1.308465    2.965458
     51          1           0        2.801089   -2.529816    0.184604
     52          1           0       -2.068178   -1.752520    4.372867
     53          1           0       -0.536409   -0.728616    4.592422
     54          1           0       -2.045043   -0.164633    3.682763
     55          1           0       -5.865495   -1.652619    1.912893
     56          1           0       -5.635829   -3.229501    1.158096
     57          1           0       -6.887905   -1.841417    0.394977
     58          1           0        2.217196    1.048188    1.930909
     59          1           0        0.978158    1.185588    3.064710
     60          1           0        0.411205    0.417671   -0.137523
     61          1           0        4.427032   -1.508569   -3.116671
     62          1           0        4.141862   -2.596427   -1.589383
     63          1           0       -5.914680   -1.964209   -3.347103
     64          1           0        5.390141   -0.777044   -0.359127
     65          1           0        5.681272    0.019868   -1.681990
     66          1           0        3.992865    0.637119   -3.982408
     67          1           0        3.882478    2.153460   -3.002583
     68          1           0        2.655387    1.584049   -4.339735
     69          1           0        1.026131    3.121302   -2.441338
     70          1           0       -7.185309   -3.330604   -1.055622
     71          1           0       -7.901529   -3.074280   -2.610222
     72          1           0        3.675765    2.677560    4.479705
     73          1           0       -0.215792    4.953489   -2.298979
     74          1           0       -4.132717    4.465299    0.077401
     75          1           0       -3.306538    4.065040    1.896820
     76          1           0       -2.617200    5.455914    1.042507
     77          1           0        8.464848   -2.081547   -1.250281
     78          1           0       -1.268714    6.894352   -2.338076
     79          1           0       -2.726801    6.211817   -1.230099
 ---------------------------------------------------------------------

 SCF Done:  E(RB3LYP) =  -1947.80910052     A.U. after   21 cycles

 Excitation energies and oscillator strengths:

 Excited State   1:      Singlet-A      0.9343 eV 1327.06 nm  f=0.0075  <S**2>=0.000
     155 ->156         0.70536
 This state for optimization and/or second-order correction.
 Total Energy, E(TD-HF/TD-DFT) =  -1947.77476638
 Copying the excited state density for this state as the 1-particle RhoCI density.

 The electronic state is 1-A.
 Alpha  occ. eigenvalues --  -19.19567 -19.17895 -19.14803 -19.14357 -19.12390
 Alpha  occ. eigenvalues --  -19.07348 -14.37971 -14.36852 -14.32555 -14.30246
 Alpha  occ. eigenvalues --  -10.33749 -10.31978 -10.27742 -10.27056 -10.26544
 Alpha  occ. eigenvalues --  -10.25772 -10.25666 -10.24129 -10.23602 -10.22899
 Alpha  occ. eigenvalues --  -10.22460 -10.22230 -10.21956 -10.21738 -10.21725
 Alpha  occ. eigenvalues --  -10.21634 -10.20848 -10.20784 -10.20740 -10.20497
 Alpha  occ. eigenvalues --  -10.20388 -10.20358 -10.20181 -10.19938 -10.19298
 Alpha  occ. eigenvalues --  -10.19160 -10.18575 -10.17979 -10.17720 -10.17365
 Alpha  occ. eigenvalues --  -10.16925 -10.16655 -10.16546  -1.11410  -1.08989
 Alpha  occ. eigenvalues --   -1.03375  -1.03316  -1.02582  -1.00498  -0.99263
 Alpha  occ. eigenvalues --   -0.96476  -0.94071  -0.90529  -0.84560  -0.83149
 Alpha  occ. eigenvalues --   -0.81930  -0.81734  -0.81108  -0.80838  -0.78762
 Alpha  occ. eigenvalues --   -0.77363  -0.76704  -0.75996  -0.75004  -0.73442
 Alpha  occ. eigenvalues --   -0.71735  -0.70746  -0.70194  -0.69799  -0.67500
 Alpha  occ. eigenvalues --   -0.66312  -0.65851  -0.63607  -0.61701  -0.60678
 Alpha  occ. eigenvalues --   -0.60503  -0.59488  -0.58649  -0.58180  -0.56992
 Alpha  occ. eigenvalues --   -0.56122  -0.55167  -0.54405  -0.53628  -0.53219
 Alpha  occ. eigenvalues --   -0.53032  -0.51976  -0.51493  -0.50420  -0.50006
 Alpha  occ. eigenvalues --   -0.49888  -0.49561  -0.49268  -0.49137  -0.48708
 Alpha  occ. eigenvalues --   -0.48187  -0.48064  -0.47527  -0.46837  -0.46712
 Alpha  occ. eigenvalues --   -0.45979  -0.45874  -0.45015  -0.44948  -0.44394
 Alpha  occ. eigenvalues --   -0.43998  -0.43490  -0.43316  -0.43232  -0.42691
 Alpha  occ. eigenvalues --   -0.42502  -0.42042  -0.41701  -0.41498  -0.41203
 Alpha  occ. eigenvalues --   -0.40834  -0.40357  -0.40231  -0.39860  -0.39219
 Alpha  occ. eigenvalues --   -0.39047  -0.38864  -0.38640  -0.38202  -0.37855
 Alpha  occ. eigenvalues --   -0.37688  -0.37504  -0.37002  -0.36820  -0.36519
 Alpha  occ. eigenvalues --   -0.36074  -0.35750  -0.35223  -0.34660  -0.34596
 Alpha  occ. eigenvalues --   -0.34417  -0.33370  -0.33233  -0.32393  -0.32280
 Alpha  occ. eigenvalues --   -0.31416  -0.30922  -0.30248  -0.29611  -0.29247
 Alpha  occ. eigenvalues --   -0.28812  -0.27988  -0.25656  -0.24064  -0.23818
 Alpha  occ. eigenvalues --   -0.23192  -0.22936  -0.22415  -0.21449  -0.18679
 Alpha virt. eigenvalues --   -0.12995  -0.07542  -0.04655  -0.03265  -0.01660
 Alpha virt. eigenvalues --    0.00978   0.01453   0.01996   0.02392   0.03285
 Alpha virt. eigenvalues --    0.03531   0.03999   0.04530   0.04929   0.05142

 Mulliken charges:
               1
     1  O   -0.245801
     2  O   -0.188371
     3  O   -0.158608
     4  O   -0.241190
     5  O   -0.247289
     6  O   -0.198116
     7  N   -0.089407
     8  N   -0.247965
     9  N    0.065581
    10  N   -0.359743
    11  C    0.132350
    12  C    0.248143
    13  C   -0.164140
    14  C   -0.107187
    15  C   -0.104770
    16  C   -0.026744
    17  C   -0.207854
    18  C    0.178533
    19  C    0.070141
    20  C   -0.045733
    21  C    0.041238
    22  C    0.140472
    23  C   -0.043931
    24  C    0.037731
    25  C    0.025868
    26  C   -0.142497
    27  C    0.024852
    28  C    0.091263
    29  C   -0.004390
    30  C   -0.101678
    31  C    0.071677
    32  C    0.078789
    33  C   -0.089212
    34  C    0.118649
    35  C    0.084369
    36  C   -0.010788
    37  C    0.190465
    38  C    0.138102
    39  C   -0.203675
    40  C    0.188030
    41  C   -0.028602
    42  C   -0.009927
    43  C   -0.069452
    44  H    0.066317
    45  H   -0.032441
    46  H   -0.028285
    47  H    0.172419
    48  H    0.155705
    49  H   -0.027897
    50  H   -0.014574
    51  H   -0.008411
    52  H    0.009367
    53  H   -0.006220
    54  H    0.035306
    55  H    0.016457
    56  H    0.045753
    57  H    0.062417
    58  H    0.015383
    59  H    0.020301
    60  H    0.125129
    61  H    0.023618
    62  H    0.067076
    63  H    0.018356
    64  H    0.040695
    65  H    0.000058
    66  H    0.028131
    67  H   -0.001051
    68  H    0.060313
    69  H    0.016038
    70  H   -0.025947
    71  H    0.007881
    72  H    0.150212
    73  H   -0.022501
    74  H    0.075077
    75  H    0.045539
    76  H    0.042621
    77  H    0.209047
    78  H    0.037909
    79  H    0.031022
 Sum of Mulliken charges =  -0.00000

 Dipole moment (field-independent basis, Debye):
    X=              3.8117    Y=              3.6935    Z=              0.7188  Tot=              5.3561
 Quadrupole moment (field-independent basis, Debye-Ang):
   XX=           -233.0099   YY=           -241.5577   ZZ=           -266.4224
   XY=              8.5553   XZ=            -19.0503   YZ=             -9.2989

 Normal termination of Gaussian 16 at Tue Jul 30 01:53:35 2019.
