 Gaussian 16, Revision A.03,
 Gaussian 16:  ES64L-G16RevA.03 25-Dec-2016

 --------------------------
 # td=(NStates=1) B3LYP/SVP
 --------------------------

 --
 TD
 --
 Symbolic Z-matrix:
 Charge =  0 Multiplicity = 1

                         Standard orientation:
 ---------------------------------------------------------------------
 Center     Atomic      Atomic             Coordinates (Angstroms)
 Number     Number       Type             X           Y           Z
 ---------------------------------------------------------------------
      1          8           0        5.278896   -0.197296   -3.333623
      2          8           0       -3.008283   -2.873148    3.555833
      3          8           0       -3.411237   -0.688698    2.651473
      4          8           0       -1.153773    7.179834    1.587508
      5          8           0       -0.346849    7.101477   -0.504409
      6          8           0       -1.986974   -3.955456    0.007236
      7          7           0        2.332789    0.841024    0.648882
      8          7           0        4.303409   -0.796236   -1.278733
      9          7           0       -1.873593    0.737189   -0.269763
     10          7           0       -2.684884   -1.790452   -0.559729
     11          6           0        4.745129   -1.354995   -0.058957
     12          6           0        4.460638   -0.553510    1.308505
     13          6           0        2.972417   -0.120344    1.396683
     14          6           0        1.947163   -0.734148    2.125265
     15          6           0        0.739249   -0.133898    1.796844
     16          6           0        1.035250    0.917048    0.801675
     17          6           0        6.240285   -1.602482   -0.238083
     18          6           0       -0.553844   -0.245953    2.565094
     19          6           0        6.641942   -1.066223   -1.379237
     20          6           0        0.196225    1.937959    0.240180
     21          6           0       -1.115501    1.818516   -0.192149
     22          6           0        5.436883   -0.652688   -2.229008
     23          6           0       -1.788991    2.967526   -0.878141
     24          6           0        2.156632   -1.657155    3.170930
     25          6           0        7.062590   -2.183638    0.816606
     26          6           0       -3.037177    2.492333   -1.324549
     27          6           0       -1.151038   -1.705094    2.627809
     28          6           0       -3.049659    1.011114   -0.956261
     29          6           0       -1.181780    4.346647   -0.868753
     30          6           0        7.872988   -0.948389   -2.043076
     31          6           0       -1.422616    5.099676    0.488851
     32          6           0       -4.114911    3.220065   -1.976917
     33          6           0       -3.882445    0.128346   -1.520198
     34          6           0       -2.665297   -1.695854    2.942248
     35          6           0       -3.806436   -1.368133   -1.140856
     36          6           0        9.126009   -0.917268   -1.572358
     37          6           0       -0.872571    6.523478    0.403269
     38          6           0       -4.757671   -2.437134   -1.424035
     39          6           0       -4.232168   -3.627507   -1.043941
     40          6           0       -2.838258   -3.192311   -0.406813
     41          6           0       -6.135365   -2.295425   -2.078602
     42          6           0       -4.705143   -4.951242   -1.057597
     43          6           0       -6.992469   -3.196213   -2.705091
     44          1           0        4.212843   -2.281810    0.089705
     45          1           0        5.019130    0.443674    1.142604
     46          1           0        4.765763   -0.967505    2.275783
     47          1           0        2.690513    1.243774   -0.270366
     48          1           0        3.394983   -0.934849   -1.613588
     49          1           0       -0.258286    0.099393    3.507951
     50          1           0       -1.317292    0.534840    2.255257
     51          1           0        0.767215    2.822332    0.071624
     52          1           0        3.303374   -1.678368    3.210673
     53          1           0        1.618430   -1.353986    4.104050
     54          1           0        1.888930   -2.618436    2.592311
     55          1           0        6.568503   -2.954637    1.424993
     56          1           0        7.314065   -1.506349    1.576957
     57          1           0        7.965027   -2.660494    0.414326
     58          1           0       -0.746551   -2.243767    1.558747
     59          1           0       -0.622784   -2.182779    3.307228
     60          1           0       -1.707335   -0.308416    0.157773
     61          1           0       -1.561844    4.978237   -1.697227
     62          1           0       -0.030453    4.342198   -1.009380
     63          1           0        7.946127   -0.870352   -3.201088
     64          1           0       -0.787979    4.718969    1.381279
     65          1           0       -2.467308    5.046551    0.933452
     66          1           0       -3.978061    4.352102   -1.887462
     67          1           0       -5.096209    3.248256   -1.298790
     68          1           0       -4.492891    2.847170   -3.093007
     69          1           0       -4.827441    0.371960   -2.186533
     70          1           0        9.376080   -0.921198   -0.477234
     71          1           0        9.889492   -0.721493   -2.321522
     72          1           0       -4.084771   -3.289737    3.348217
     73          1           0       -6.555400   -1.213559   -2.281327
     74          1           0       -5.760603   -5.014302   -0.669702
     75          1           0       -4.590651   -5.488313   -2.030550
     76          1           0       -3.825098   -5.238439   -0.258331
     77          1           0       -0.882094    8.045852    1.544700
     78          1           0       -7.845769   -2.724353   -3.200999
     79          1           0       -6.780292   -4.335163   -2.433291
 ---------------------------------------------------------------------

 SCF Done:  E(RB3LYP) =  -1947.83612869     A.U. after   16 cycles

 Excitation energies and oscillator strengths:

 Excited State   1:      Singlet-A      1.8039 eV  687.31 nm  f=0.3600  <S**2>=0.000
     155 ->156         0.70822
     155 <-156        -0.12126
 This state for optimization and/or second-order correction.
 Total Energy, E(TD-HF/TD-DFT) =  -1947.76983609
 Copying the excited state density for this state as the 1-particle RhoCI density.

 The electronic state is 1-A.
 Alpha  occ. eigenvalues --  -19.19098 -19.17016 -19.13614 -19.12465 -19.12254
 Alpha  occ. eigenvalues --  -19.12023 -14.37959 -14.36416 -14.34427 -14.30202
 Alpha  occ. eigenvalues --  -10.32627 -10.32570 -10.29807 -10.27846 -10.24719
 Alpha  occ. eigenvalues --  -10.24579 -10.24234 -10.23500 -10.22726 -10.22430
 Alpha  occ. eigenvalues --  -10.22137 -10.21997 -10.21871 -10.21870 -10.21753
 Alpha  occ. eigenvalues --  -10.21565 -10.21220 -10.21163 -10.20989 -10.20780
 Alpha  occ. eigenvalues --  -10.20497 -10.20372 -10.20309 -10.20238 -10.20194
 Alpha  occ. eigenvalues --  -10.20160 -10.20005 -10.19707 -10.19659 -10.19608
 Alpha  occ. eigenvalues --  -10.18249 -10.17619 -10.17188  -1.09864  -1.04774
 Alpha  occ. eigenvalues --   -1.03709  -1.03003  -1.01445  -0.99023  -0.97551
 Alpha  occ. eigenvalues --   -0.96631  -0.93843  -0.92531  -0.83408  -0.81978
 Alpha  occ. eigenvalues --   -0.81524  -0.81019  -0.80365  -0.78726  -0.77591
 Alpha  occ. eigenvalues --   -0.76826  -0.75603  -0.75208  -0.74155  -0.72572
 Alpha  occ. eigenvalues --   -0.71457  -0.70679  -0.70481  -0.68622  -0.67336
 Alpha  occ. eigenvalues --   -0.65869  -0.65418  -0.63426  -0.61147  -0.59890
 Alpha  occ. eigenvalues --   -0.59570  -0.58899  -0.57969  -0.57555  -0.56022
 Alpha  occ. eigenvalues --   -0.55021  -0.54804  -0.54043  -0.53344  -0.52670
 Alpha  occ. eigenvalues --   -0.51901  -0.51023  -0.50754  -0.50033  -0.49569
 Alpha  occ. eigenvalues --   -0.48811  -0.48442  -0.48239  -0.47850  -0.47240
 Alpha  occ. eigenvalues --   -0.46579  -0.46287  -0.46156  -0.45869  -0.45221
 Alpha  occ. eigenvalues --   -0.44995  -0.44803  -0.44307  -0.43963  -0.43770
 Alpha  occ. eigenvalues --   -0.43578  -0.43331  -0.43107  -0.42770  -0.42711
 Alpha  occ. eigenvalues --   -0.42288  -0.41992  -0.41763  -0.41656  -0.41197
 Alpha  occ. eigenvalues --   -0.40832  -0.40627  -0.40267  -0.40075  -0.39899
 Alpha  occ. eigenvalues --   -0.39734  -0.39135  -0.38629  -0.38211  -0.37998
 Alpha  occ. eigenvalues --   -0.37350  -0.37241  -0.36903  -0.36719  -0.36534
 Alpha  occ. eigenvalues --   -0.35145  -0.34994  -0.34729  -0.34072  -0.33966
 Alpha  occ. eigenvalues --   -0.33713  -0.33178  -0.32829  -0.32644  -0.32394
 Alpha  occ. eigenvalues --   -0.30734  -0.30314  -0.29094  -0.28851  -0.28202
 Alpha  occ. eigenvalues --   -0.26992  -0.26986  -0.26192  -0.25281  -0.24801
 Alpha  occ. eigenvalues --   -0.24725  -0.23854  -0.23452  -0.22768  -0.17563
 Alpha virt. eigenvalues --   -0.10598  -0.06196  -0.05730  -0.03365  -0.01489
 Alpha virt. eigenvalues --   -0.00189   0.00136   0.00638   0.02450   0.03321
 Alpha virt. eigenvalues --    0.03592   0.04264   0.04548   0.05210   0.05287

 Mulliken charges:
               1
     1  O   -0.179492
     2  O   -0.293054
     3  O   -0.280970
     4  O   -0.182026
     5  O   -0.201193
     6  O   -0.195164
     7  N   -0.019721
     8  N   -0.227035
     9  N   -0.105677
    10  N   -0.279765
    11  C    0.132214
    12  C    0.163409
    13  C   -0.131987
    14  C   -0.165053
    15  C   -0.126721
    16  C   -0.012755
    17  C   -0.164112
    18  C    0.063013
    19  C   -0.002655
    20  C   -0.120158
    21  C    0.124710
    22  C    0.175950
    23  C   -0.077700
    24  C    0.106219
    25  C    0.120019
    26  C   -0.092854
    27  C   -0.012193
    28  C    0.174152
    29  C    0.075813
    30  C   -0.073813
    31  C   -0.053282
    32  C   -0.016026
    33  C   -0.120292
    34  C    0.236574
    35  C    0.042419
    36  C   -0.048734
    37  C    0.134108
    38  C    0.076969
    39  C   -0.206627
    40  C    0.158471
    41  C   -0.087435
    42  C   -0.015067
    43  C   -0.049888
    44  H   -0.005755
    45  H   -0.000173
    46  H    0.013526
    47  H    0.134645
    48  H    0.113914
    49  H   -0.012934
    50  H    0.030914
    51  H   -0.033456
    52  H   -0.014048
    53  H    0.045757
    54  H    0.043094
    55  H    0.003244
    56  H    0.020197
    57  H    0.034245
    58  H    0.108163
    59  H   -0.029262
    60  H    0.236412
    61  H    0.028066
    62  H    0.033267
    63  H    0.035441
    64  H    0.053809
    65  H    0.060503
    66  H    0.021033
    67  H    0.035439
    68  H    0.064765
    69  H    0.020130
    70  H    0.019522
    71  H    0.026015
    72  H    0.270979
    73  H    0.013331
    74  H    0.049354
    75  H    0.058764
    76  H    0.060493
    77  H    0.143175
    78  H    0.036726
    79  H    0.038111
 Sum of Mulliken charges =  -0.00000

 Dipole moment (field-independent basis, Debye):
    X=              0.2493    Y=             -0.1595    Z=              3.0984  Tot=              3.1125
 Quadrupole moment (field-independent basis, Debye-Ang):
   XX=           -215.9652   YY=           -246.9885   ZZ=           -263.0583
   XY=             -6.0999   XZ=             26.4884   YZ=              3.0295

 Normal termination of Gaussian 16 at Sun Sep 22 13:09:05 2019.
