 Gaussian 16, Revision A.03,
 Gaussian 16:  ES64L-G16RevA.03 25-Dec-2016

 --------------------------
 # td=(NStates=1) B3LYP/SVP
 --------------------------

 --
 TD
 --
 Symbolic Z-matrix:
 Charge =  0 Multiplicity = 1

                         Standard orientation:
 ---------------------------------------------------------------------
 Center     Atomic      Atomic             Coordinates (Angstroms)
 Number     Number       Type             X           Y           Z
 ---------------------------------------------------------------------
      1          8           0       -3.226404   -1.823235   -2.687470
      2          8           0        3.123908    3.659052    2.675646
      3          8           0        3.798667    2.131778    4.013595
      4          8           0        7.760667   -1.675556   -0.471361
      5          8           0        6.756944   -3.308078   -1.650707
      6          8           0       -2.726761    1.763162    1.220093
      7          7           0       -0.300544   -2.211537    1.315045
      8          7           0       -2.644856   -1.365163   -0.511023
      9          7           0        1.145940   -0.103523   -0.753869
     10          7           0       -1.025099    1.357830   -0.459394
     11          6           0       -3.351810   -1.303125    0.768180
     12          6           0       -2.701511   -2.104350    1.931270
     13          6           0       -1.211874   -1.668146    2.158480
     14          6           0       -0.630136   -0.710897    2.922352
     15          6           0        0.655941   -0.694379    2.636866
     16          6           0        0.993242   -1.598761    1.533750
     17          6           0       -4.699644   -1.872964    0.474363
     18          6           0        1.706378    0.142493    3.358397
     19          6           0       -4.767526   -2.193905   -0.803044
     20          6           0        2.160445   -1.686991    0.708094
     21          6           0        2.204300   -1.011520   -0.462458
     22          6           0       -3.435599   -1.766339   -1.512851
     23          6           0        3.032283   -0.926869   -1.704612
     24          6           0       -1.406941    0.074586    3.967247
     25          6           0       -5.771599   -1.780239    1.580306
     26          6           0        2.585691    0.094326   -2.437421
     27          6           0        1.798215    1.615414    2.846171
     28          6           0        1.360895    0.598822   -1.990214
     29          6           0        4.251287   -1.731373   -1.791604
     30          6           0       -5.845560   -2.835430   -1.586348
     31          6           0        5.560529   -1.293346   -1.172639
     32          6           0        3.186251    0.480682   -3.779752
     33          6           0        0.501410    1.686159   -2.338816
     34          6           0        2.967864    2.520215    3.279125
     35          6           0       -0.665132    2.099828   -1.545135
     36          6           0       -6.929468   -3.565931   -1.238101
     37          6           0        6.705354   -2.226691   -1.127518
     38          6           0       -1.452750    3.232943   -1.714917
     39          6           0       -2.400606    3.310370   -0.715365
     40          6           0       -2.110477    2.019703    0.138947
     41          6           0       -1.292916    4.290175   -2.803285
     42          6           0       -3.440739    4.227469   -0.452739
     43          6           0       -2.098702    5.312608   -3.039801
     44          1           0       -3.276177   -0.235172    1.080533
     45          1           0       -2.665762   -3.060268    1.818435
     46          1           0       -3.046355   -1.918270    2.972030
     47          1           0       -0.455244   -2.620667    0.405703
     48          1           0       -1.663119   -0.832933   -0.834919
     49          1           0        1.731378    0.091115    4.474565
     50          1           0        2.823074   -0.152159    3.018205
     51          1           0        3.034371   -2.405947    1.004646
     52          1           0       -2.039308   -0.651477    4.431449
     53          1           0       -0.713188    0.351684    4.765140
     54          1           0       -1.885495    0.799997    3.277863
     55          1           0       -5.705160   -0.638184    2.069811
     56          1           0       -5.796929   -2.754504    2.086638
     57          1           0       -6.726823   -1.819888    1.070061
     58          1           0        1.887315    1.332607    1.726215
     59          1           0        0.747705    2.205997    2.978603
     60          1           0        0.270356    0.005798   -0.172449
     61          1           0        4.404445   -1.981220   -2.983498
     62          1           0        4.269943   -2.758616   -1.144049
     63          1           0       -5.660346   -2.837490   -2.775686
     64          1           0        5.340605   -1.257624   -0.224832
     65          1           0        6.045088   -0.272855   -1.259969
     66          1           0        3.588726   -0.341009   -4.158216
     67          1           0        3.983728    1.333546   -3.578134
     68          1           0        2.595615    0.643423   -4.874110
     69          1           0        0.764538    2.327236   -3.185301
     70          1           0       -7.266276   -3.871061   -0.222763
     71          1           0       -7.729721   -3.844753   -2.004202
     72          1           0        4.014615    4.059413    2.981657
     73          1           0       -0.327245    4.268388   -3.474536
     74          1           0       -4.341800    4.315481   -1.065333
     75          1           0       -3.789398    4.005185    0.655610
     76          1           0       -3.038280    5.269714   -0.290573
     77          1           0        8.597886   -2.187771   -0.589079
     78          1           0       -1.777576    5.833310   -3.924562
     79          1           0       -3.062011    5.471512   -2.510200
 ---------------------------------------------------------------------

 SCF Done:  E(RB3LYP) =  -1947.80683585     A.U. after   17 cycles

 Excitation energies and oscillator strengths:

 Excited State   1:      Singlet-A      1.0199 eV 1215.67 nm  f=0.0082  <S**2>=0.000
     155 ->156         0.70280
 This state for optimization and/or second-order correction.
 Total Energy, E(TD-HF/TD-DFT) =  -1947.76935578
 Copying the excited state density for this state as the 1-particle RhoCI density.

 The electronic state is 1-A.
 Alpha  occ. eigenvalues --  -19.19030 -19.18123 -19.13604 -19.13441 -19.11011
 Alpha  occ. eigenvalues --  -19.08174 -14.37111 -14.37054 -14.34211 -14.31508
 Alpha  occ. eigenvalues --  -10.33159 -10.30835 -10.29472 -10.27325 -10.26336
 Alpha  occ. eigenvalues --  -10.25777 -10.25725 -10.24219 -10.23593 -10.23319
 Alpha  occ. eigenvalues --  -10.23021 -10.22330 -10.22322 -10.22314 -10.21815
 Alpha  occ. eigenvalues --  -10.21675 -10.21383 -10.21313 -10.21254 -10.20989
 Alpha  occ. eigenvalues --  -10.20440 -10.20419 -10.20343 -10.19933 -10.19805
 Alpha  occ. eigenvalues --  -10.19656 -10.19615 -10.18784 -10.18779 -10.18167
 Alpha  occ. eigenvalues --  -10.17746 -10.17378 -10.15923  -1.11309  -1.10302
 Alpha  occ. eigenvalues --   -1.01690  -1.01632  -1.01345  -1.00549  -0.98053
 Alpha  occ. eigenvalues --   -0.96432  -0.93724  -0.92443  -0.84812  -0.82966
 Alpha  occ. eigenvalues --   -0.81740  -0.80714  -0.80272  -0.79900  -0.78166
 Alpha  occ. eigenvalues --   -0.77071  -0.75863  -0.75536  -0.74012  -0.73235
 Alpha  occ. eigenvalues --   -0.71954  -0.70468  -0.70031  -0.68935  -0.67862
 Alpha  occ. eigenvalues --   -0.66713  -0.65734  -0.63803  -0.62136  -0.60454
 Alpha  occ. eigenvalues --   -0.59204  -0.58566  -0.58469  -0.57520  -0.56350
 Alpha  occ. eigenvalues --   -0.56169  -0.54724  -0.54575  -0.53524  -0.53260
 Alpha  occ. eigenvalues --   -0.52462  -0.51851  -0.50850  -0.50717  -0.49939
 Alpha  occ. eigenvalues --   -0.48958  -0.48633  -0.48496  -0.48132  -0.47806
 Alpha  occ. eigenvalues --   -0.47407  -0.47205  -0.46888  -0.46381  -0.46131
 Alpha  occ. eigenvalues --   -0.45573  -0.45129  -0.44935  -0.44367  -0.44193
 Alpha  occ. eigenvalues --   -0.43810  -0.43438  -0.43015  -0.42556  -0.42228
 Alpha  occ. eigenvalues --   -0.42046  -0.41858  -0.41577  -0.41110  -0.40983
 Alpha  occ. eigenvalues --   -0.40813  -0.40697  -0.40205  -0.39844  -0.39313
 Alpha  occ. eigenvalues --   -0.39148  -0.38912  -0.38771  -0.38268  -0.37806
 Alpha  occ. eigenvalues --   -0.37128  -0.36784  -0.36437  -0.36386  -0.36105
 Alpha  occ. eigenvalues --   -0.35315  -0.35103  -0.34917  -0.34743  -0.34217
 Alpha  occ. eigenvalues --   -0.34018  -0.33548  -0.32122  -0.31988  -0.31814
 Alpha  occ. eigenvalues --   -0.31343  -0.30098  -0.29802  -0.29714  -0.29145
 Alpha  occ. eigenvalues --   -0.27713  -0.26902  -0.26114  -0.24924  -0.24545
 Alpha  occ. eigenvalues --   -0.23965  -0.23883  -0.22669  -0.22443  -0.19627
 Alpha virt. eigenvalues --   -0.13458  -0.08114  -0.03318  -0.01308  -0.00519
 Alpha virt. eigenvalues --    0.00087   0.01791   0.02249   0.03027   0.03282
 Alpha virt. eigenvalues --    0.03704   0.04045   0.04132   0.04447   0.05031

 Mulliken charges:
               1
     1  O   -0.211075
     2  O   -0.167869
     3  O   -0.211262
     4  O   -0.214684
     5  O   -0.204183
     6  O   -0.254874
     7  N   -0.080643
     8  N   -0.267657
     9  N   -0.209091
    10  N   -0.320737
    11  C    0.097577
    12  C    0.325655
    13  C   -0.187424
    14  C   -0.127888
    15  C   -0.070516
    16  C   -0.030628
    17  C   -0.191723
    18  C    0.042273
    19  C   -0.046162
    20  C   -0.144697
    21  C    0.133330
    22  C    0.120475
    23  C    0.017370
    24  C    0.146469
    25  C    0.099883
    26  C   -0.107419
    27  C   -0.099401
    28  C    0.169430
    29  C   -0.016603
    30  C   -0.029485
    31  C    0.112872
    32  C    0.048453
    33  C   -0.063042
    34  C    0.108360
    35  C    0.097261
    36  C   -0.088037
    37  C    0.091600
    38  C    0.061930
    39  C   -0.172462
    40  C    0.230518
    41  C   -0.055763
    42  C    0.015929
    43  C   -0.004157
    44  H    0.049262
    45  H   -0.089650
    46  H   -0.004408
    47  H    0.114969
    48  H    0.183840
    49  H    0.025065
    50  H    0.004084
    51  H    0.036844
    52  H   -0.002946
    53  H   -0.001102
    54  H    0.065942
    55  H    0.070620
    56  H    0.030123
    57  H    0.004768
    58  H    0.050432
    59  H    0.054389
    60  H    0.202920
    61  H    0.054013
    62  H    0.048798
    63  H    0.041523
    64  H   -0.031495
    65  H    0.035500
    66  H   -0.021628
    67  H    0.056009
    68  H    0.055418
    69  H   -0.017015
    70  H    0.010172
    71  H    0.032502
    72  H    0.204195
    73  H    0.018316
    74  H    0.059797
    75  H    0.037296
    76  H    0.037271
    77  H    0.199945
    78  H    0.020331
    79  H    0.021995
 Sum of Mulliken charges =  -0.00000

 Dipole moment (field-independent basis, Debye):
    X=              3.8391    Y=              3.4093    Z=             -1.2396  Tot=              5.2820
 Quadrupole moment (field-independent basis, Debye-Ang):
   XX=           -230.1051   YY=           -245.4787   ZZ=           -263.1876
   XY=              1.2635   XZ=            -22.3409   YZ=            -19.0911

 Normal termination of Gaussian 16 at Sat Jul 27 22:10:33 2019.
