 Gaussian 16, Revision A.03,
 Gaussian 16:  ES64L-G16RevA.03 25-Dec-2016

 --------------------------
 # td=(NStates=1) B3LYP/SVP
 --------------------------

 --
 TD
 --
 Symbolic Z-matrix:
 Charge =  0 Multiplicity = 1

                         Standard orientation:
 ---------------------------------------------------------------------
 Center     Atomic      Atomic             Coordinates (Angstroms)
 Number     Number       Type             X           Y           Z
 ---------------------------------------------------------------------
      1          8           0       -3.263296   -0.080472   -3.099481
      2          8           0        3.183754    1.427450    4.174217
      3          8           0        3.635409   -0.733840    4.716882
      4          8           0        7.672919   -0.888568   -1.215794
      5          8           0        6.737819   -1.633995   -3.075701
      6          8           0       -2.575657    0.909400    1.942617
      7          7           0       -0.218370   -2.408383   -0.158779
      8          7           0       -2.678277   -0.872901   -0.975957
      9          7           0        1.259759    0.440229   -0.625522
     10          7           0       -1.154541    1.380568    0.296665
     11          6           0       -3.303399   -1.470565    0.069621
     12          6           0       -2.627112   -2.853100    0.639598
     13          6           0       -1.218027   -2.548693    0.737845
     14          6           0       -0.518423   -2.233982    2.057781
     15          6           0        0.840937   -2.172342    1.834220
     16          6           0        0.994278   -2.181186    0.435121
     17          6           0       -4.753963   -1.767572   -0.411300
     18          6           0        1.976569   -1.749090    2.695201
     19          6           0       -4.777541   -1.318416   -1.680336
     20          6           0        2.099016   -1.827557   -0.552919
     21          6           0        2.145904   -0.509890   -0.993774
     22          6           0       -3.441222   -0.651007   -2.033292
     23          6           0        3.083016    0.163568   -1.883161
     24          6           0       -1.168901   -2.144333    3.287033
     25          6           0       -5.725699   -2.457405    0.471120
     26          6           0        2.567493    1.438276   -2.049761
     27          6           0        1.872430   -0.313914    3.176619
     28          6           0        1.342713    1.645640   -1.304185
     29          6           0        4.233128   -0.356180   -2.521630
     30          6           0       -5.866107   -1.544181   -2.619344
     31          6           0        5.444984   -0.468691   -1.550122
     32          6           0        3.125913    2.439016   -3.028610
     33          6           0        0.379302    2.664302   -1.109749
     34          6           0        2.962738    0.048341    4.149583
     35          6           0       -0.675608    2.583118   -0.208704
     36          6           0       -6.849254   -2.460334   -2.879466
     37          6           0        6.632424   -1.107587   -2.063205
     38          6           0       -1.421356    3.765571    0.281598
     39          6           0       -2.423425    3.178498    1.083815
     40          6           0       -2.094080    1.793694    1.248826
     41          6           0       -1.332629    5.117051   -0.417354
     42          6           0       -3.426036    3.771959    1.985952
     43          6           0       -2.322891    6.122660   -0.251504
     44          1           0       -3.468091   -0.845109    0.872079
     45          1           0       -2.800290   -3.533690   -0.195703
     46          1           0       -3.163317   -2.969149    1.499846
     47          1           0       -0.380806   -2.579251   -1.126073
     48          1           0       -2.077905   -0.168468   -0.566286
     49          1           0        2.230945   -2.642793    3.459375
     50          1           0        3.018099   -1.838790    2.027076
     51          1           0        2.797781   -2.631213   -0.875274
     52          1           0       -1.983344   -2.855187    3.458003
     53          1           0       -0.667052   -2.224445    4.341128
     54          1           0       -1.604319   -1.109603    3.113306
     55          1           0       -5.750536   -2.113671    1.488836
     56          1           0       -5.647907   -3.596827    0.550408
     57          1           0       -6.787659   -2.498813   -0.120040
     58          1           0        1.962226    0.281358    2.315709
     59          1           0        0.975497    0.001704    3.669243
     60          1           0        0.205473    0.214490   -0.063507
     61          1           0        4.674148    0.270199   -3.539984
     62          1           0        3.821747   -1.329570   -3.059984
     63          1           0       -5.821955   -0.786178   -3.372336
     64          1           0        5.023535   -1.058882   -0.758977
     65          1           0        5.735438    0.399770   -1.160374
     66          1           0        4.264235    2.166945   -3.217307
     67          1           0        3.139631    3.426942   -2.367323
     68          1           0        2.618043    2.435478   -4.169974
     69          1           0        0.574581    3.525107   -1.754417
     70          1           0       -7.113717   -3.233915   -2.082668
     71          1           0       -7.565920   -2.478010   -3.647962
     72          1           0        3.876105    1.299641    4.809539
     73          1           0       -0.563404    5.147316   -1.019058
     74          1           0       -4.227089    4.053693    1.286808
     75          1           0       -3.680365    3.111631    2.777924
     76          1           0       -2.959446    4.812017    2.340350
     77          1           0        8.501480   -1.279884   -1.552711
     78          1           0       -2.162518    7.143042   -0.708540
     79          1           0       -3.111932    6.133718    0.478989
 ---------------------------------------------------------------------

 SCF Done:  E(RB3LYP) =  -1947.80535310     A.U. after   20 cycles

 Excitation energies and oscillator strengths:

 Excited State   1:      Singlet-A      0.4909 eV 2525.52 nm  f=0.0012  <S**2>=0.000
     155 ->156         0.70469
 This state for optimization and/or second-order correction.
 Total Energy, E(TD-HF/TD-DFT) =  -1947.78731190
 Copying the excited state density for this state as the 1-particle RhoCI density.

 The electronic state is 1-A.
 Alpha  occ. eigenvalues --  -19.18070 -19.17541 -19.13586 -19.13569 -19.12061
 Alpha  occ. eigenvalues --  -19.08212 -14.37475 -14.37312 -14.32861 -14.31194
 Alpha  occ. eigenvalues --  -10.31999 -10.31547 -10.27772 -10.26886 -10.26849
 Alpha  occ. eigenvalues --  -10.25571 -10.25529 -10.23563 -10.23418 -10.23415
 Alpha  occ. eigenvalues --  -10.22757 -10.22721 -10.22415 -10.22322 -10.22253
 Alpha  occ. eigenvalues --  -10.21711 -10.21428 -10.20757 -10.20655 -10.20649
 Alpha  occ. eigenvalues --  -10.20584 -10.20530 -10.20435 -10.20398 -10.19476
 Alpha  occ. eigenvalues --  -10.19283 -10.19208 -10.18210 -10.18149 -10.17786
 Alpha  occ. eigenvalues --  -10.17337 -10.16949 -10.16641  -1.11912  -1.10608
 Alpha  occ. eigenvalues --   -1.03597  -1.03028  -1.01952  -1.01120  -0.99506
 Alpha  occ. eigenvalues --   -0.97420  -0.94834  -0.93001  -0.84485  -0.82224
 Alpha  occ. eigenvalues --   -0.81275  -0.81102  -0.80196  -0.79454  -0.78872
 Alpha  occ. eigenvalues --   -0.77613  -0.76806  -0.75617  -0.73989  -0.72861
 Alpha  occ. eigenvalues --   -0.71293  -0.70898  -0.69585  -0.68294  -0.67771
 Alpha  occ. eigenvalues --   -0.66519  -0.66027  -0.64045  -0.62520  -0.61245
 Alpha  occ. eigenvalues --   -0.60784  -0.60260  -0.57465  -0.57070  -0.56127
 Alpha  occ. eigenvalues --   -0.55639  -0.55367  -0.54823  -0.53355  -0.53066
 Alpha  occ. eigenvalues --   -0.52727  -0.52161  -0.51291  -0.50948  -0.50255
 Alpha  occ. eigenvalues --   -0.49565  -0.49456  -0.49200  -0.48866  -0.48313
 Alpha  occ. eigenvalues --   -0.48010  -0.47028  -0.46656  -0.46361  -0.45947
 Alpha  occ. eigenvalues --   -0.45672  -0.45603  -0.45262  -0.44427  -0.44106
 Alpha  occ. eigenvalues --   -0.43704  -0.43350  -0.42900  -0.42693  -0.42587
 Alpha  occ. eigenvalues --   -0.42298  -0.42153  -0.42012  -0.41784  -0.41529
 Alpha  occ. eigenvalues --   -0.41472  -0.41245  -0.40738  -0.40618  -0.40381
 Alpha  occ. eigenvalues --   -0.40092  -0.39318  -0.38836  -0.38635  -0.38444
 Alpha  occ. eigenvalues --   -0.38078  -0.37703  -0.37345  -0.37139  -0.36774
 Alpha  occ. eigenvalues --   -0.35899  -0.35558  -0.35121  -0.34689  -0.34217
 Alpha  occ. eigenvalues --   -0.33608  -0.33045  -0.32927  -0.31570  -0.31216
 Alpha  occ. eigenvalues --   -0.30712  -0.29856  -0.29593  -0.29035  -0.28807
 Alpha  occ. eigenvalues --   -0.28256  -0.26604  -0.26327  -0.25372  -0.23964
 Alpha  occ. eigenvalues --   -0.23756  -0.23220  -0.22329  -0.22220  -0.17500
 Alpha virt. eigenvalues --   -0.13288  -0.08596  -0.03473  -0.03174   0.00847
 Alpha virt. eigenvalues --    0.00923   0.01729   0.02136   0.02344   0.02857
 Alpha virt. eigenvalues --    0.03310   0.04819   0.05032   0.05247   0.05609

 Mulliken charges:
               1
     1  O   -0.228503
     2  O   -0.192385
     3  O   -0.188721
     4  O   -0.213405
     5  O   -0.144316
     6  O   -0.203519
     7  N    0.000201
     8  N   -0.092165
     9  N   -0.190994
    10  N   -0.348413
    11  C   -0.031533
    12  C    0.359959
    13  C   -0.167143
    14  C   -0.130189
    15  C   -0.028531
    16  C   -0.054202
    17  C   -0.138459
    18  C   -0.005857
    19  C   -0.084727
    20  C   -0.128426
    21  C    0.139453
    22  C    0.130987
    23  C    0.013509
    24  C   -0.002275
    25  C    0.039893
    26  C   -0.126441
    27  C    0.099142
    28  C    0.108768
    29  C   -0.078169
    30  C   -0.010664
    31  C    0.111546
    32  C   -0.026384
    33  C   -0.109580
    34  C    0.105231
    35  C    0.164199
    36  C   -0.046222
    37  C    0.087523
    38  C   -0.006996
    39  C   -0.200239
    40  C    0.160937
    41  C    0.085984
    42  C    0.093210
    43  C   -0.020769
    44  H    0.014496
    45  H   -0.030322
    46  H   -0.045560
    47  H    0.104626
    48  H    0.150950
    49  H    0.039509
    50  H    0.006700
    51  H    0.027780
    52  H    0.002195
    53  H    0.018949
    54  H    0.053822
    55  H    0.027730
    56  H    0.035161
    57  H    0.037664
    58  H    0.010216
    59  H    0.033552
    60  H    0.270802
    61  H    0.047083
    62  H    0.056054
    63  H   -0.007769
    64  H    0.028998
    65  H   -0.006461
    66  H    0.034463
    67  H    0.046000
    68  H    0.082680
    69  H   -0.007715
    70  H    0.000424
    71  H    0.011286
    72  H    0.139742
    73  H   -0.065053
    74  H    0.041366
    75  H    0.035461
    76  H    0.047721
    77  H    0.183150
    78  H    0.045528
    79  H    0.027458
 Sum of Mulliken charges =  -0.00000

 Dipole moment (field-independent basis, Debye):
    X=              3.3148    Y=              3.1036    Z=              0.7301  Tot=              4.5993
 Quadrupole moment (field-independent basis, Debye-Ang):
   XX=           -237.7384   YY=           -230.1689   ZZ=           -273.7151
   XY=              5.1895   XZ=            -21.5636   YZ=              0.4533

 Normal termination of Gaussian 16 at Sun Jul 28 09:57:50 2019.
