 Gaussian 16, Revision A.03,
 Gaussian 16:  ES64L-G16RevA.03 25-Dec-2016

 --------------------------
 # td=(NStates=1) B3LYP/SVP
 --------------------------

 --
 TD
 --
 Symbolic Z-matrix:
 Charge =  0 Multiplicity = 1

                         Standard orientation:
 ---------------------------------------------------------------------
 Center     Atomic      Atomic             Coordinates (Angstroms)
 Number     Number       Type             X           Y           Z
 ---------------------------------------------------------------------
      1          8           0       -3.286301   -1.056230   -2.991755
      2          8           0        2.950497    2.867251    3.369983
      3          8           0        3.856044    0.947820    4.242678
      4          8           0        7.897922   -1.473880   -0.872255
      5          8           0        6.625353   -2.765643   -2.297704
      6          8           0       -2.655036    1.529886    1.474940
      7          7           0       -0.369039   -2.485867    0.746219
      8          7           0       -2.745878   -1.112827   -0.739269
      9          7           0        1.116517    0.097631   -0.770239
     10          7           0       -1.032338    1.438918   -0.137307
     11          6           0       -3.360137   -1.320523    0.493934
     12          6           0       -2.647426   -2.413468    1.435506
     13          6           0       -1.241190   -2.242310    1.617424
     14          6           0       -0.657260   -1.520422    2.774364
     15          6           0        0.684975   -1.349429    2.309644
     16          6           0        0.922590   -2.002182    1.109494
     17          6           0       -4.779197   -1.802554    0.023201
     18          6           0        1.778594   -0.672137    3.138056
     19          6           0       -4.879293   -1.838312   -1.209133
     20          6           0        2.060914   -1.864770    0.294994
     21          6           0        2.059931   -0.869919   -0.680992
     22          6           0       -3.590594   -1.304976   -1.798072
     23          6           0        3.043601   -0.533418   -1.738425
     24          6           0       -1.372747   -0.865577    3.880269
     25          6           0       -5.806941   -2.200474    1.066593
     26          6           0        2.678582    0.600896   -2.377014
     27          6           0        1.870571    0.857642    2.863546
     28          6           0        1.344552    0.925386   -1.704791
     29          6           0        4.310403   -1.346180   -2.020221
     30          6           0       -5.956538   -2.193050   -2.168653
     31          6           0        5.454498   -1.067646   -1.062607
     32          6           0        3.176260    1.350970   -3.551217
     33          6           0        0.573699    2.109909   -1.791842
     34          6           0        3.057674    1.543525    3.548925
     35          6           0       -0.572392    2.347655   -0.956808
     36          6           0       -6.902930   -3.063783   -1.914743
     37          6           0        6.783082   -1.870227   -1.513984
     38          6           0       -1.408984    3.607426   -0.984164
     39          6           0       -2.311099    3.352257    0.025088
     40          6           0       -2.036263    2.039567    0.530514
     41          6           0       -1.251693    4.739831   -1.915894
     42          6           0       -3.259450    4.253611    0.674370
     43          6           0       -1.699866    6.017174   -1.776785
     44          1           0       -3.588383   -0.407132    0.978962
     45          1           0       -2.738022   -3.387186    0.995512
     46          1           0       -3.444125   -2.424214    2.443435
     47          1           0       -0.487241   -2.721027   -0.203488
     48          1           0       -2.040339   -0.377746   -0.867640
     49          1           0        1.521357   -0.676139    4.256805
     50          1           0        2.672473   -1.254008    3.073065
     51          1           0        2.736562   -2.791911    0.131352
     52          1           0       -2.169054   -1.566769    4.345055
     53          1           0       -0.682459   -0.444360    4.525533
     54          1           0       -2.008031    0.091329    3.287321
     55          1           0       -5.846859   -1.456069    1.826675
     56          1           0       -5.878449   -3.157220    1.478674
     57          1           0       -6.758980   -2.114764    0.621257
     58          1           0        2.146248    0.933517    1.868636
     59          1           0        0.788681    1.316147    3.239395
     60          1           0        0.326659    0.330772   -0.361696
     61          1           0        4.630624   -0.833778   -3.166821
     62          1           0        4.024783   -2.305253   -1.996015
     63          1           0       -5.699118   -2.032214   -3.141276
     64          1           0        5.413828   -1.603848    0.050958
     65          1           0        5.511636   -0.002441   -0.726798
     66          1           0        4.099592    0.858189   -4.017527
     67          1           0        3.596918    2.355568   -3.354327
     68          1           0        2.535057    1.436595   -4.412590
     69          1           0        0.764513    2.818397   -2.601536
     70          1           0       -7.145566   -3.462292   -0.867440
     71          1           0       -7.575605   -3.323904   -2.617379
     72          1           0        3.710551    3.214858    3.572277
     73          1           0       -0.751622    4.394283   -2.997844
     74          1           0       -3.902435    4.666885   -0.055516
     75          1           0       -3.968398    3.543471    1.220342
     76          1           0       -2.707327    4.993082    1.185256
     77          1           0        8.537341   -2.085087   -1.019857
     78          1           0       -1.446210    6.732581   -2.444130
     79          1           0       -2.466818    6.356115   -1.075014
 ---------------------------------------------------------------------

 SCF Done:  E(RB3LYP) =  -1947.79955832     A.U. after   18 cycles

 Excitation energies and oscillator strengths:

 Excited State   1:      Singlet-A      0.8818 eV 1406.09 nm  f=0.0051  <S**2>=0.000
     155 ->156         0.70272
 This state for optimization and/or second-order correction.
 Total Energy, E(TD-HF/TD-DFT) =  -1947.76715401
 Copying the excited state density for this state as the 1-particle RhoCI density.

 The electronic state is 1-A.
 Alpha  occ. eigenvalues --  -19.20141 -19.18006 -19.14324 -19.12638 -19.11552
 Alpha  occ. eigenvalues --  -19.08275 -14.37464 -14.36973 -14.32986 -14.30525
 Alpha  occ. eigenvalues --  -10.34048 -10.31742 -10.27171 -10.26630 -10.26261
 Alpha  occ. eigenvalues --  -10.26178 -10.25179 -10.23406 -10.23146 -10.23045
 Alpha  occ. eigenvalues --  -10.22866 -10.22572 -10.22476 -10.21964 -10.21523
 Alpha  occ. eigenvalues --  -10.21457 -10.20447 -10.20294 -10.20270 -10.20070
 Alpha  occ. eigenvalues --  -10.19922 -10.19808 -10.19253 -10.18827 -10.18527
 Alpha  occ. eigenvalues --  -10.18166 -10.17995 -10.17889 -10.17739 -10.17657
 Alpha  occ. eigenvalues --  -10.17291 -10.16699 -10.16057  -1.12353  -1.11633
 Alpha  occ. eigenvalues --   -1.04292  -1.03810  -1.02768  -1.01562  -0.99613
 Alpha  occ. eigenvalues --   -0.98782  -0.95231  -0.92649  -0.84997  -0.82738
 Alpha  occ. eigenvalues --   -0.81832  -0.81704  -0.79653  -0.78447  -0.78139
 Alpha  occ. eigenvalues --   -0.76933  -0.76023  -0.75684  -0.74764  -0.73580
 Alpha  occ. eigenvalues --   -0.71465  -0.71058  -0.70209  -0.69801  -0.68145
 Alpha  occ. eigenvalues --   -0.67404  -0.66577  -0.64433  -0.63282  -0.61848
 Alpha  occ. eigenvalues --   -0.60728  -0.60000  -0.59822  -0.59387  -0.57571
 Alpha  occ. eigenvalues --   -0.56914  -0.55784  -0.54649  -0.54169  -0.52926
 Alpha  occ. eigenvalues --   -0.52294  -0.51700  -0.51044  -0.50109  -0.49876
 Alpha  occ. eigenvalues --   -0.49463  -0.48988  -0.48649  -0.48118  -0.47931
 Alpha  occ. eigenvalues --   -0.47760  -0.47502  -0.47481  -0.47107  -0.46667
 Alpha  occ. eigenvalues --   -0.46010  -0.45724  -0.45241  -0.44675  -0.44168
 Alpha  occ. eigenvalues --   -0.43918  -0.43564  -0.43508  -0.43079  -0.42865
 Alpha  occ. eigenvalues --   -0.42557  -0.41948  -0.41509  -0.41285  -0.40906
 Alpha  occ. eigenvalues --   -0.40738  -0.40433  -0.40287  -0.40162  -0.39653
 Alpha  occ. eigenvalues --   -0.39523  -0.39127  -0.38026  -0.37913  -0.37600
 Alpha  occ. eigenvalues --   -0.37185  -0.37028  -0.36560  -0.36270  -0.35978
 Alpha  occ. eigenvalues --   -0.35796  -0.35592  -0.35083  -0.34756  -0.34406
 Alpha  occ. eigenvalues --   -0.34087  -0.33594  -0.32932  -0.32394  -0.31489
 Alpha  occ. eigenvalues --   -0.31299  -0.30403  -0.29643  -0.29336  -0.28797
 Alpha  occ. eigenvalues --   -0.28263  -0.27484  -0.26091  -0.24718  -0.24333
 Alpha  occ. eigenvalues --   -0.24027  -0.23592  -0.22899  -0.22188  -0.17825
 Alpha virt. eigenvalues --   -0.12147  -0.07556  -0.02712  -0.02345  -0.00475
 Alpha virt. eigenvalues --    0.00262   0.01972   0.02308   0.02699   0.02979
 Alpha virt. eigenvalues --    0.03638   0.04234   0.04696   0.05491   0.05987

 Mulliken charges:
               1
     1  O   -0.278681
     2  O   -0.095150
     3  O   -0.218488
     4  O   -0.121737
     5  O   -0.205519
     6  O   -0.221370
     7  N    0.050207
     8  N   -0.169473
     9  N    0.158981
    10  N   -0.241209
    11  C    0.115962
    12  C    0.134106
    13  C   -0.103627
    14  C   -0.129362
    15  C   -0.093124
    16  C   -0.027452
    17  C   -0.266304
    18  C    0.073043
    19  C   -0.006649
    20  C   -0.107016
    21  C    0.087074
    22  C    0.117036
    23  C   -0.113644
    24  C    0.046443
    25  C    0.153540
    26  C   -0.084666
    27  C   -0.007804
    28  C   -0.028029
    29  C    0.174307
    30  C    0.064191
    31  C   -0.101601
    32  C    0.077134
    33  C   -0.072798
    34  C    0.107212
    35  C    0.044683
    36  C   -0.003196
    37  C    0.150603
    38  C    0.052653
    39  C   -0.234341
    40  C    0.139956
    41  C   -0.071659
    42  C    0.150936
    43  C    0.005408
    44  H    0.027482
    45  H   -0.036134
    46  H    0.033444
    47  H    0.095836
    48  H    0.141822
    49  H    0.005441
    50  H   -0.004331
    51  H    0.027075
    52  H    0.024110
    53  H   -0.015542
    54  H    0.072555
    55  H   -0.001078
    56  H    0.018104
    57  H   -0.012938
    58  H    0.001496
    59  H    0.084386
    60  H    0.061574
    61  H    0.051985
    62  H   -0.016786
    63  H   -0.028196
    64  H    0.061144
    65  H    0.035414
    66  H    0.008304
    67  H    0.032391
    68  H    0.040217
    69  H   -0.024278
    70  H    0.021046
    71  H   -0.011280
    72  H    0.109672
    73  H    0.049783
    74  H    0.003793
    75  H    0.032862
    76  H    0.036839
    77  H    0.143086
    78  H    0.000883
    79  H    0.029241
 Sum of Mulliken charges =  -0.00000

 Dipole moment (field-independent basis, Debye):
    X=              3.6017    Y=              3.1751    Z=             -1.5979  Tot=              5.0603
 Quadrupole moment (field-independent basis, Debye-Ang):
   XX=           -225.2087   YY=           -231.3829   ZZ=           -272.8892
   XY=              6.1816   XZ=            -19.5637   YZ=            -10.6062

 Normal termination of Gaussian 16 at Fri Jul 26 18:06:24 2019.
