 Gaussian 16, Revision A.03,
 Gaussian 16:  ES64L-G16RevA.03 25-Dec-2016

 --------------------------
 # td=(NStates=1) B3LYP/SVP
 --------------------------

 --
 TD
 --
 Symbolic Z-matrix:
 Charge =  0 Multiplicity = 1

                         Standard orientation:
 ---------------------------------------------------------------------
 Center     Atomic      Atomic             Coordinates (Angstroms)
 Number     Number       Type             X           Y           Z
 ---------------------------------------------------------------------
      1          8           0        5.193818    0.025943   -3.256102
      2          8           0       -2.993748   -2.842420    3.336957
      3          8           0       -3.244957   -0.647282    3.118196
      4          8           0       -1.522898    7.037454    1.610216
      5          8           0       -0.925542    7.015670   -0.668459
      6          8           0       -1.546843   -3.926807    0.216404
      7          7           0        2.304493    1.033044    0.741868
      8          7           0        4.252528   -0.436263   -1.223601
      9          7           0       -1.873975    0.752089   -0.311101
     10          7           0       -2.484413   -1.891146   -0.378810
     11          6           0        4.645771   -1.030879    0.009327
     12          6           0        4.260139   -0.328463    1.381759
     13          6           0        2.909870   -0.005301    1.388587
     14          6           0        1.890617   -0.542758    2.190018
     15          6           0        0.704075    0.120745    1.887830
     16          6           0        0.920236    1.021273    0.951791
     17          6           0        6.132157   -1.312195   -0.191641
     18          6           0       -0.647916   -0.165152    2.573142
     19          6           0        6.506031   -0.817931   -1.432331
     20          6           0        0.131596    2.063295    0.282205
     21          6           0       -1.096055    1.949312   -0.263676
     22          6           0        5.209967   -0.310649   -2.124900
     23          6           0       -1.904216    2.897253   -1.016565
     24          6           0        2.130220   -1.645588    3.190267
     25          6           0        6.959526   -2.009172    0.881247
     26          6           0       -3.047723    2.315494   -1.351018
     27          6           0       -1.165106   -1.592700    2.521087
     28          6           0       -3.058904    0.949595   -0.983382
     29          6           0       -1.550474    4.307037   -1.062316
     30          6           0        7.811116   -0.771770   -2.165985
     31          6           0       -1.741751    4.920751    0.338390
     32          6           0       -4.306274    3.013788   -2.108263
     33          6           0       -3.927092   -0.197470   -1.396194
     34          6           0       -2.658177   -1.653608    2.981309
     35          6           0       -3.567879   -1.568521   -1.075473
     36          6           0        9.016334   -0.820080   -1.636383
     37          6           0       -1.397213    6.380977    0.351004
     38          6           0       -4.367627   -2.720603   -1.473092
     39          6           0       -3.602987   -3.849474   -1.047890
     40          6           0       -2.483226   -3.312379   -0.300079
     41          6           0       -5.594370   -2.665018   -2.287915
     42          6           0       -3.899890   -5.312082   -1.143952
     43          6           0       -6.374212   -3.702017   -2.800489
     44          1           0        4.078296   -2.015647    0.287033
     45          1           0        4.840223    0.454105    1.605768
     46          1           0        4.621200   -1.058607    2.159224
     47          1           0        2.641812    1.613415    0.076802
     48          1           0        3.359678   -0.500602   -1.621464
     49          1           0       -0.598732    0.236496    3.714322
     50          1           0       -1.174475    0.733582    2.203779
     51          1           0        0.505625    2.982655    0.178709
     52          1           0        3.162908   -1.877855    3.417305
     53          1           0        1.664656   -1.613286    4.235397
     54          1           0        1.877439   -2.753553    3.066572
     55          1           0        6.161945   -2.583969    1.341293
     56          1           0        7.411622   -1.272703    1.781572
     57          1           0        7.683201   -2.709991    0.431697
     58          1           0       -1.015914   -1.968781    1.551780
     59          1           0       -0.737084   -2.193673    3.162576
     60          1           0       -1.599926   -0.249315   -0.169092
     61          1           0       -1.911769    4.872508   -2.078410
     62          1           0       -0.532091    4.464904   -1.319963
     63          1           0        7.716114   -0.658322   -3.240105
     64          1           0       -1.131967    4.447454    1.123898
     65          1           0       -2.725650    4.773016    0.459696
     66          1           0       -4.165111    4.045957   -2.277373
     67          1           0       -5.184871    2.950637   -1.640797
     68          1           0       -4.413794    2.454296   -3.169603
     69          1           0       -5.124520   -0.273314   -1.909140
     70          1           0        9.131039   -0.712133   -0.611740
     71          1           0        9.843918   -0.707002   -2.305566
     72          1           0       -4.069325   -3.044447    3.385895
     73          1           0       -6.141278   -1.583225   -2.729851
     74          1           0       -4.825109   -5.654057   -0.643497
     75          1           0       -3.767037   -5.408597   -2.175680
     76          1           0       -3.108267   -5.909972   -0.806380
     77          1           0       -1.158086    7.899871    1.414305
     78          1           0       -7.289273   -3.555293   -3.399559
     79          1           0       -6.113830   -4.763334   -2.554113
 ---------------------------------------------------------------------

 SCF Done:  E(RB3LYP) =  -1947.80768092     A.U. after   19 cycles

 Excitation energies and oscillator strengths:

 Excited State   1:      Singlet-A      1.9395 eV  639.26 nm  f=0.3304  <S**2>=0.000
     153 ->156         0.10908
     154 ->156         0.11214
     155 ->156         0.68437
     155 <-156        -0.10115
 This state for optimization and/or second-order correction.
 Total Energy, E(TD-HF/TD-DFT) =  -1947.73640571
 Copying the excited state density for this state as the 1-particle RhoCI density.

 The electronic state is 1-A.
 Alpha  occ. eigenvalues --  -19.19297 -19.17882 -19.14358 -19.10545 -19.10043
 Alpha  occ. eigenvalues --  -19.09758 -14.37472 -14.36499 -14.35880 -14.28826
 Alpha  occ. eigenvalues --  -10.34306 -10.29189 -10.27972 -10.26355 -10.26084
 Alpha  occ. eigenvalues --  -10.25688 -10.24592 -10.23288 -10.23242 -10.22351
 Alpha  occ. eigenvalues --  -10.22154 -10.22123 -10.21947 -10.21899 -10.21892
 Alpha  occ. eigenvalues --  -10.21826 -10.21697 -10.21534 -10.21371 -10.21122
 Alpha  occ. eigenvalues --  -10.21008 -10.20759 -10.20487 -10.20403 -10.19842
 Alpha  occ. eigenvalues --  -10.19403 -10.19272 -10.18610 -10.18461 -10.18343
 Alpha  occ. eigenvalues --  -10.18000 -10.17690 -10.15709  -1.09015  -1.07855
 Alpha  occ. eigenvalues --   -1.04758  -1.00939  -1.00104  -0.99447  -0.98791
 Alpha  occ. eigenvalues --   -0.97948  -0.96213  -0.92006  -0.84406  -0.82968
 Alpha  occ. eigenvalues --   -0.81617  -0.81063  -0.80102  -0.79963  -0.78772
 Alpha  occ. eigenvalues --   -0.76813  -0.76239  -0.75302  -0.74268  -0.72281
 Alpha  occ. eigenvalues --   -0.71471  -0.70970  -0.70293  -0.69503  -0.69111
 Alpha  occ. eigenvalues --   -0.66974  -0.66237  -0.64679  -0.61245  -0.61086
 Alpha  occ. eigenvalues --   -0.60178  -0.59454  -0.58552  -0.58223  -0.57488
 Alpha  occ. eigenvalues --   -0.56962  -0.56241  -0.55062  -0.54563  -0.53319
 Alpha  occ. eigenvalues --   -0.52309  -0.52027  -0.51631  -0.51265  -0.50336
 Alpha  occ. eigenvalues --   -0.49257  -0.48732  -0.48439  -0.48002  -0.47611
 Alpha  occ. eigenvalues --   -0.47291  -0.46689  -0.46604  -0.45982  -0.45883
 Alpha  occ. eigenvalues --   -0.45728  -0.45117  -0.44946  -0.44483  -0.43790
 Alpha  occ. eigenvalues --   -0.43268  -0.43092  -0.42794  -0.42589  -0.42145
 Alpha  occ. eigenvalues --   -0.41900  -0.41764  -0.41306  -0.41258  -0.41178
 Alpha  occ. eigenvalues --   -0.40999  -0.40678  -0.40286  -0.40151  -0.39830
 Alpha  occ. eigenvalues --   -0.39276  -0.39106  -0.38915  -0.38700  -0.38458
 Alpha  occ. eigenvalues --   -0.37920  -0.37882  -0.37546  -0.37416  -0.36420
 Alpha  occ. eigenvalues --   -0.36240  -0.36017  -0.34812  -0.34693  -0.34372
 Alpha  occ. eigenvalues --   -0.33618  -0.33330  -0.32555  -0.31327  -0.31265
 Alpha  occ. eigenvalues --   -0.31237  -0.30673  -0.29173  -0.29127  -0.27752
 Alpha  occ. eigenvalues --   -0.27411  -0.26910  -0.25507  -0.25329  -0.24674
 Alpha  occ. eigenvalues --   -0.24189  -0.23926  -0.23180  -0.22232  -0.19617
 Alpha virt. eigenvalues --   -0.11660  -0.07394  -0.05133  -0.03446  -0.01076
 Alpha virt. eigenvalues --    0.00979   0.01331   0.02014   0.02356   0.03072
 Alpha virt. eigenvalues --    0.03829   0.04216   0.04879   0.05242   0.05303

 Mulliken charges:
               1
     1  O   -0.181356
     2  O   -0.201622
     3  O   -0.193723
     4  O   -0.211872
     5  O   -0.288470
     6  O   -0.212328
     7  N   -0.026255
     8  N   -0.085132
     9  N   -0.124946
    10  N   -0.287460
    11  C    0.002457
    12  C    0.241981
    13  C   -0.067587
    14  C   -0.042226
    15  C   -0.102262
    16  C    0.060155
    17  C   -0.146260
    18  C    0.062159
    19  C   -0.088959
    20  C   -0.033522
    21  C    0.086080
    22  C    0.077765
    23  C   -0.059764
    24  C    0.031536
    25  C    0.053904
    26  C   -0.132555
    27  C    0.132948
    28  C    0.116088
    29  C    0.036387
    30  C   -0.018729
    31  C    0.101821
    32  C    0.136537
    33  C   -0.109324
    34  C    0.086204
    35  C    0.014974
    36  C    0.026579
    37  C    0.178803
    38  C    0.065600
    39  C   -0.216839
    40  C    0.151370
    41  C   -0.107019
    42  C    0.178222
    43  C   -0.065802
    44  H    0.034419
    45  H   -0.050912
    46  H   -0.005139
    47  H    0.065623
    48  H    0.111716
    49  H    0.001743
    50  H   -0.006138
    51  H   -0.071496
    52  H   -0.031916
    53  H    0.015531
    54  H    0.019784
    55  H    0.010499
    56  H    0.063361
    57  H    0.045535
    58  H    0.045539
    59  H   -0.042646
    60  H    0.166733
    61  H    0.054671
    62  H   -0.010577
    63  H    0.005848
    64  H    0.059880
    65  H    0.012934
    66  H   -0.001352
    67  H   -0.004510
    68  H    0.043819
    69  H    0.045125
    70  H   -0.004767
    71  H    0.018120
    72  H    0.234855
    73  H    0.047527
    74  H    0.048578
    75  H    0.010133
    76  H   -0.012205
    77  H    0.178497
    78  H    0.036950
    79  H    0.026680
 Sum of Mulliken charges =  -0.00000

 Dipole moment (field-independent basis, Debye):
    X=             -1.1434    Y=              0.5808    Z=              1.9567  Tot=              2.3395
 Quadrupole moment (field-independent basis, Debye-Ang):
   XX=           -221.0338   YY=           -243.8223   ZZ=           -264.3782
   XY=              2.6683   XZ=             31.1058   YZ=              3.8932

 Normal termination of Gaussian 16 at Sun Sep 22 06:00:01 2019.
