 Gaussian 16, Revision A.03,
 Gaussian 16:  ES64L-G16RevA.03 25-Dec-2016

 --------------------------
 # td=(NStates=1) B3LYP/SVP
 --------------------------

 --
 TD
 --
 Symbolic Z-matrix:
 Charge =  0 Multiplicity = 1

                         Standard orientation:
 ---------------------------------------------------------------------
 Center     Atomic      Atomic             Coordinates (Angstroms)
 Number     Number       Type             X           Y           Z
 ---------------------------------------------------------------------
      1          8           0        5.344386    0.246067   -3.259748
      2          8           0       -3.193182   -2.931990    3.232317
      3          8           0       -3.334783   -0.620473    2.807813
      4          8           0       -1.605533    7.120458    1.738002
      5          8           0       -1.199755    7.283970   -0.608920
      6          8           0       -1.788762   -4.031477    0.011420
      7          7           0        2.350230    0.803432    0.700859
      8          7           0        4.330410   -0.394658   -1.331021
      9          7           0       -1.773461    0.676640   -0.378678
     10          7           0       -2.479509   -1.934076   -0.690451
     11          6           0        4.654192   -1.152610   -0.158146
     12          6           0        4.424618   -0.459255    1.191036
     13          6           0        2.923455   -0.187949    1.372741
     14          6           0        1.955725   -0.812103    2.236886
     15          6           0        0.711298   -0.089913    1.942365
     16          6           0        0.988313    0.850974    0.885676
     17          6           0        6.201360   -1.347552   -0.267056
     18          6           0       -0.561459   -0.352932    2.626913
     19          6           0        6.616998   -0.687728   -1.355978
     20          6           0        0.187614    1.880814    0.414239
     21          6           0       -1.073884    1.740100   -0.235790
     22          6           0        5.399264   -0.071770   -2.166498
     23          6           0       -1.818462    2.849214   -0.805914
     24          6           0        2.102774   -1.981456    3.081554
     25          6           0        6.993427   -2.260130    0.685512
     26          6           0       -2.990508    2.422625   -1.220202
     27          6           0       -1.126652   -1.772596    2.664669
     28          6           0       -3.004749    0.990167   -1.016607
     29          6           0       -1.435077    4.344205   -0.845731
     30          6           0        8.013350   -0.449116   -1.920628
     31          6           0       -1.601441    5.009811    0.543972
     32          6           0       -4.183923    3.013057   -1.928047
     33          6           0       -3.842910   -0.027382   -1.336925
     34          6           0       -2.661578   -1.693876    2.951306
     35          6           0       -3.603324   -1.469938   -1.180153
     36          6           0        9.216120   -0.648926   -1.282696
     37          6           0       -1.491750    6.585137    0.420282
     38          6           0       -4.537861   -2.560055   -1.573796
     39          6           0       -3.877210   -3.760976   -1.181667
     40          6           0       -2.580433   -3.392117   -0.501162
     41          6           0       -5.666268   -2.435328   -2.323512
     42          6           0       -4.281640   -5.169919   -1.083005
     43          6           0       -6.544829   -3.419484   -2.787792
     44          1           0        4.105646   -2.100760   -0.173624
     45          1           0        5.105133    0.453155    1.145727
     46          1           0        4.706273   -1.140743    2.017548
     47          1           0        2.927736    1.501228    0.185986
     48          1           0        3.373512   -0.805543   -1.843836
     49          1           0       -0.633716    0.117713    3.747999
     50          1           0       -1.327875    0.182212    2.008841
     51          1           0        0.582359    2.976103    0.342362
     52          1           0        3.119589   -2.169405    3.545687
     53          1           0        1.594233   -1.753597    3.958315
     54          1           0        1.735777   -3.044322    2.799697
     55          1           0        6.430171   -3.166354    1.129056
     56          1           0        7.694982   -1.654636    1.343613
     57          1           0        7.821888   -3.015614    0.307561
     58          1           0       -1.048120   -2.076982    1.704340
     59          1           0       -0.476573   -2.482870    3.440825
     60          1           0       -1.651027   -0.407080   -0.080266
     61          1           0       -2.039270    5.039499   -1.683785
     62          1           0       -0.493963    4.492712   -1.138123
     63          1           0        7.768151   -0.077418   -3.002219
     64          1           0       -0.905009    4.664849    1.345319
     65          1           0       -2.756839    4.764290    0.781748
     66          1           0       -3.908577    4.157469   -1.967467
     67          1           0       -4.927708    3.072005   -1.089729
     68          1           0       -4.593237    2.435133   -2.844172
     69          1           0       -4.658667    0.241594   -1.829790
     70          1           0        9.292022   -0.917899   -0.162899
     71          1           0       10.062376   -0.184417   -1.862214
     72          1           0       -4.082901   -2.841970    3.301881
     73          1           0       -5.983555   -1.418669   -2.681155
     74          1           0       -5.340834   -5.356468   -0.492914
     75          1           0       -4.465713   -5.727083   -1.989465
     76          1           0       -3.439309   -5.850449   -0.478016
     77          1           0       -1.386541    8.056287    1.513882
     78          1           0       -7.333016   -3.007344   -3.516858
     79          1           0       -6.667360   -4.444395   -2.330942
 ---------------------------------------------------------------------

 SCF Done:  E(RB3LYP) =  -1947.81501739     A.U. after   17 cycles

 Excitation energies and oscillator strengths:

 Excited State   1:      Singlet-A      1.7233 eV  719.47 nm  f=0.3505  <S**2>=0.000
     155 ->156         0.70440
     155 <-156        -0.12093
 This state for optimization and/or second-order correction.
 Total Energy, E(TD-HF/TD-DFT) =  -1947.75168796
 Copying the excited state density for this state as the 1-particle RhoCI density.

 The electronic state is 1-A.
 Alpha  occ. eigenvalues --  -19.19256 -19.18115 -19.15031 -19.12549 -19.12480
 Alpha  occ. eigenvalues --  -19.12398 -14.37995 -14.35701 -14.35328 -14.29335
 Alpha  occ. eigenvalues --  -10.34288 -10.32581 -10.29381 -10.27317 -10.24367
 Alpha  occ. eigenvalues --  -10.23906 -10.23391 -10.23345 -10.23256 -10.22590
 Alpha  occ. eigenvalues --  -10.22341 -10.22094 -10.21921 -10.21590 -10.21545
 Alpha  occ. eigenvalues --  -10.21441 -10.21104 -10.21102 -10.20966 -10.20863
 Alpha  occ. eigenvalues --  -10.20847 -10.20766 -10.20706 -10.20475 -10.20368
 Alpha  occ. eigenvalues --  -10.20335 -10.19930 -10.19857 -10.19051 -10.18962
 Alpha  occ. eigenvalues --  -10.18883 -10.18584 -10.18210  -1.08753  -1.08011
 Alpha  occ. eigenvalues --   -1.07439  -1.07152  -0.99309  -0.98988  -0.98489
 Alpha  occ. eigenvalues --   -0.98337  -0.94090  -0.92037  -0.82535  -0.81357
 Alpha  occ. eigenvalues --   -0.80786  -0.80586  -0.80326  -0.79112  -0.77192
 Alpha  occ. eigenvalues --   -0.76434  -0.76038  -0.74905  -0.73802  -0.71651
 Alpha  occ. eigenvalues --   -0.70737  -0.70011  -0.69375  -0.68382  -0.67204
 Alpha  occ. eigenvalues --   -0.66732  -0.65283  -0.63741  -0.60990  -0.60294
 Alpha  occ. eigenvalues --   -0.60083  -0.58757  -0.57842  -0.56694  -0.56076
 Alpha  occ. eigenvalues --   -0.55904  -0.55488  -0.54141  -0.53561  -0.52772
 Alpha  occ. eigenvalues --   -0.52059  -0.51342  -0.50415  -0.49557  -0.49053
 Alpha  occ. eigenvalues --   -0.48722  -0.48313  -0.47943  -0.47564  -0.47435
 Alpha  occ. eigenvalues --   -0.47322  -0.46627  -0.46270  -0.45820  -0.45073
 Alpha  occ. eigenvalues --   -0.45028  -0.44756  -0.44423  -0.44391  -0.44103
 Alpha  occ. eigenvalues --   -0.43642  -0.43434  -0.43006  -0.42662  -0.42379
 Alpha  occ. eigenvalues --   -0.42237  -0.42031  -0.41480  -0.41332  -0.41113
 Alpha  occ. eigenvalues --   -0.40562  -0.40185  -0.40174  -0.39779  -0.39519
 Alpha  occ. eigenvalues --   -0.39154  -0.38846  -0.38647  -0.38465  -0.38281
 Alpha  occ. eigenvalues --   -0.38155  -0.37897  -0.37558  -0.37308  -0.36544
 Alpha  occ. eigenvalues --   -0.36370  -0.36071  -0.35211  -0.34934  -0.34760
 Alpha  occ. eigenvalues --   -0.34415  -0.32945  -0.32788  -0.31564  -0.31179
 Alpha  occ. eigenvalues --   -0.31126  -0.30922  -0.29453  -0.29224  -0.28473
 Alpha  occ. eigenvalues --   -0.27916  -0.27331  -0.26566  -0.26214  -0.24447
 Alpha  occ. eigenvalues --   -0.24354  -0.23791  -0.22862  -0.21630  -0.17828
 Alpha virt. eigenvalues --   -0.11067  -0.06672  -0.05357  -0.03284  -0.01102
 Alpha virt. eigenvalues --   -0.00695  -0.00240   0.01437   0.02554   0.03016
 Alpha virt. eigenvalues --    0.03273   0.03837   0.04797   0.05110   0.05531

 Mulliken charges:
               1
     1  O   -0.124073
     2  O   -0.138473
     3  O   -0.279771
     4  O   -0.222794
     5  O   -0.271711
     6  O   -0.094997
     7  N   -0.020195
     8  N   -0.252608
     9  N   -0.092609
    10  N   -0.323281
    11  C    0.041592
    12  C    0.191073
    13  C   -0.119162
    14  C   -0.097934
    15  C   -0.090046
    16  C    0.094503
    17  C   -0.126989
    18  C   -0.005027
    19  C   -0.133820
    20  C   -0.156322
    21  C    0.047104
    22  C    0.153446
    23  C   -0.095964
    24  C    0.074106
    25  C   -0.019219
    26  C   -0.091184
    27  C    0.025662
    28  C    0.089265
    29  C    0.079609
    30  C   -0.006446
    31  C   -0.050642
    32  C    0.091041
    33  C   -0.023715
    34  C    0.174328
    35  C    0.088014
    36  C   -0.049348
    37  C    0.201472
    38  C    0.126219
    39  C   -0.173143
    40  C    0.148548
    41  C   -0.108124
    42  C   -0.027309
    43  C   -0.057915
    44  H    0.010530
    45  H    0.002980
    46  H    0.002766
    47  H    0.128581
    48  H    0.176756
    49  H    0.030290
    50  H    0.020444
    51  H   -0.000167
    52  H   -0.006846
    53  H   -0.008327
    54  H    0.048269
    55  H    0.040188
    56  H    0.052075
    57  H    0.038001
    58  H    0.017395
    59  H    0.053698
    60  H    0.205763
    61  H    0.057536
    62  H   -0.029476
    63  H    0.039408
    64  H    0.067986
    65  H    0.068099
    66  H    0.013537
    67  H    0.026706
    68  H    0.071331
    69  H   -0.121442
    70  H    0.040524
    71  H    0.045115
    72  H    0.140642
    73  H    0.006861
    74  H    0.043342
    75  H    0.025706
    76  H    0.056423
    77  H    0.182599
    78  H    0.039695
    79  H    0.039855
 Sum of Mulliken charges =  -0.00000

 Dipole moment (field-independent basis, Debye):
    X=              0.1224    Y=             -0.3465    Z=              2.4852  Tot=              2.5122
 Quadrupole moment (field-independent basis, Debye-Ang):
   XX=           -223.1710   YY=           -249.3172   ZZ=           -262.9277
   XY=             -2.1581   XZ=             26.4354   YZ=              4.0893

 Normal termination of Gaussian 16 at Fri Oct  4 12:49:33 2019.
