 Gaussian 16, Revision A.03,
 Gaussian 16:  ES64L-G16RevA.03 25-Dec-2016

 --------------------------
 # td=(NStates=1) B3LYP/SVP
 --------------------------

 --
 TD
 --
 Symbolic Z-matrix:
 Charge =  0 Multiplicity = 1

                         Standard orientation:
 ---------------------------------------------------------------------
 Center     Atomic      Atomic             Coordinates (Angstroms)
 Number     Number       Type             X           Y           Z
 ---------------------------------------------------------------------
      1          8           0       -3.312331   -1.242383   -2.918432
      2          8           0        3.428883    2.927364    3.113029
      3          8           0        3.639490    1.186917    4.689486
      4          8           0        7.620800   -1.594109   -0.620484
      5          8           0        6.648915   -2.829266   -2.346520
      6          8           0       -2.570296    1.473445    1.597988
      7          7           0       -0.298141   -2.367122    0.810167
      8          7           0       -2.602292   -1.131247   -0.690720
      9          7           0        1.126293    0.022122   -0.810794
     10          7           0       -0.965694    1.447419   -0.078174
     11          6           0       -3.335410   -1.203051    0.524980
     12          6           0       -2.695527   -2.296273    1.540311
     13          6           0       -1.230244   -2.025058    1.730555
     14          6           0       -0.446308   -1.336917    2.796434
     15          6           0        0.901092   -1.290255    2.412315
     16          6           0        0.926155   -1.914380    1.139591
     17          6           0       -4.681247   -1.897090    0.168284
     18          6           0        1.982273   -0.605499    3.162115
     19          6           0       -4.759214   -2.079672   -1.180387
     20          6           0        2.011111   -1.946703    0.081091
     21          6           0        2.163578   -0.853623   -0.708455
     22          6           0       -3.556695   -1.375681   -1.765394
     23          6           0        3.041360   -0.426946   -1.823950
     24          6           0       -1.191797   -0.714306    3.928595
     25          6           0       -5.715246   -2.226895    1.284619
     26          6           0        2.413227    0.592205   -2.515206
     27          6           0        2.133091    0.811071    2.727762
     28          6           0        1.311778    0.974821   -1.690738
     29          6           0        4.209342   -1.250044   -2.320970
     30          6           0       -5.850740   -2.491743   -1.992774
     31          6           0        5.448882   -0.968612   -1.385544
     32          6           0        2.946070    1.265882   -3.788718
     33          6           0        0.504834    2.186966   -1.898281
     34          6           0        3.107833    1.569247    3.595989
     35          6           0       -0.703824    2.323530   -1.147491
     36          6           0       -6.980062   -3.178677   -1.641777
     37          6           0        6.581338   -1.968488   -1.559568
     38          6           0       -1.600600    3.542882   -1.103547
     39          6           0       -2.361890    3.314822    0.015927
     40          6           0       -1.992242    1.996286    0.593577
     41          6           0       -1.411697    4.762474   -2.063301
     42          6           0       -3.583139    4.214585    0.522130
     43          6           0       -1.961071    5.922482   -1.878383
     44          1           0       -3.641012   -0.110778    1.182686
     45          1           0       -2.946768   -3.334490    1.255083
     46          1           0       -3.156094   -2.117821    2.424574
     47          1           0       -0.394436   -2.917562   -0.083647
     48          1           0       -1.962287   -0.233430   -0.757465
     49          1           0        1.845328   -0.701461    4.200069
     50          1           0        2.989369   -1.113171    2.964400
     51          1           0        2.522005   -2.962914    0.251360
     52          1           0       -1.799693   -1.350257    4.427012
     53          1           0       -0.689335   -0.334249    4.870847
     54          1           0       -1.895768   -0.079170    3.326110
     55          1           0       -5.627762   -1.564411    2.060452
     56          1           0       -5.682554   -3.280569    1.390470
     57          1           0       -6.756434   -1.936627    0.723184
     58          1           0        2.608437    1.053177    1.714372
     59          1           0        1.333527    1.497758    2.771243
     60          1           0        0.619497    0.407793    0.021805
     61          1           0        4.479067   -1.147638   -3.317628
     62          1           0        4.065347   -2.463094   -2.047872
     63          1           0       -5.821588   -2.126387   -2.928961
     64          1           0        5.090064   -0.993557   -0.324178
     65          1           0        5.671392    0.128103   -1.738297
     66          1           0        3.481753    0.568813   -4.703139
     67          1           0        3.422394    2.086220   -3.424360
     68          1           0        2.234415    1.706948   -4.413068
     69          1           0        0.772337    3.114815   -2.504447
     70          1           0       -7.116480   -3.753283   -0.638966
     71          1           0       -7.859153   -3.394146   -2.380505
     72          1           0        4.184591    3.237582    3.812082
     73          1           0       -0.629786    4.457356   -2.751944
     74          1           0       -3.987761    4.521621   -0.335065
     75          1           0       -4.063378    3.760967    1.221922
     76          1           0       -3.109646    5.019640    1.074514
     77          1           0        8.291025   -2.306049   -0.788162
     78          1           0       -2.014678    6.734308   -2.691893
     79          1           0       -2.670840    6.187969   -1.155227
 ---------------------------------------------------------------------

 SCF Done:  E(RB3LYP) =  -1947.77985689     A.U. after   22 cycles

 Excitation energies and oscillator strengths:

 Excited State   1:      Singlet-A      0.7631 eV 1624.85 nm  f=0.0113  <S**2>=0.000
     155 ->156         0.70557
 This state for optimization and/or second-order correction.
 Total Energy, E(TD-HF/TD-DFT) =  -1947.75181524
 Copying the excited state density for this state as the 1-particle RhoCI density.

 The electronic state is 1-A.
 Alpha  occ. eigenvalues --  -19.18323 -19.17355 -19.16247 -19.13138 -19.10951
 Alpha  occ. eigenvalues --  -19.09044 -14.38185 -14.37335 -14.32314 -14.30582
 Alpha  occ. eigenvalues --  -10.33948 -10.32525 -10.27586 -10.27279 -10.26640
 Alpha  occ. eigenvalues --  -10.26527 -10.25581 -10.24199 -10.23639 -10.23285
 Alpha  occ. eigenvalues --  -10.23241 -10.22773 -10.22473 -10.22434 -10.22273
 Alpha  occ. eigenvalues --  -10.22100 -10.21681 -10.21270 -10.21193 -10.20657
 Alpha  occ. eigenvalues --  -10.20402 -10.20376 -10.20258 -10.19553 -10.19549
 Alpha  occ. eigenvalues --  -10.19378 -10.18667 -10.18067 -10.17856 -10.17821
 Alpha  occ. eigenvalues --  -10.17379 -10.17309 -10.16345  -1.10787  -1.03908
 Alpha  occ. eigenvalues --   -1.02973  -1.02230  -1.01925  -1.00260  -0.97239
 Alpha  occ. eigenvalues --   -0.96223  -0.92295  -0.90571  -0.84083  -0.83008
 Alpha  occ. eigenvalues --   -0.81595  -0.80842  -0.79977  -0.78856  -0.77781
 Alpha  occ. eigenvalues --   -0.76863  -0.76276  -0.75605  -0.74017  -0.73272
 Alpha  occ. eigenvalues --   -0.71304  -0.70599  -0.69432  -0.69334  -0.67886
 Alpha  occ. eigenvalues --   -0.66992  -0.65072  -0.62418  -0.61002  -0.60001
 Alpha  occ. eigenvalues --   -0.58790  -0.58535  -0.58282  -0.56522  -0.56297
 Alpha  occ. eigenvalues --   -0.55554  -0.54763  -0.54534  -0.53758  -0.53538
 Alpha  occ. eigenvalues --   -0.51718  -0.51273  -0.50706  -0.50295  -0.49824
 Alpha  occ. eigenvalues --   -0.49212  -0.48806  -0.48298  -0.47784  -0.47447
 Alpha  occ. eigenvalues --   -0.46956  -0.46690  -0.46653  -0.46211  -0.45923
 Alpha  occ. eigenvalues --   -0.45657  -0.45403  -0.45054  -0.44895  -0.44229
 Alpha  occ. eigenvalues --   -0.43708  -0.43289  -0.42966  -0.42757  -0.42669
 Alpha  occ. eigenvalues --   -0.42379  -0.42116  -0.41597  -0.41451  -0.41079
 Alpha  occ. eigenvalues --   -0.40752  -0.40389  -0.40139  -0.39878  -0.39548
 Alpha  occ. eigenvalues --   -0.39246  -0.38973  -0.38144  -0.38080  -0.37858
 Alpha  occ. eigenvalues --   -0.37531  -0.37277  -0.36831  -0.36412  -0.36212
 Alpha  occ. eigenvalues --   -0.35691  -0.35536  -0.35289  -0.35201  -0.34239
 Alpha  occ. eigenvalues --   -0.33971  -0.33751  -0.32936  -0.31855  -0.31143
 Alpha  occ. eigenvalues --   -0.30997  -0.30767  -0.30265  -0.29165  -0.28577
 Alpha  occ. eigenvalues --   -0.28172  -0.27551  -0.25340  -0.25121  -0.24457
 Alpha  occ. eigenvalues --   -0.23892  -0.23110  -0.22335  -0.21827  -0.18086
 Alpha virt. eigenvalues --   -0.12952  -0.07862  -0.03467  -0.02191  -0.02001
 Alpha virt. eigenvalues --   -0.01442   0.01669   0.02059   0.02353   0.02543
 Alpha virt. eigenvalues --    0.02657   0.03611   0.04541   0.05035   0.05267

 Mulliken charges:
               1
     1  O   -0.188658
     2  O   -0.321167
     3  O   -0.276408
     4  O   -0.261457
     5  O   -0.152885
     6  O   -0.274149
     7  N   -0.007461
     8  N   -0.257105
     9  N    0.003103
    10  N   -0.329894
    11  C   -0.043653
    12  C    0.265459
    13  C   -0.111237
    14  C   -0.123208
    15  C   -0.099345
    16  C   -0.165437
    17  C   -0.219050
    18  C    0.174733
    19  C   -0.011077
    20  C   -0.142851
    21  C    0.193579
    22  C    0.130424
    23  C   -0.070969
    24  C    0.105546
    25  C    0.120410
    26  C   -0.134920
    27  C    0.032054
    28  C    0.072031
    29  C    0.065741
    30  C    0.036443
    31  C   -0.078643
    32  C    0.118679
    33  C   -0.115664
    34  C    0.163990
    35  C    0.084118
    36  C   -0.105886
    37  C    0.175249
    38  C   -0.026482
    39  C   -0.263928
    40  C    0.181090
    41  C    0.082598
    42  C    0.272171
    43  C   -0.022792
    44  H    0.107412
    45  H   -0.008038
    46  H   -0.059206
    47  H    0.134891
    48  H    0.180203
    49  H    0.002103
    50  H    0.000240
    51  H    0.057773
    52  H   -0.034376
    53  H    0.003524
    54  H    0.052432
    55  H    0.006275
    56  H    0.037136
    57  H    0.048086
    58  H    0.042708
    59  H    0.040259
    60  H    0.207033
    61  H   -0.000821
    62  H    0.046992
    63  H   -0.040930
    64  H    0.058347
    65  H    0.067567
    66  H    0.068013
    67  H    0.009684
    68  H   -0.000500
    69  H    0.021349
    70  H    0.027636
    71  H    0.037938
    72  H    0.225592
    73  H   -0.015477
    74  H    0.009901
    75  H   -0.045473
    76  H    0.012226
    77  H    0.182190
    78  H    0.038282
    79  H    0.005933
 Sum of Mulliken charges =  -0.00000

 Dipole moment (field-independent basis, Debye):
    X=              3.4462    Y=              2.2117    Z=             -2.0599  Tot=              4.5838
 Quadrupole moment (field-independent basis, Debye-Ang):
   XX=           -241.2225   YY=           -233.1227   ZZ=           -269.7134
   XY=             -2.8614   XZ=            -23.0926   YZ=            -16.2169

 Normal termination of Gaussian 16 at Mon Jul 29 05:13:39 2019.
