 Gaussian 16, Revision A.03,
 Gaussian 16:  ES64L-G16RevA.03 25-Dec-2016

 --------------------------
 # td=(NStates=1) B3LYP/SVP
 --------------------------

 --
 TD
 --
 Symbolic Z-matrix:
 Charge =  0 Multiplicity = 1

                         Standard orientation:
 ---------------------------------------------------------------------
 Center     Atomic      Atomic             Coordinates (Angstroms)
 Number     Number       Type             X           Y           Z
 ---------------------------------------------------------------------
      1          8           0       -3.313222   -0.671951   -3.036129
      2          8           0        3.128707    2.471874    3.514378
      3          8           0        3.803268    0.516555    4.560674
      4          8           0        7.956835   -1.157745   -1.211020
      5          8           0        6.609802   -2.669953   -2.514728
      6          8           0       -2.660317    1.239765    1.751755
      7          7           0       -0.200340   -2.505714    0.483313
      8          7           0       -2.687524   -1.097452   -0.854347
      9          7           0        1.144991    0.259791   -0.595586
     10          7           0       -0.930368    1.563913    0.151802
     11          6           0       -3.363446   -1.542711    0.384281
     12          6           0       -2.581616   -2.694764    1.189204
     13          6           0       -1.213910   -2.278286    1.407889
     14          6           0       -0.533091   -1.722835    2.492480
     15          6           0        0.897285   -1.614328    2.300913
     16          6           0        1.056623   -2.032689    0.933126
     17          6           0       -4.729559   -2.032979   -0.121618
     18          6           0        1.893604   -1.073643    3.090694
     19          6           0       -4.874545   -1.849065   -1.450832
     20          6           0        2.142923   -1.913638   -0.002995
     21          6           0        2.136267   -0.734893   -0.751540
     22          6           0       -3.608480   -1.146783   -1.939478
     23          6           0        3.118132   -0.219317   -1.700785
     24          6           0       -1.329822   -1.201529    3.668958
     25          6           0       -5.732527   -2.373983    0.887044
     26          6           0        2.544777    0.954117   -2.227948
     27          6           0        2.028995    0.429242    2.934946
     28          6           0        1.341614    1.195907   -1.498046
     29          6           0        4.240195   -0.984907   -2.320591
     30          6           0       -5.876350   -2.051857   -2.261666
     31          6           0        5.528307   -0.666042   -1.462332
     32          6           0        3.068359    1.815353   -3.465292
     33          6           0        0.587989    2.391677   -1.588439
     34          6           0        3.176196    1.135526    3.757255
     35          6           0       -0.690305    2.492894   -0.755259
     36          6           0       -6.950063   -2.879053   -2.112541
     37          6           0        6.748909   -1.549287   -1.763170
     38          6           0       -1.523539    3.703614   -0.574743
     39          6           0       -2.518292    3.259981    0.356650
     40          6           0       -2.234043    1.924359    0.836045
     41          6           0       -1.385200    4.907376   -1.348650
     42          6           0       -3.507609    4.047602    1.009087
     43          6           0       -2.299584    5.878852   -1.511527
     44          1           0       -3.354701   -0.677435    1.052865
     45          1           0       -2.453032   -3.657270    0.557318
     46          1           0       -3.178568   -2.924654    2.137510
     47          1           0       -0.405413   -2.761036   -0.462145
     48          1           0       -1.930473   -0.373150   -0.976745
     49          1           0        1.886882   -1.330652    4.162234
     50          1           0        2.785408   -1.533765    2.783847
     51          1           0        3.162191   -2.547198   -0.306737
     52          1           0       -1.899998   -1.951628    4.129628
     53          1           0       -0.620816   -0.902635    4.507885
     54          1           0       -2.033006   -0.214815    3.448945
     55          1           0       -5.512985   -1.807440    1.797315
     56          1           0       -5.706980   -3.572088    1.096743
     57          1           0       -6.590906   -2.076353    0.542584
     58          1           0        2.024215    0.979624    1.981454
     59          1           0        1.104970    0.821657    3.325332
     60          1           0        0.535744    0.310945    0.102473
     61          1           0        4.350385   -0.855546   -3.328285
     62          1           0        4.034010   -2.161429   -2.219793
     63          1           0       -5.870104   -1.737260   -3.431713
     64          1           0        5.214861   -0.819764   -0.431167
     65          1           0        5.801456    0.312577   -1.777851
     66          1           0        4.246863    1.761325   -3.637649
     67          1           0        2.818204    2.887067   -3.006441
     68          1           0        2.383487    1.556988   -4.353923
     69          1           0        0.761039    3.169056   -2.258100
     70          1           0       -7.139061   -3.289976   -1.062544
     71          1           0       -7.581217   -3.004844   -3.081830
     72          1           0        3.620337    2.755020    4.441941
     73          1           0       -0.473902    5.051181   -1.911151
     74          1           0       -4.699743    4.184919    0.611279
     75          1           0       -3.846419    3.545748    1.985942
     76          1           0       -3.412520    5.226024    1.171062
     77          1           0        8.661931   -1.762725   -1.553493
     78          1           0       -1.871455    6.680041   -2.028062
     79          1           0       -3.647759    5.903901   -1.171185
 ---------------------------------------------------------------------

 SCF Done:  E(RB3LYP) =  -1947.76573086     A.U. after   18 cycles

 Excitation energies and oscillator strengths:

 Excited State   1:      Singlet-A      1.1151 eV 1111.83 nm  f=0.0036  <S**2>=0.000
     155 ->156         0.69971
 This state for optimization and/or second-order correction.
 Total Energy, E(TD-HF/TD-DFT) =  -1947.72475023
 Copying the excited state density for this state as the 1-particle RhoCI density.

 The electronic state is 1-A.
 Alpha  occ. eigenvalues --  -19.21008 -19.19521 -19.14062 -19.13454 -19.13238
 Alpha  occ. eigenvalues --  -19.08680 -14.36487 -14.36106 -14.32936 -14.30110
 Alpha  occ. eigenvalues --  -10.34684 -10.31752 -10.29287 -10.27008 -10.25451
 Alpha  occ. eigenvalues --  -10.24917 -10.24610 -10.23985 -10.22914 -10.22779
 Alpha  occ. eigenvalues --  -10.22777 -10.22735 -10.22525 -10.22464 -10.22119
 Alpha  occ. eigenvalues --  -10.21816 -10.21722 -10.21709 -10.21626 -10.21396
 Alpha  occ. eigenvalues --  -10.20868 -10.20605 -10.20467 -10.19842 -10.19499
 Alpha  occ. eigenvalues --  -10.19458 -10.18921 -10.18646 -10.18340 -10.17549
 Alpha  occ. eigenvalues --  -10.17413 -10.17390 -10.16585  -1.09186  -1.08327
 Alpha  occ. eigenvalues --   -1.04084  -1.01422  -1.00525  -0.99960  -0.95734
 Alpha  occ. eigenvalues --   -0.95273  -0.92334  -0.90397  -0.83621  -0.82507
 Alpha  occ. eigenvalues --   -0.81890  -0.81531  -0.80763  -0.78649  -0.78264
 Alpha  occ. eigenvalues --   -0.77422  -0.76192  -0.74776  -0.73807  -0.71624
 Alpha  occ. eigenvalues --   -0.70475  -0.70231  -0.69744  -0.69653  -0.66702
 Alpha  occ. eigenvalues --   -0.66105  -0.65438  -0.63266  -0.61630  -0.60424
 Alpha  occ. eigenvalues --   -0.59525  -0.58714  -0.58125  -0.57299  -0.56672
 Alpha  occ. eigenvalues --   -0.56109  -0.55611  -0.54529  -0.52802  -0.52601
 Alpha  occ. eigenvalues --   -0.52077  -0.51058  -0.50432  -0.50118  -0.49451
 Alpha  occ. eigenvalues --   -0.49148  -0.48440  -0.48292  -0.48034  -0.47875
 Alpha  occ. eigenvalues --   -0.47082  -0.46781  -0.46432  -0.45901  -0.45723
 Alpha  occ. eigenvalues --   -0.45498  -0.44626  -0.44389  -0.43846  -0.43752
 Alpha  occ. eigenvalues --   -0.43399  -0.42942  -0.42562  -0.42333  -0.42084
 Alpha  occ. eigenvalues --   -0.41987  -0.41473  -0.41267  -0.41146  -0.40849
 Alpha  occ. eigenvalues --   -0.40647  -0.40385  -0.40041  -0.39936  -0.39203
 Alpha  occ. eigenvalues --   -0.38722  -0.38488  -0.38411  -0.38165  -0.38016
 Alpha  occ. eigenvalues --   -0.37714  -0.37331  -0.37005  -0.36954  -0.36195
 Alpha  occ. eigenvalues --   -0.35742  -0.35442  -0.35204  -0.35015  -0.34746
 Alpha  occ. eigenvalues --   -0.33713  -0.33146  -0.32942  -0.31973  -0.31785
 Alpha  occ. eigenvalues --   -0.31449  -0.31357  -0.29647  -0.28950  -0.28013
 Alpha  occ. eigenvalues --   -0.27738  -0.26894  -0.25509  -0.24208  -0.23887
 Alpha  occ. eigenvalues --   -0.23245  -0.22272  -0.22079  -0.21140  -0.19057
 Alpha virt. eigenvalues --   -0.12713  -0.08245  -0.05385  -0.04124  -0.01855
 Alpha virt. eigenvalues --    0.00173   0.00740   0.01712   0.02173   0.02496
 Alpha virt. eigenvalues --    0.02685   0.03386   0.04187   0.04402   0.04564

 Mulliken charges:
               1
     1  O   -0.239311
     2  O   -0.231278
     3  O   -0.203056
     4  O   -0.197852
     5  O   -0.339062
     6  O   -0.180277
     7  N   -0.085305
     8  N   -0.270274
     9  N    0.032504
    10  N   -0.355314
    11  C    0.078595
    12  C    0.157655
    13  C   -0.041230
    14  C   -0.149442
    15  C   -0.057885
    16  C    0.010267
    17  C   -0.190344
    18  C    0.200700
    19  C    0.102934
    20  C   -0.124519
    21  C    0.048281
    22  C    0.144552
    23  C   -0.065067
    24  C    0.034196
    25  C    0.147928
    26  C   -0.140708
    27  C   -0.043504
    28  C    0.127006
    29  C    0.052638
    30  C   -0.160633
    31  C    0.045329
    32  C    0.002385
    33  C   -0.081516
    34  C    0.142805
    35  C    0.061548
    36  C   -0.073840
    37  C    0.195859
    38  C    0.074097
    39  C   -0.101359
    40  C    0.218002
    41  C   -0.044551
    42  C   -0.079278
    43  C   -0.035138
    44  H    0.050208
    45  H    0.001333
    46  H    0.014370
    47  H    0.099635
    48  H    0.152072
    49  H    0.002626
    50  H   -0.030465
    51  H    0.037596
    52  H   -0.013996
    53  H   -0.011820
    54  H    0.070400
    55  H    0.022589
    56  H    0.055311
    57  H   -0.017578
    58  H    0.016149
    59  H    0.022969
    60  H    0.114144
    61  H   -0.005572
    62  H    0.053448
    63  H    0.032350
    64  H    0.058831
    65  H    0.031441
    66  H    0.057081
    67  H    0.054145
    68  H    0.075217
    69  H   -0.043771
    70  H    0.018056
    71  H    0.045458
    72  H    0.213838
    73  H    0.004109
    74  H    0.036687
    75  H    0.037341
    76  H    0.048577
    77  H    0.209007
    78  H    0.013923
    79  H    0.087753
 Sum of Mulliken charges =  -0.00000

 Dipole moment (field-independent basis, Debye):
    X=              2.0872    Y=              4.3664    Z=             -0.1148  Tot=              4.8410
 Quadrupole moment (field-independent basis, Debye-Ang):
   XX=           -228.7234   YY=           -235.4814   ZZ=           -266.3509
   XY=              9.9955   XZ=            -19.8328   YZ=             -7.9602

 Normal termination of Gaussian 16 at Sun Jul 28 22:45:03 2019.
