 Gaussian 16, Revision A.03,
 Gaussian 16:  ES64L-G16RevA.03 25-Dec-2016

 --------------------------
 # td=(NStates=1) B3LYP/SVP
 --------------------------

 --
 TD
 --
 Symbolic Z-matrix:
 Charge =  0 Multiplicity = 1

                         Standard orientation:
 ---------------------------------------------------------------------
 Center     Atomic      Atomic             Coordinates (Angstroms)
 Number     Number       Type             X           Y           Z
 ---------------------------------------------------------------------
      1          8           0       -3.167743   -1.437043   -2.873164
      2          8           0        3.016141    3.131346    3.091807
      3          8           0        3.769297    1.380127    4.255743
      4          8           0        7.717595   -1.702551   -0.598640
      5          8           0        6.580093   -3.051579   -2.008483
      6          8           0       -2.621897    1.615739    1.472953
      7          7           0       -0.261021   -2.329256    0.879214
      8          7           0       -2.609232   -1.382081   -0.605993
      9          7           0        1.085025    0.201339   -0.816881
     10          7           0       -0.952742    1.468238   -0.141721
     11          6           0       -3.340932   -1.367943    0.673585
     12          6           0       -2.629789   -2.390676    1.601142
     13          6           0       -1.234820   -1.995087    1.823906
     14          6           0       -0.586506   -1.263894    2.758727
     15          6           0        0.770970   -1.105542    2.499147
     16          6           0        0.957117   -1.880828    1.217094
     17          6           0       -4.709229   -1.913752    0.265787
     18          6           0        1.828235   -0.336695    3.208237
     19          6           0       -4.800269   -2.058652   -1.046574
     20          6           0        1.964843   -1.853113    0.169906
     21          6           0        2.053962   -0.812772   -0.717431
     22          6           0       -3.430130   -1.583490   -1.742830
     23          6           0        3.011006   -0.642869   -1.723190
     24          6           0       -1.316161   -0.578953    3.812554
     25          6           0       -5.732787   -2.067695    1.307295
     26          6           0        2.541904    0.442683   -2.389505
     27          6           0        1.935287    1.089742    2.689994
     28          6           0        1.348660    1.001800   -1.734180
     29          6           0        4.270723   -1.403769   -2.138343
     30          6           0       -5.914097   -2.436930   -2.033616
     31          6           0        5.481805   -1.042161   -1.203859
     32          6           0        3.080300    1.121529   -3.564866
     33          6           0        0.484106    2.047717   -1.990026
     34          6           0        2.988159    1.815941    3.425714
     35          6           0       -0.583842    2.300348   -1.234767
     36          6           0       -6.878656   -3.264864   -1.660717
     37          6           0        6.581495   -2.083524   -1.285296
     38          6           0       -1.392553    3.442472   -1.247831
     39          6           0       -2.339904    3.335349   -0.205608
     40          6           0       -2.028184    2.117786    0.535590
     41          6           0       -1.361202    4.545886   -2.191719
     42          6           0       -3.467007    4.316763    0.273937
     43          6           0       -1.735119    5.877794   -2.250264
     44          1           0       -3.661695   -0.378238    0.947349
     45          1           0       -2.664320   -3.435075    1.279213
     46          1           0       -2.994744   -2.616535    2.612077
     47          1           0       -0.345945   -2.874153   -0.012315
     48          1           0       -1.991453   -0.569907   -0.841450
     49          1           0        1.546299   -0.194171    4.195485
     50          1           0        2.707582   -0.853312    2.886381
     51          1           0        2.786643   -2.602856    0.326415
     52          1           0       -2.264598   -0.957222    4.153858
     53          1           0       -0.782140   -0.210078    4.722523
     54          1           0       -1.703784    0.396665    3.282985
     55          1           0       -5.359478   -1.591634    2.166523
     56          1           0       -6.110777   -3.011113    1.836874
     57          1           0       -6.807270   -1.691758    1.101760
     58          1           0        2.086319    1.083277    1.695894
     59          1           0        1.046649    1.557383    2.991090
     60          1           0        0.158736    0.368069   -0.179621
     61          1           0        4.523760   -1.326195   -3.312263
     62          1           0        4.066230   -2.395987   -2.081336
     63          1           0       -5.658150   -1.830415   -2.879716
     64          1           0        5.227880   -0.955216   -0.113793
     65          1           0        6.011518   -0.077751   -1.400845
     66          1           0        3.928711    0.487703   -4.031419
     67          1           0        3.482573    1.962284   -3.284422
     68          1           0        2.397216    1.248880   -4.261401
     69          1           0        0.950803    2.609863   -2.569024
     70          1           0       -6.732482   -3.727352   -0.601875
     71          1           0       -7.822160   -3.539045   -2.540378
     72          1           0        3.590758    3.627116    3.835683
     73          1           0       -0.690084    4.265385   -3.058221
     74          1           0       -4.112369    4.820193   -0.585069
     75          1           0       -4.079138    3.615696    0.917194
     76          1           0       -3.219609    5.094479    0.829299
     77          1           0        8.392878   -2.457143   -0.569748
     78          1           0       -1.585488    6.410659   -3.225530
     79          1           0       -2.405284    6.315913   -1.568194
 ---------------------------------------------------------------------

 SCF Done:  E(RB3LYP) =  -1947.80630603     A.U. after   17 cycles

 Excitation energies and oscillator strengths:

 Excited State   1:      Singlet-A      0.9323 eV 1329.81 nm  f=0.0018  <S**2>=0.000
     155 ->156         0.70163
 This state for optimization and/or second-order correction.
 Total Energy, E(TD-HF/TD-DFT) =  -1947.77204305
 Copying the excited state density for this state as the 1-particle RhoCI density.

 The electronic state is 1-A.
 Alpha  occ. eigenvalues --  -19.18844 -19.17609 -19.13983 -19.11846 -19.11792
 Alpha  occ. eigenvalues --  -19.10712 -14.36844 -14.36525 -14.32793 -14.30302
 Alpha  occ. eigenvalues --  -10.33329 -10.30975 -10.27729 -10.27485 -10.25439
 Alpha  occ. eigenvalues --  -10.25085 -10.24205 -10.23385 -10.23255 -10.23056
 Alpha  occ. eigenvalues --  -10.22458 -10.22096 -10.21842 -10.21627 -10.21591
 Alpha  occ. eigenvalues --  -10.21406 -10.20730 -10.20613 -10.20583 -10.19979
 Alpha  occ. eigenvalues --  -10.19611 -10.19451 -10.19396 -10.18972 -10.18903
 Alpha  occ. eigenvalues --  -10.18876 -10.18609 -10.18112 -10.18068 -10.17661
 Alpha  occ. eigenvalues --  -10.17161 -10.16866 -10.15923  -1.09354  -1.07900
 Alpha  occ. eigenvalues --   -1.04354  -1.02999  -1.02634  -1.00935  -0.98527
 Alpha  occ. eigenvalues --   -0.96553  -0.92467  -0.91688  -0.85271  -0.82990
 Alpha  occ. eigenvalues --   -0.81408  -0.80201  -0.80052  -0.79744  -0.79476
 Alpha  occ. eigenvalues --   -0.77589  -0.76554  -0.75219  -0.74702  -0.74033
 Alpha  occ. eigenvalues --   -0.71283  -0.70170  -0.69875  -0.69096  -0.68137
 Alpha  occ. eigenvalues --   -0.66852  -0.66140  -0.64304  -0.61587  -0.60836
 Alpha  occ. eigenvalues --   -0.60229  -0.58574  -0.58306  -0.58044  -0.57255
 Alpha  occ. eigenvalues --   -0.55864  -0.55025  -0.54808  -0.53683  -0.53454
 Alpha  occ. eigenvalues --   -0.52142  -0.51992  -0.51204  -0.50611  -0.49885
 Alpha  occ. eigenvalues --   -0.49425  -0.49161  -0.49022  -0.48474  -0.48361
 Alpha  occ. eigenvalues --   -0.47783  -0.47125  -0.46730  -0.46586  -0.45582
 Alpha  occ. eigenvalues --   -0.45339  -0.44977  -0.44619  -0.44230  -0.44053
 Alpha  occ. eigenvalues --   -0.43862  -0.43265  -0.43020  -0.42609  -0.42438
 Alpha  occ. eigenvalues --   -0.42319  -0.42136  -0.41699  -0.41339  -0.41295
 Alpha  occ. eigenvalues --   -0.40995  -0.40296  -0.40147  -0.39836  -0.39688
 Alpha  occ. eigenvalues --   -0.39569  -0.39222  -0.38422  -0.38194  -0.37883
 Alpha  occ. eigenvalues --   -0.37610  -0.37599  -0.37458  -0.36995  -0.36648
 Alpha  occ. eigenvalues --   -0.36402  -0.35842  -0.35753  -0.35128  -0.34841
 Alpha  occ. eigenvalues --   -0.34641  -0.33768  -0.33281  -0.32139  -0.31419
 Alpha  occ. eigenvalues --   -0.31338  -0.29774  -0.29491  -0.29098  -0.28801
 Alpha  occ. eigenvalues --   -0.27453  -0.27135  -0.26650  -0.25582  -0.24390
 Alpha  occ. eigenvalues --   -0.23748  -0.23278  -0.22446  -0.22086  -0.18658
 Alpha virt. eigenvalues --   -0.12624  -0.07992  -0.02798  -0.01797  -0.01267
 Alpha virt. eigenvalues --    0.00628   0.02022   0.02510   0.02810   0.03454
 Alpha virt. eigenvalues --    0.03812   0.04612   0.04882   0.04992   0.05626

 Mulliken charges:
               1
     1  O   -0.166925
     2  O   -0.242849
     3  O   -0.238779
     4  O   -0.239435
     5  O   -0.215123
     6  O   -0.209853
     7  N   -0.064007
     8  N   -0.261371
     9  N   -0.054584
    10  N   -0.406174
    11  C    0.145799
    12  C    0.235274
    13  C   -0.102541
    14  C   -0.070302
    15  C   -0.159265
    16  C   -0.069674
    17  C   -0.172292
    18  C    0.242273
    19  C   -0.145059
    20  C   -0.153962
    21  C    0.129444
    22  C    0.126194
    23  C   -0.036363
    24  C    0.037499
    25  C    0.037968
    26  C   -0.189134
    27  C    0.085612
    28  C   -0.008745
    29  C    0.154958
    30  C    0.070831
    31  C   -0.021617
    32  C    0.247353
    33  C   -0.017061
    34  C    0.117705
    35  C    0.239855
    36  C   -0.088734
    37  C    0.139006
    38  C    0.057053
    39  C   -0.179476
    40  C    0.189202
    41  C   -0.058207
    42  C    0.085191
    43  C   -0.012162
    44  H    0.049785
    45  H   -0.022021
    46  H   -0.010589
    47  H    0.126465
    48  H    0.138045
    49  H   -0.032431
    50  H   -0.015930
    51  H    0.029014
    52  H   -0.017842
    53  H   -0.000253
    54  H    0.045350
    55  H   -0.009493
    56  H    0.028251
    57  H    0.035186
    58  H   -0.009662
    59  H    0.019590
    60  H    0.242701
    61  H    0.050761
    62  H   -0.014576
    63  H    0.001465
    64  H    0.052528
    65  H    0.052071
    66  H    0.005393
    67  H   -0.015057
    68  H   -0.012424
    69  H   -0.136744
    70  H    0.053041
    71  H    0.056458
    72  H    0.217616
    73  H    0.002893
    74  H    0.038486
    75  H    0.038360
    76  H    0.003695
    77  H    0.209031
    78  H    0.039897
    79  H    0.003420
 Sum of Mulliken charges =  -0.00000

 Dipole moment (field-independent basis, Debye):
    X=              3.0619    Y=              2.6402    Z=             -1.0168  Tot=              4.1689
 Quadrupole moment (field-independent basis, Debye-Ang):
   XX=           -237.2695   YY=           -237.2654   ZZ=           -264.6089
   XY=             -0.0801   XZ=            -19.7161   YZ=            -11.6664

 Normal termination of Gaussian 16 at Tue Jul 30 10:22:36 2019.
