 Gaussian 16, Revision A.03,
 Gaussian 16:  ES64L-G16RevA.03 25-Dec-2016

 --------------------------
 # td=(NStates=1) B3LYP/SVP
 --------------------------

 --
 TD
 --
 Symbolic Z-matrix:
 Charge =  0 Multiplicity = 1

                         Standard orientation:
 ---------------------------------------------------------------------
 Center     Atomic      Atomic             Coordinates (Angstroms)
 Number     Number       Type             X           Y           Z
 ---------------------------------------------------------------------
      1          8           0       -3.153580   -1.423378   -2.874994
      2          8           0        2.768647    3.171382    3.161642
      3          8           0        3.233010    1.610982    4.734363
      4          8           0        7.715609   -1.513374   -0.586372
      5          8           0        6.768754   -2.938329   -2.066792
      6          8           0       -2.496276    1.620540    1.442448
      7          7           0       -0.186308   -2.467221    0.998353
      8          7           0       -2.568514   -1.336025   -0.625724
      9          7           0        1.183611    0.121462   -0.742053
     10          7           0       -0.984547    1.458680   -0.171807
     11          6           0       -3.277680   -1.445854    0.633460
     12          6           0       -2.575764   -2.337597    1.597842
     13          6           0       -1.180140   -2.007224    1.826066
     14          6           0       -0.531779   -1.155610    2.793275
     15          6           0        0.826454   -1.060919    2.514262
     16          6           0        0.973195   -1.852517    1.307146
     17          6           0       -4.685110   -1.866168    0.204374
     18          6           0        1.874021   -0.235978    3.121804
     19          6           0       -4.678443   -2.149055   -1.161260
     20          6           0        2.224615   -1.777539    0.466899
     21          6           0        2.165471   -0.920953   -0.670091
     22          6           0       -3.443234   -1.578053   -1.718430
     23          6           0        3.049738   -0.663589   -1.738411
     24          6           0       -1.308856   -0.553635    3.967121
     25          6           0       -5.681598   -2.176585    1.299772
     26          6           0        2.536078    0.489276   -2.378047
     27          6           0        1.706630    1.104938    2.799184
     28          6           0        1.459676    0.974462   -1.753197
     29          6           0        4.294697   -1.389777   -2.157446
     30          6           0       -5.681050   -2.669318   -1.937617
     31          6           0        5.528886   -1.009567   -1.236016
     32          6           0        3.193764    1.151855   -3.668735
     33          6           0        0.491709    1.973487   -2.041528
     34          6           0        2.630263    1.992987    3.692100
     35          6           0       -0.619640    2.266106   -1.283475
     36          6           0       -6.861115   -3.214636   -1.665254
     37          6           0        6.629963   -1.951017   -1.438863
     38          6           0       -1.462739    3.483845   -1.353885
     39          6           0       -2.295953    3.407703   -0.222415
     40          6           0       -1.958334    2.076923    0.434113
     41          6           0       -1.447064    4.396695   -2.479728
     42          6           0       -3.449886    4.177670    0.281336
     43          6           0       -2.165292    5.520329   -2.668670
     44          1           0       -3.398092   -0.305891    0.995490
     45          1           0       -2.540382   -3.204929    1.128561
     46          1           0       -3.159466   -2.316072    2.545091
     47          1           0       -0.339184   -2.619555   -0.048442
     48          1           0       -1.794827   -0.548463   -0.661348
     49          1           0        1.680054   -0.398752    4.087240
     50          1           0        2.906497   -0.557183    2.680153
     51          1           0        2.764390   -2.681514    0.601555
     52          1           0       -1.927998   -1.268883    4.307721
     53          1           0       -0.720783   -0.172898    4.771749
     54          1           0       -2.018942    0.288519    3.470776
     55          1           0       -5.484009   -1.626038    2.028973
     56          1           0       -5.918078   -3.212524    1.532759
     57          1           0       -6.771915   -1.915095    0.975877
     58          1           0        1.937213    1.077628    1.699266
     59          1           0        0.938015    1.593369    3.237575
     60          1           0        0.380944    0.238428   -0.065200
     61          1           0        4.651467   -1.497426   -3.058939
     62          1           0        3.969152   -2.411157   -1.876046
     63          1           0       -5.392942   -2.451802   -2.973605
     64          1           0        5.382637   -1.272122   -0.295625
     65          1           0        5.834925    0.063699   -1.212737
     66          1           0        4.209699    0.823811   -4.192512
     67          1           0        3.454887    2.231356   -3.344700
     68          1           0        2.400256    1.232004   -4.483673
     69          1           0        0.702238    2.269297   -2.984113
     70          1           0       -7.198376   -3.488486   -0.815491
     71          1           0       -7.474347   -3.806201   -2.465742
     72          1           0        3.223452    3.734595    3.849008
     73          1           0       -0.848650    4.296238   -3.304121
     74          1           0       -4.213609    4.497385   -0.497196
     75          1           0       -3.896285    3.887094    1.116907
     76          1           0       -3.084220    5.321676    0.492844
     77          1           0        8.294537   -2.393897   -0.456313
     78          1           0       -2.208198    5.953184   -3.743207
     79          1           0       -2.827969    5.975649   -1.930404
 ---------------------------------------------------------------------

 SCF Done:  E(RB3LYP) =  -1947.75039703     A.U. after   23 cycles

 Excitation energies and oscillator strengths:

 Excited State   1:      Singlet-A      0.4467 eV 2775.69 nm  f=0.0005  <S**2>=0.000
     155 ->156         0.70494
 This state for optimization and/or second-order correction.
 Total Energy, E(TD-HF/TD-DFT) =  -1947.73398191
 Copying the excited state density for this state as the 1-particle RhoCI density.

 The electronic state is 1-A.
 Alpha  occ. eigenvalues --  -19.19656 -19.17231 -19.15357 -19.11799 -19.10505
 Alpha  occ. eigenvalues --  -19.08552 -14.37594 -14.37358 -14.32630 -14.30392
 Alpha  occ. eigenvalues --  -10.33366 -10.31653 -10.27140 -10.26588 -10.26537
 Alpha  occ. eigenvalues --  -10.26240 -10.25638 -10.24655 -10.24010 -10.23788
 Alpha  occ. eigenvalues --  -10.23198 -10.22378 -10.22225 -10.21991 -10.21832
 Alpha  occ. eigenvalues --  -10.21669 -10.20886 -10.20797 -10.20664 -10.20589
 Alpha  occ. eigenvalues --  -10.20443 -10.20263 -10.19715 -10.18716 -10.18658
 Alpha  occ. eigenvalues --  -10.18143 -10.18014 -10.17818 -10.17282 -10.17273
 Alpha  occ. eigenvalues --  -10.17078 -10.16961 -10.16863  -1.10927  -1.09880
 Alpha  occ. eigenvalues --   -1.02174  -1.01345  -1.00599  -0.99488  -0.98154
 Alpha  occ. eigenvalues --   -0.97274  -0.92764  -0.91312  -0.84827  -0.83539
 Alpha  occ. eigenvalues --   -0.82685  -0.81476  -0.80836  -0.80508  -0.79154
 Alpha  occ. eigenvalues --   -0.77466  -0.76670  -0.76420  -0.75340  -0.73786
 Alpha  occ. eigenvalues --   -0.71507  -0.70796  -0.70464  -0.70319  -0.68323
 Alpha  occ. eigenvalues --   -0.67173  -0.66142  -0.63649  -0.61692  -0.60801
 Alpha  occ. eigenvalues --   -0.60252  -0.59564  -0.59129  -0.57758  -0.57240
 Alpha  occ. eigenvalues --   -0.56059  -0.55397  -0.55246  -0.54051  -0.53420
 Alpha  occ. eigenvalues --   -0.52717  -0.52699  -0.52267  -0.51787  -0.50626
 Alpha  occ. eigenvalues --   -0.50183  -0.49507  -0.49070  -0.48722  -0.48644
 Alpha  occ. eigenvalues --   -0.48188  -0.47552  -0.47224  -0.46609  -0.46011
 Alpha  occ. eigenvalues --   -0.45699  -0.45325  -0.44781  -0.44364  -0.44283
 Alpha  occ. eigenvalues --   -0.43642  -0.43502  -0.42999  -0.42697  -0.42381
 Alpha  occ. eigenvalues --   -0.42211  -0.42062  -0.41576  -0.41461  -0.41327
 Alpha  occ. eigenvalues --   -0.41241  -0.40712  -0.40614  -0.40348  -0.40146
 Alpha  occ. eigenvalues --   -0.39673  -0.39529  -0.38882  -0.38557  -0.38311
 Alpha  occ. eigenvalues --   -0.38173  -0.37984  -0.37446  -0.37090  -0.36975
 Alpha  occ. eigenvalues --   -0.36738  -0.36269  -0.35710  -0.35259  -0.34824
 Alpha  occ. eigenvalues --   -0.33531  -0.33124  -0.32691  -0.31955  -0.31872
 Alpha  occ. eigenvalues --   -0.31365  -0.30528  -0.30112  -0.29191  -0.28827
 Alpha  occ. eigenvalues --   -0.27528  -0.26852  -0.25375  -0.24532  -0.24102
 Alpha  occ. eigenvalues --   -0.23338  -0.23185  -0.22532  -0.22124  -0.18616
 Alpha virt. eigenvalues --   -0.14194  -0.08477  -0.05164  -0.02184  -0.01132
 Alpha virt. eigenvalues --    0.00497   0.01252   0.01730   0.02689   0.03125
 Alpha virt. eigenvalues --    0.03802   0.04158   0.04818   0.05074   0.05400

 Mulliken charges:
               1
     1  O   -0.213895
     2  O   -0.138015
     3  O   -0.282433
     4  O   -0.320087
     5  O   -0.166123
     6  O   -0.227908
     7  N   -0.027055
     8  N   -0.295541
     9  N   -0.151823
    10  N   -0.282823
    11  C   -0.023402
    12  C    0.409057
    13  C   -0.177649
    14  C   -0.125020
    15  C   -0.147818
    16  C   -0.162089
    17  C   -0.186804
    18  C    0.250137
    19  C   -0.039097
    20  C   -0.008974
    21  C    0.093254
    22  C    0.161774
    23  C   -0.049834
    24  C    0.111832
    25  C    0.172963
    26  C   -0.095409
    27  C    0.059016
    28  C    0.071895
    29  C    0.161711
    30  C    0.004450
    31  C    0.078687
    32  C   -0.007231
    33  C   -0.036978
    34  C    0.095743
    35  C    0.160657
    36  C    0.006277
    37  C    0.122319
    38  C    0.121926
    39  C   -0.182399
    40  C    0.126705
    41  C   -0.003778
    42  C    0.103974
    43  C   -0.065375
    44  H    0.074079
    45  H   -0.086180
    46  H   -0.015564
    47  H    0.144769
    48  H    0.171486
    49  H   -0.044398
    50  H   -0.000125
    51  H    0.024903
    52  H   -0.025571
    53  H   -0.007013
    54  H    0.060061
    55  H   -0.046856
    56  H    0.032604
    57  H    0.021361
    58  H    0.033381
    59  H   -0.004077
    60  H    0.214307
    61  H   -0.027484
    62  H    0.015401
    63  H   -0.004690
    64  H   -0.008337
    65  H    0.063066
    66  H    0.056786
    67  H    0.042043
    68  H    0.054590
    69  H   -0.066496
    70  H   -0.068766
    71  H    0.028006
    72  H    0.190054
    73  H   -0.041164
    74  H    0.036376
    75  H   -0.008012
    76  H    0.029621
    77  H    0.214112
    78  H    0.042343
    79  H    0.010564
 Sum of Mulliken charges =  -0.00000

 Dipole moment (field-independent basis, Debye):
    X=              2.7668    Y=              2.7696    Z=             -1.2536  Tot=              4.1107
 Quadrupole moment (field-independent basis, Debye-Ang):
   XX=           -244.7575   YY=           -233.8975   ZZ=           -268.5618
   XY=              0.4308   XZ=            -22.5723   YZ=            -12.9689

 Normal termination of Gaussian 16 at Wed Jul 31 05:23:29 2019.
