 Gaussian 16, Revision A.03,
 Gaussian 16:  ES64L-G16RevA.03 25-Dec-2016

 --------------------------
 # td=(NStates=1) B3LYP/SVP
 --------------------------

 --
 TD
 --
 Symbolic Z-matrix:
 Charge =  0 Multiplicity = 1

                         Standard orientation:
 ---------------------------------------------------------------------
 Center     Atomic      Atomic             Coordinates (Angstroms)
 Number     Number       Type             X           Y           Z
 ---------------------------------------------------------------------
      1          8           0        5.257024    0.070103   -3.225057
      2          8           0       -3.169130   -2.857453    3.276375
      3          8           0       -3.361522   -0.578699    2.971191
      4          8           0       -1.524933    7.212656    1.460576
      5          8           0       -0.322339    6.953784   -0.461600
      6          8           0       -1.819272   -3.897131    0.068701
      7          7           0        2.372591    0.920123    0.719313
      8          7           0        4.240583   -0.572069   -1.228924
      9          7           0       -1.893344    0.652945   -0.449744
     10          7           0       -2.518630   -1.872059   -0.599022
     11          6           0        4.746081   -1.232280    0.025934
     12          6           0        4.412844   -0.436261    1.266900
     13          6           0        2.995082   -0.158949    1.406369
     14          6           0        1.942891   -0.751160    2.123963
     15          6           0        0.642501   -0.091133    1.839174
     16          6           0        0.976358    0.985570    0.979396
     17          6           0        6.179083   -1.443044   -0.140275
     18          6           0       -0.614813   -0.204325    2.620635
     19          6           0        6.554510   -0.994259   -1.400005
     20          6           0        0.216849    1.939985    0.289552
     21          6           0       -1.122362    1.882937   -0.227941
     22          6           0        5.281665   -0.461605   -2.101983
     23          6           0       -1.906003    2.896975   -0.791190
     24          6           0        2.201963   -1.842383    3.068200
     25          6           0        6.935215   -2.240547    0.877384
     26          6           0       -3.034615    2.392992   -1.313037
     27          6           0       -1.247563   -1.660350    2.568711
     28          6           0       -2.990718    0.915366   -1.108092
     29          6           0       -1.403132    4.368722   -0.929263
     30          6           0        7.872321   -0.822143   -2.026341
     31          6           0       -1.560176    5.108866    0.349939
     32          6           0       -4.228575    3.158382   -1.958726
     33          6           0       -3.840689   -0.085611   -1.445708
     34          6           0       -2.661046   -1.520960    2.990769
     35          6           0       -3.641040   -1.384360   -1.204384
     36          6           0        9.136602   -0.836266   -1.583039
     37          6           0       -1.054460    6.489974    0.460979
     38          6           0       -4.588811   -2.606737   -1.586681
     39          6           0       -3.903011   -3.734915   -1.055311
     40          6           0       -2.628473   -3.285569   -0.490580
     41          6           0       -5.809172   -2.346256   -2.130886
     42          6           0       -4.387280   -5.179089   -1.083706
     43          6           0       -6.738245   -3.269476   -2.600480
     44          1           0        4.401387   -2.276317    0.068412
     45          1           0        4.766653    0.571206    1.343340
     46          1           0        4.757458   -0.834205    2.196466
     47          1           0        2.879866    1.393194   -0.120976
     48          1           0        3.227446   -0.870436   -1.540722
     49          1           0       -0.487742    0.055961    3.741865
     50          1           0       -1.523798    0.383507    2.068859
     51          1           0        0.635725    3.039632    0.387653
     52          1           0        3.424354   -2.073084    2.904081
     53          1           0        1.901821   -1.726700    4.126652
     54          1           0        1.674216   -2.715336    2.495583
     55          1           0        6.365997   -3.105451    1.434168
     56          1           0        7.512526   -1.671547    1.571906
     57          1           0        7.904230   -2.407064    0.228477
     58          1           0       -1.132870   -2.237235    1.571385
     59          1           0       -0.946951   -2.519027    3.275313
     60          1           0       -1.724238   -0.289556   -0.391097
     61          1           0       -1.776689    4.879836   -1.635290
     62          1           0       -0.384604    4.413235   -1.231466
     63          1           0        7.814728   -0.341707   -3.088874
     64          1           0       -1.135450    4.479164    1.267527
     65          1           0       -2.468366    5.207118    0.711774
     66          1           0       -4.225415    4.161020   -2.004525
     67          1           0       -5.077675    2.785620   -1.374573
     68          1           0       -4.188816    2.917622   -3.116054
     69          1           0       -4.859601    0.133292   -1.834289
     70          1           0        9.458539   -0.929826   -0.466849
     71          1           0        9.931734   -0.814713   -2.383856
     72          1           0       -4.071968   -2.823195    3.418471
     73          1           0       -6.249415   -1.358059   -2.087334
     74          1           0       -5.440821   -5.189709   -0.543356
     75          1           0       -4.418582   -5.463043   -2.057043
     76          1           0       -3.684679   -5.790927   -0.586941
     77          1           0       -0.948744    7.965532    1.469532
     78          1           0       -7.533424   -3.018042   -3.329122
     79          1           0       -6.666551   -4.371979   -2.443597
 ---------------------------------------------------------------------

 SCF Done:  E(RB3LYP) =  -1947.82840086     A.U. after   18 cycles

 Excitation energies and oscillator strengths:

 Excited State   1:      Singlet-A      2.0538 eV  603.67 nm  f=0.3893  <S**2>=0.000
     154 ->156         0.15005
     155 ->156         0.68407
 This state for optimization and/or second-order correction.
 Total Energy, E(TD-HF/TD-DFT) =  -1947.75292383
 Copying the excited state density for this state as the 1-particle RhoCI density.

 The electronic state is 1-A.
 Alpha  occ. eigenvalues --  -19.20387 -19.14000 -19.12626 -19.12462 -19.10178
 Alpha  occ. eigenvalues --  -19.09938 -14.37915 -14.36975 -14.35626 -14.27871
 Alpha  occ. eigenvalues --  -10.32760 -10.30386 -10.29195 -10.25530 -10.25193
 Alpha  occ. eigenvalues --  -10.25146 -10.24147 -10.23136 -10.23096 -10.22851
 Alpha  occ. eigenvalues --  -10.22738 -10.22535 -10.22294 -10.21484 -10.21376
 Alpha  occ. eigenvalues --  -10.21281 -10.20940 -10.20881 -10.20844 -10.20794
 Alpha  occ. eigenvalues --  -10.20791 -10.20603 -10.20575 -10.20393 -10.20381
 Alpha  occ. eigenvalues --  -10.20160 -10.19890 -10.19723 -10.19385 -10.19202
 Alpha  occ. eigenvalues --  -10.19128 -10.18528 -10.17805  -1.12092  -1.07340
 Alpha  occ. eigenvalues --   -1.04395  -1.01455  -0.99254  -0.99192  -0.99159
 Alpha  occ. eigenvalues --   -0.95883  -0.93858  -0.89953  -0.84124  -0.82936
 Alpha  occ. eigenvalues --   -0.81725  -0.80486  -0.80076  -0.79638  -0.79317
 Alpha  occ. eigenvalues --   -0.77547  -0.76176  -0.75791  -0.74746  -0.72967
 Alpha  occ. eigenvalues --   -0.71541  -0.71108  -0.70522  -0.68960  -0.68567
 Alpha  occ. eigenvalues --   -0.67270  -0.65898  -0.64120  -0.61704  -0.61137
 Alpha  occ. eigenvalues --   -0.60821  -0.59109  -0.58069  -0.57299  -0.56439
 Alpha  occ. eigenvalues --   -0.56359  -0.54829  -0.54292  -0.53638  -0.52778
 Alpha  occ. eigenvalues --   -0.51958  -0.51414  -0.51098  -0.50667  -0.50127
 Alpha  occ. eigenvalues --   -0.49170  -0.49095  -0.48616  -0.48026  -0.47415
 Alpha  occ. eigenvalues --   -0.47176  -0.46901  -0.46593  -0.46211  -0.45840
 Alpha  occ. eigenvalues --   -0.45268  -0.44978  -0.44445  -0.44224  -0.44035
 Alpha  occ. eigenvalues --   -0.43817  -0.43651  -0.43310  -0.42898  -0.42357
 Alpha  occ. eigenvalues --   -0.42170  -0.42000  -0.41479  -0.41441  -0.41218
 Alpha  occ. eigenvalues --   -0.40945  -0.40752  -0.40566  -0.40365  -0.39948
 Alpha  occ. eigenvalues --   -0.39857  -0.39817  -0.38980  -0.38837  -0.38043
 Alpha  occ. eigenvalues --   -0.37500  -0.37245  -0.36878  -0.36710  -0.36588
 Alpha  occ. eigenvalues --   -0.35992  -0.35889  -0.35775  -0.35224  -0.34498
 Alpha  occ. eigenvalues --   -0.34291  -0.33710  -0.32286  -0.31928  -0.31161
 Alpha  occ. eigenvalues --   -0.31029  -0.30628  -0.28342  -0.27899  -0.27548
 Alpha  occ. eigenvalues --   -0.27408  -0.26732  -0.26580  -0.25692  -0.24024
 Alpha  occ. eigenvalues --   -0.23874  -0.23602  -0.23362  -0.21372  -0.19128
 Alpha virt. eigenvalues --   -0.10707  -0.07285  -0.06442  -0.01449  -0.00927
 Alpha virt. eigenvalues --   -0.00278   0.01035   0.01421   0.02103   0.03676
 Alpha virt. eigenvalues --    0.03890   0.04123   0.04963   0.05128   0.05501

 Mulliken charges:
               1
     1  O   -0.240112
     2  O   -0.245061
     3  O   -0.177106
     4  O   -0.122588
     5  O   -0.291221
     6  O   -0.140182
     7  N   -0.181671
     8  N   -0.227971
     9  N   -0.012363
    10  N   -0.334826
    11  C    0.084309
    12  C    0.269244
    13  C   -0.094030
    14  C   -0.150850
    15  C   -0.030242
    16  C    0.092609
    17  C   -0.165936
    18  C    0.005523
    19  C   -0.051548
    20  C   -0.091642
    21  C    0.086162
    22  C    0.162556
    23  C   -0.089208
    24  C    0.010683
    25  C    0.073374
    26  C   -0.144337
    27  C   -0.095931
    28  C    0.064799
    29  C    0.308100
    30  C   -0.036110
    31  C    0.022163
    32  C    0.136459
    33  C   -0.096754
    34  C    0.153141
    35  C    0.037829
    36  C   -0.080891
    37  C    0.118196
    38  C    0.156212
    39  C   -0.245436
    40  C    0.141027
    41  C   -0.100368
    42  C    0.148268
    43  C   -0.071581
    44  H    0.025160
    45  H   -0.013661
    46  H   -0.012286
    47  H    0.150313
    48  H    0.181937
    49  H    0.035588
    50  H    0.068736
    51  H    0.040497
    52  H    0.004817
    53  H    0.044266
    54  H    0.058151
    55  H    0.066296
    56  H    0.018143
    57  H    0.030870
    58  H    0.108067
    59  H    0.036534
    60  H    0.078260
    61  H   -0.079998
    62  H   -0.002215
    63  H    0.045593
    64  H    0.046295
    65  H   -0.031784
    66  H   -0.022911
    67  H    0.043248
    68  H    0.040814
    69  H   -0.032271
    70  H    0.031822
    71  H    0.045897
    72  H    0.139785
    73  H    0.006457
    74  H    0.045483
    75  H    0.009038
    76  H    0.004789
    77  H    0.173907
    78  H    0.034570
    79  H    0.027108
 Sum of Mulliken charges =  -0.00000

 Dipole moment (field-independent basis, Debye):
    X=              0.4103    Y=              1.5251    Z=              3.2808  Tot=              3.6412
 Quadrupole moment (field-independent basis, Debye-Ang):
   XX=           -219.2256   YY=           -247.3671   ZZ=           -261.3776
   XY=            -13.4845   XZ=             34.2765   YZ=             10.6403

 Normal termination of Gaussian 16 at Fri Sep 20 07:27:44 2019.
