 Gaussian 16, Revision A.03,
 Gaussian 16:  ES64L-G16RevA.03 25-Dec-2016

 --------------------------
 # td=(NStates=1) B3LYP/SVP
 --------------------------

 --
 TD
 --
 Symbolic Z-matrix:
 Charge =  0 Multiplicity = 1

                         Standard orientation:
 ---------------------------------------------------------------------
 Center     Atomic      Atomic             Coordinates (Angstroms)
 Number     Number       Type             X           Y           Z
 ---------------------------------------------------------------------
      1          8           0       -3.288685   -1.577256   -2.754861
      2          8           0        2.843474    3.462146    2.992774
      3          8           0        3.729421    1.723102    4.151862
      4          8           0        7.633243   -1.655995   -0.461484
      5          8           0        6.777553   -3.079458   -2.057959
      6          8           0       -2.568473    1.739793    1.436204
      7          7           0       -0.183956   -2.355103    1.114646
      8          7           0       -2.456270   -1.273374   -0.517167
      9          7           0        1.107270   -0.010004   -0.699247
     10          7           0       -1.090638    1.382600   -0.364040
     11          6           0       -3.314076   -1.393158    0.748841
     12          6           0       -2.563918   -2.347333    1.762298
     13          6           0       -1.125449   -2.006928    1.985429
     14          6           0       -0.528621   -1.102126    2.939934
     15          6           0        0.837149   -1.008518    2.641201
     16          6           0        1.021560   -1.791786    1.368350
     17          6           0       -4.659374   -1.989966    0.374325
     18          6           0        1.877377   -0.165228    3.086756
     19          6           0       -4.768265   -2.140466   -0.931993
     20          6           0        2.061625   -1.801805    0.462967
     21          6           0        2.038318   -0.921267   -0.563838
     22          6           0       -3.436482   -1.610557   -1.566443
     23          6           0        2.981317   -0.727089   -1.716497
     24          6           0       -1.186877   -0.224919    3.947494
     25          6           0       -5.820520   -2.064815    1.441406
     26          6           0        2.485140    0.295926   -2.475659
     27          6           0        1.749669    1.366570    2.784385
     28          6           0        1.288726    0.773548   -1.832600
     29          6           0        4.174241   -1.617628   -1.896585
     30          6           0       -5.821520   -2.665212   -1.857219
     31          6           0        5.409021   -1.202532   -1.180615
     32          6           0        3.170287    0.971665   -3.685958
     33          6           0        0.428890    1.822847   -2.189376
     34          6           0        2.920695    2.204938    3.364075
     35          6           0       -0.686645    2.205399   -1.403630
     36          6           0       -6.818087   -3.347819   -1.545912
     37          6           0        6.674341   -2.091899   -1.331642
     38          6           0       -1.502444    3.429836   -1.563690
     39          6           0       -2.247351    3.342463   -0.368299
     40          6           0       -1.939893    2.043473    0.346021
     41          6           0       -1.383692    4.346594   -2.710815
     42          6           0       -3.285294    4.379481    0.154643
     43          6           0       -2.070164    5.470000   -2.731873
     44          1           0       -3.229060   -0.371887    1.157258
     45          1           0       -2.717460   -3.211096    1.301554
     46          1           0       -3.174126   -2.358270    2.607053
     47          1           0       -0.326729   -2.903842    0.203874
     48          1           0       -1.856520   -0.535420   -0.731173
     49          1           0        1.975420    0.011140    4.319711
     50          1           0        2.794262   -0.565238    2.770388
     51          1           0        2.793056   -2.607026    0.280704
     52          1           0       -2.092061   -0.707349    4.362017
     53          1           0       -0.623990    0.350310    4.630080
     54          1           0       -1.789166    0.725897    3.359145
     55          1           0       -5.851663   -1.321683    2.184444
     56          1           0       -5.990340   -3.060663    1.951548
     57          1           0       -6.779735   -1.830349    0.777368
     58          1           0        1.804105    1.906334    1.658525
     59          1           0        0.803994    1.749351    2.737852
     60          1           0        0.358081    0.330821   -0.030147
     61          1           0        4.322248   -1.524212   -3.065930
     62          1           0        3.909038   -2.603891   -1.643169
     63          1           0       -5.471207   -2.522519   -2.892054
     64          1           0        5.402712   -1.107397   -0.089434
     65          1           0        5.825215   -0.073570   -1.370683
     66          1           0        4.154907    0.364662   -3.832028
     67          1           0        3.161883    2.123192   -3.339207
     68          1           0        2.672634    0.752719   -4.573493
     69          1           0        0.415464    2.450469   -3.045657
     70          1           0       -7.342296   -3.529473   -0.452875
     71          1           0       -7.545908   -3.551778   -2.421273
     72          1           0        3.557627    4.037062    3.327469
     73          1           0       -0.443167    4.091286   -3.431079
     74          1           0       -4.125508    4.878639   -0.502795
     75          1           0       -3.746978    4.045215    1.126176
     76          1           0       -2.832141    5.262289    0.577241
     77          1           0        8.399126   -2.269860   -0.706967
     78          1           0       -1.805994    6.296761   -3.464469
     79          1           0       -3.010918    5.581748   -2.064491
 ---------------------------------------------------------------------

 SCF Done:  E(RB3LYP) =  -1947.81640683     A.U. after   21 cycles

 Excitation energies and oscillator strengths:

 Excited State   1:      Singlet-A      0.6893 eV 1798.71 nm  f=0.0018  <S**2>=0.000
     155 ->156         0.70368
 This state for optimization and/or second-order correction.
 Total Energy, E(TD-HF/TD-DFT) =  -1947.79107573
 Copying the excited state density for this state as the 1-particle RhoCI density.

 The electronic state is 1-A.
 Alpha  occ. eigenvalues --  -19.20207 -19.18983 -19.14400 -19.11641 -19.10982
 Alpha  occ. eigenvalues --  -19.09475 -14.37779 -14.37666 -14.32007 -14.30819
 Alpha  occ. eigenvalues --  -10.33836 -10.31925 -10.27638 -10.27503 -10.27168
 Alpha  occ. eigenvalues --  -10.25894 -10.24781 -10.23453 -10.23281 -10.23114
 Alpha  occ. eigenvalues --  -10.22898 -10.22870 -10.22762 -10.22399 -10.21982
 Alpha  occ. eigenvalues --  -10.21649 -10.21607 -10.21439 -10.21372 -10.20520
 Alpha  occ. eigenvalues --  -10.20259 -10.20235 -10.20214 -10.20139 -10.20066
 Alpha  occ. eigenvalues --  -10.19138 -10.18837 -10.18616 -10.18148 -10.17448
 Alpha  occ. eigenvalues --  -10.17425 -10.17034 -10.16992  -1.10151  -1.10134
 Alpha  occ. eigenvalues --   -1.01729  -1.01344  -1.01247  -0.99990  -0.99771
 Alpha  occ. eigenvalues --   -0.97584  -0.93670  -0.89321  -0.84404  -0.83644
 Alpha  occ. eigenvalues --   -0.81878  -0.80559  -0.80137  -0.79297  -0.78935
 Alpha  occ. eigenvalues --   -0.76809  -0.75680  -0.75418  -0.74692  -0.73305
 Alpha  occ. eigenvalues --   -0.71238  -0.70254  -0.69979  -0.69207  -0.67904
 Alpha  occ. eigenvalues --   -0.66436  -0.65776  -0.62777  -0.61628  -0.60919
 Alpha  occ. eigenvalues --   -0.60733  -0.59870  -0.57990  -0.57510  -0.56891
 Alpha  occ. eigenvalues --   -0.56000  -0.55815  -0.54881  -0.53388  -0.53352
 Alpha  occ. eigenvalues --   -0.52602  -0.51030  -0.50524  -0.49996  -0.49622
 Alpha  occ. eigenvalues --   -0.49521  -0.48960  -0.47993  -0.47759  -0.47502
 Alpha  occ. eigenvalues --   -0.47435  -0.46868  -0.46521  -0.46277  -0.46000
 Alpha  occ. eigenvalues --   -0.45181  -0.44924  -0.44846  -0.44505  -0.44211
 Alpha  occ. eigenvalues --   -0.43740  -0.43304  -0.43276  -0.42589  -0.42376
 Alpha  occ. eigenvalues --   -0.42014  -0.41680  -0.41274  -0.41123  -0.40920
 Alpha  occ. eigenvalues --   -0.40575  -0.40399  -0.39881  -0.39823  -0.39447
 Alpha  occ. eigenvalues --   -0.39265  -0.38736  -0.38287  -0.38222  -0.37897
 Alpha  occ. eigenvalues --   -0.37587  -0.37098  -0.36514  -0.36461  -0.35999
 Alpha  occ. eigenvalues --   -0.35430  -0.35337  -0.35249  -0.34963  -0.34535
 Alpha  occ. eigenvalues --   -0.33757  -0.33363  -0.32347  -0.32096  -0.31877
 Alpha  occ. eigenvalues --   -0.30989  -0.30061  -0.29587  -0.29414  -0.28869
 Alpha  occ. eigenvalues --   -0.27695  -0.27058  -0.25306  -0.24671  -0.24374
 Alpha  occ. eigenvalues --   -0.23677  -0.23467  -0.22865  -0.21842  -0.18322
 Alpha virt. eigenvalues --   -0.13180  -0.07575  -0.03228  -0.02394  -0.01547
 Alpha virt. eigenvalues --    0.00732   0.01412   0.01836   0.03022   0.03221
 Alpha virt. eigenvalues --    0.03796   0.03980   0.04339   0.04949   0.05364

 Mulliken charges:
               1
     1  O   -0.207033
     2  O   -0.155895
     3  O   -0.245524
     4  O   -0.204954
     5  O   -0.236482
     6  O   -0.288487
     7  N   -0.005333
     8  N   -0.269877
     9  N   -0.042828
    10  N   -0.273137
    11  C    0.020080
    12  C    0.316406
    13  C   -0.095651
    14  C   -0.109680
    15  C   -0.033428
    16  C   -0.005991
    17  C   -0.136924
    18  C    0.098411
    19  C   -0.068864
    20  C   -0.126002
    21  C    0.050725
    22  C    0.147923
    23  C   -0.078710
    24  C    0.046921
    25  C    0.035741
    26  C   -0.153239
    27  C   -0.079309
    28  C    0.165200
    29  C    0.157429
    30  C    0.056872
    31  C   -0.056542
    32  C    0.103426
    33  C   -0.065123
    34  C    0.159111
    35  C    0.015544
    36  C   -0.082930
    37  C    0.147879
    38  C    0.049166
    39  C   -0.169924
    40  C    0.182904
    41  C   -0.020338
    42  C    0.029110
    43  C   -0.050817
    44  H    0.046454
    45  H   -0.088194
    46  H   -0.031857
    47  H    0.142177
    48  H    0.117302
    49  H    0.040921
    50  H   -0.009942
    51  H   -0.012955
    52  H   -0.003818
    53  H   -0.001822
    54  H    0.054669
    55  H    0.017748
    56  H    0.041724
    57  H    0.041056
    58  H    0.007659
    59  H    0.003168
    60  H    0.202762
    61  H    0.036974
    62  H    0.012442
    63  H    0.012588
    64  H    0.040848
    65  H    0.056036
    66  H    0.029618
    67  H    0.069703
    68  H    0.020348
    69  H   -0.048771
    70  H    0.045583
    71  H    0.028083
    72  H    0.187888
    73  H    0.037721
    74  H    0.054491
    75  H    0.025921
    76  H    0.013532
    77  H    0.199775
    78  H    0.040302
    79  H    0.050038
 Sum of Mulliken charges =  -0.00000

 Dipole moment (field-independent basis, Debye):
    X=              3.2730    Y=              4.1500    Z=             -2.6201  Tot=              5.8992
 Quadrupole moment (field-independent basis, Debye-Ang):
   XX=           -234.8685   YY=           -233.5792   ZZ=           -269.5313
   XY=              5.5321   XZ=            -20.0381   YZ=            -12.7058

 Normal termination of Gaussian 16 at Fri Jul 26 17:06:54 2019.
