 Gaussian 16, Revision A.03,
 Gaussian 16:  ES64L-G16RevA.03 25-Dec-2016

 --------------------------
 # td=(NStates=1) B3LYP/SVP
 --------------------------

 --
 TD
 --
 Symbolic Z-matrix:
 Charge =  0 Multiplicity = 1

                         Standard orientation:
 ---------------------------------------------------------------------
 Center     Atomic      Atomic             Coordinates (Angstroms)
 Number     Number       Type             X           Y           Z
 ---------------------------------------------------------------------
      1          8           0        5.485545   -0.112261   -3.313729
      2          8           0       -3.016209   -3.194994    3.127276
      3          8           0       -3.404071   -0.953490    2.969441
      4          8           0       -1.278004    7.116393    1.735663
      5          8           0       -0.502840    7.038466   -0.441807
      6          8           0       -2.019760   -4.000808   -0.125899
      7          7           0        2.399376    0.791354    0.562514
      8          7           0        4.445220   -0.620674   -1.344136
      9          7           0       -1.845721    0.760492   -0.274188
     10          7           0       -2.841265   -1.806870   -0.490220
     11          6           0        4.827000   -1.373509   -0.142397
     12          6           0        4.366815   -0.609206    1.192383
     13          6           0        2.941421   -0.287986    1.305137
     14          6           0        2.000566   -0.825046    2.028230
     15          6           0        0.766795   -0.118318    1.740195
     16          6           0        1.014160    0.849152    0.834369
     17          6           0        6.339399   -1.429514   -0.194334
     18          6           0       -0.600826   -0.400186    2.390347
     19          6           0        6.724704   -0.885446   -1.413083
     20          6           0        0.268559    1.927684    0.246086
     21          6           0       -0.971251    1.847055   -0.318090
     22          6           0        5.535875   -0.415784   -2.183528
     23          6           0       -1.816888    2.958027   -0.838930
     24          6           0        2.111799   -1.970852    3.086835
     25          6           0        7.184555   -1.985397    0.979259
     26          6           0       -3.043079    2.432057   -1.141263
     27          6           0       -1.153228   -1.867921    2.378849
     28          6           0       -2.942147    1.035884   -0.995964
     29          6           0       -1.311075    4.353852   -0.839831
     30          6           0        8.087420   -0.840077   -1.930022
     31          6           0       -1.453816    4.972372    0.560802
     32          6           0       -4.130317    3.254105   -1.701146
     33          6           0       -4.050818    0.211015   -1.243198
     34          6           0       -2.606630   -1.881198    2.927161
     35          6           0       -3.911807   -1.199853   -1.018648
     36          6           0        9.344704   -0.867837   -1.424769
     37          6           0       -0.951569    6.500546    0.504718
     38          6           0       -4.870222   -2.273483   -1.475466
     39          6           0       -4.242503   -3.542112   -1.283094
     40          6           0       -2.904005   -3.212827   -0.548678
     41          6           0       -6.145920   -1.930948   -2.026922
     42          6           0       -4.756150   -4.990716   -1.410153
     43          6           0       -7.147428   -2.906078   -2.426563
     44          1           0        4.478224   -2.385489   -0.086711
     45          1           0        5.066899    0.131620    1.358499
     46          1           0        4.603055   -1.325007    2.006110
     47          1           0        2.938445    1.213215   -0.201284
     48          1           0        3.619622   -0.602139   -1.693783
     49          1           0       -0.544951    0.009573    3.461742
     50          1           0       -1.250820    0.254791    1.801670
     51          1           0        0.850914    2.893469    0.038535
     52          1           0        3.187880   -1.855231    3.442292
     53          1           0        1.603782   -1.749678    3.952233
     54          1           0        1.835216   -3.055267    2.707530
     55          1           0        6.631455   -2.753071    1.566045
     56          1           0        7.330755   -1.139449    1.950954
     57          1           0        8.159260   -2.387769    0.762565
     58          1           0       -1.094996   -2.293009    1.317286
     59          1           0       -0.567711   -2.493182    2.894930
     60          1           0       -1.563961   -0.112110   -0.113616
     61          1           0       -1.761149    5.030045   -1.560755
     62          1           0       -0.136863    4.501051   -1.245083
     63          1           0        7.893033   -0.655794   -3.039566
     64          1           0       -0.803871    4.560723    1.328591
     65          1           0       -2.604925    5.263981    0.947612
     66          1           0       -3.871896    4.329714   -1.749304
     67          1           0       -4.840691    3.170843   -0.971219
     68          1           0       -4.904897    2.781662   -2.465851
     69          1           0       -4.882525    0.618797   -1.771461
     70          1           0        9.631065   -0.849258   -0.305726
     71          1           0       10.158737   -0.816714   -2.041035
     72          1           0       -4.160110   -3.252003    2.813234
     73          1           0       -6.547488   -0.758450   -1.713880
     74          1           0       -5.949833   -5.053935   -1.071901
     75          1           0       -4.707802   -5.372512   -2.286541
     76          1           0       -4.043044   -5.626213   -0.911785
     77          1           0       -1.082092    8.009526    1.744706
     78          1           0       -8.155078   -2.455381   -2.918052
     79          1           0       -6.758758   -3.958617   -2.442090
 ---------------------------------------------------------------------

 SCF Done:  E(RB3LYP) =  -1947.80488825     A.U. after   16 cycles

 Excitation energies and oscillator strengths:

 Excited State   1:      Singlet-A      2.0130 eV  615.91 nm  f=0.2791  <S**2>=0.000
     154 ->156         0.27860
     155 ->156         0.64477
 This state for optimization and/or second-order correction.
 Total Energy, E(TD-HF/TD-DFT) =  -1947.73091113
 Copying the excited state density for this state as the 1-particle RhoCI density.

 The electronic state is 1-A.
 Alpha  occ. eigenvalues --  -19.17952 -19.16298 -19.15097 -19.11377 -19.11302
 Alpha  occ. eigenvalues --  -19.11059 -14.36965 -14.36806 -14.34737 -14.29087
 Alpha  occ. eigenvalues --  -10.33452 -10.30460 -10.28916 -10.27740 -10.25166
 Alpha  occ. eigenvalues --  -10.25166 -10.24609 -10.24134 -10.23495 -10.23232
 Alpha  occ. eigenvalues --  -10.23062 -10.22753 -10.22616 -10.22524 -10.22441
 Alpha  occ. eigenvalues --  -10.22103 -10.21807 -10.21776 -10.21226 -10.21097
 Alpha  occ. eigenvalues --  -10.20897 -10.20807 -10.20727 -10.20590 -10.20529
 Alpha  occ. eigenvalues --  -10.20108 -10.19921 -10.19761 -10.19365 -10.19103
 Alpha  occ. eigenvalues --  -10.18615 -10.18417 -10.18213  -1.10169  -1.05745
 Alpha  occ. eigenvalues --   -1.04595  -1.03063  -1.00545  -0.99760  -0.96983
 Alpha  occ. eigenvalues --   -0.96058  -0.94942  -0.91153  -0.84160  -0.82595
 Alpha  occ. eigenvalues --   -0.82281  -0.80349  -0.79922  -0.79043  -0.77933
 Alpha  occ. eigenvalues --   -0.77002  -0.75662  -0.74780  -0.73899  -0.73228
 Alpha  occ. eigenvalues --   -0.71890  -0.71324  -0.69795  -0.68988  -0.68724
 Alpha  occ. eigenvalues --   -0.66717  -0.65918  -0.64238  -0.62533  -0.61159
 Alpha  occ. eigenvalues --   -0.60730  -0.58878  -0.58735  -0.58495  -0.56524
 Alpha  occ. eigenvalues --   -0.56025  -0.55184  -0.54955  -0.53871  -0.52720
 Alpha  occ. eigenvalues --   -0.52063  -0.51626  -0.51411  -0.50488  -0.49681
 Alpha  occ. eigenvalues --   -0.48988  -0.48743  -0.48431  -0.48026  -0.47288
 Alpha  occ. eigenvalues --   -0.46790  -0.46510  -0.45838  -0.45557  -0.45198
 Alpha  occ. eigenvalues --   -0.44711  -0.44281  -0.44232  -0.43955  -0.43792
 Alpha  occ. eigenvalues --   -0.43563  -0.43523  -0.42955  -0.42655  -0.42537
 Alpha  occ. eigenvalues --   -0.41692  -0.41442  -0.41301  -0.41230  -0.41153
 Alpha  occ. eigenvalues --   -0.41003  -0.40823  -0.40573  -0.40165  -0.40038
 Alpha  occ. eigenvalues --   -0.39989  -0.39782  -0.39337  -0.38977  -0.38814
 Alpha  occ. eigenvalues --   -0.38651  -0.38273  -0.37793  -0.37529  -0.36638
 Alpha  occ. eigenvalues --   -0.36510  -0.35219  -0.35033  -0.34880  -0.34391
 Alpha  occ. eigenvalues --   -0.33902  -0.33795  -0.33323  -0.32758  -0.31750
 Alpha  occ. eigenvalues --   -0.31235  -0.29719  -0.29509  -0.28653  -0.27859
 Alpha  occ. eigenvalues --   -0.26726  -0.26610  -0.26371  -0.26285  -0.24606
 Alpha  occ. eigenvalues --   -0.24365  -0.23855  -0.23668  -0.21768  -0.20019
 Alpha virt. eigenvalues --   -0.11582  -0.07260  -0.06410  -0.02266  -0.01286
 Alpha virt. eigenvalues --   -0.00409   0.00859   0.01367   0.02233   0.02759
 Alpha virt. eigenvalues --    0.02843   0.03225   0.04281   0.04624   0.05321

 Mulliken charges:
               1
     1  O   -0.160659
     2  O   -0.313700
     3  O   -0.235167
     4  O   -0.211594
     5  O   -0.170733
     6  O   -0.237762
     7  N   -0.146891
     8  N   -0.142172
     9  N    0.019814
    10  N   -0.284056
    11  C    0.091175
    12  C    0.206331
    13  C   -0.053566
    14  C   -0.120414
    15  C   -0.116470
    16  C    0.081017
    17  C   -0.127787
    18  C    0.064167
    19  C   -0.114249
    20  C   -0.113993
    21  C    0.090668
    22  C    0.140033
    23  C   -0.026032
    24  C    0.101030
    25  C    0.028768
    26  C   -0.147744
    27  C    0.053753
    28  C    0.129778
    29  C    0.007364
    30  C   -0.007935
    31  C   -0.057719
    32  C    0.163545
    33  C   -0.105634
    34  C    0.182258
    35  C    0.106674
    36  C   -0.026564
    37  C    0.134365
    38  C    0.017323
    39  C   -0.203852
    40  C    0.181479
    41  C   -0.110040
    42  C    0.150268
    43  C   -0.073674
    44  H    0.019605
    45  H   -0.032347
    46  H   -0.023839
    47  H    0.114348
    48  H    0.061142
    49  H    0.019651
    50  H   -0.000456
    51  H    0.015282
    52  H    0.002046
    53  H   -0.004023
    54  H    0.065875
    55  H    0.024721
    56  H    0.051700
    57  H    0.038866
    58  H    0.083781
    59  H   -0.031885
    60  H    0.094706
    61  H    0.012892
    62  H    0.053665
    63  H    0.023226
    64  H    0.052397
    65  H    0.081565
    66  H    0.020830
    67  H   -0.014628
    68  H    0.035400
    69  H   -0.039001
    70  H    0.031910
    71  H    0.006506
    72  H    0.256297
    73  H    0.046942
    74  H    0.050006
    75  H   -0.030545
    76  H    0.013994
    77  H    0.151270
    78  H    0.066544
    79  H    0.040154
 Sum of Mulliken charges =  -0.00000

 Dipole moment (field-independent basis, Debye):
    X=              0.2717    Y=              3.0177    Z=              1.7865  Tot=              3.5173
 Quadrupole moment (field-independent basis, Debye-Ang):
   XX=           -222.6583   YY=           -240.6952   ZZ=           -269.7837
   XY=            -14.5097   XZ=             36.7521   YZ=              6.5669

 Normal termination of Gaussian 16 at Fri Sep 20 05:14:46 2019.
