 Gaussian 16, Revision A.03,
 Gaussian 16:  ES64L-G16RevA.03 25-Dec-2016

 --------------------------
 # td=(NStates=1) B3LYP/SVP
 --------------------------

 --
 TD
 --
 Symbolic Z-matrix:
 Charge =  0 Multiplicity = 1

                         Standard orientation:
 ---------------------------------------------------------------------
 Center     Atomic      Atomic             Coordinates (Angstroms)
 Number     Number       Type             X           Y           Z
 ---------------------------------------------------------------------
      1          8           0       -3.302808   -1.599930   -2.814937
      2          8           0        2.728427    3.452627    3.275568
      3          8           0        3.802853    1.765768    4.173656
      4          8           0        7.768362   -1.502462   -0.632605
      5          8           0        6.734443   -3.217104   -1.751043
      6          8           0       -2.662672    1.753267    1.273874
      7          7           0       -0.143723   -2.335712    1.033009
      8          7           0       -2.751887   -1.132677   -0.633156
      9          7           0        1.152387   -0.120136   -0.671929
     10          7           0       -0.999599    1.479715   -0.283440
     11          6           0       -3.326059   -1.310233    0.670067
     12          6           0       -2.570736   -2.355246    1.624166
     13          6           0       -1.158661   -1.963492    1.846829
     14          6           0       -0.531766   -1.130732    2.852174
     15          6           0        0.807784   -0.957327    2.550076
     16          6           0        1.040918   -1.793364    1.347111
     17          6           0       -4.762748   -1.856356    0.432735
     18          6           0        1.920581   -0.184804    3.242802
     19          6           0       -4.829454   -2.109240   -0.910105
     20          6           0        2.141530   -1.894208    0.413995
     21          6           0        2.138893   -1.059900   -0.636983
     22          6           0       -3.586193   -1.603651   -1.635583
     23          6           0        3.011871   -0.781443   -1.782239
     24          6           0       -1.354319   -0.348745    3.873809
     25          6           0       -5.802940   -1.994985    1.523729
     26          6           0        2.459529    0.276916   -2.510594
     27          6           0        1.806449    1.242420    2.764645
     28          6           0        1.306213    0.736664   -1.755464
     29          6           0        4.273753   -1.574836   -1.961985
     30          6           0       -5.877993   -2.574256   -1.780141
     31          6           0        5.477670   -1.049837   -1.179939
     32          6           0        3.065298    0.827288   -3.724866
     33          6           0        0.555721    1.821824   -2.107296
     34          6           0        2.870299    2.084844    3.451318
     35          6           0       -0.585438    2.175594   -1.327776
     36          6           0       -7.059120   -3.218039   -1.466239
     37          6           0        6.688813   -2.096934   -1.222877
     38          6           0       -1.398215    3.422952   -1.515653
     39          6           0       -2.336234    3.470639   -0.490227
     40          6           0       -2.014181    2.169714    0.291307
     41          6           0       -1.073722    4.345233   -2.641302
     42          6           0       -3.452301    4.324853   -0.001141
     43          6           0       -1.673149    5.599958   -2.581179
     44          1           0       -3.349066   -0.370669    1.250053
     45          1           0       -2.509390   -3.392093    1.270697
     46          1           0       -3.039486   -2.398041    2.657514
     47          1           0       -0.289691   -2.722043    0.231462
     48          1           0       -2.194099   -0.355062   -0.663992
     49          1           0        1.653360   -0.142937    4.301991
     50          1           0        2.824853   -0.677915    3.148463
     51          1           0        3.008067   -2.671476    0.360987
     52          1           0       -2.058710   -0.865421    4.479299
     53          1           0       -0.849046    0.121552    4.605377
     54          1           0       -1.704724    0.391206    3.242716
     55          1           0       -5.740725   -1.453915    2.320752
     56          1           0       -6.035264   -3.160471    1.807385
     57          1           0       -6.794145   -1.595992    0.955522
     58          1           0        1.854898    1.142487    1.488125
     59          1           0        0.735227    1.660164    2.965539
     60          1           0        0.203204    0.109771   -0.104485
     61          1           0        4.485688   -1.872010   -3.040862
     62          1           0        4.181041   -2.673850   -1.578365
     63          1           0       -5.877029   -2.239674   -2.963190
     64          1           0        5.475451   -1.063008   -0.082115
     65          1           0        5.782558   -0.201325   -1.758770
     66          1           0        3.862372    0.193820   -4.146568
     67          1           0        3.492197    1.904366   -3.617243
     68          1           0        2.157905    0.870284   -4.424921
     69          1           0        0.674830    2.248581   -3.099835
     70          1           0       -7.237498   -3.439016   -0.472202
     71          1           0       -7.961456   -3.496011   -2.211053
     72          1           0        3.321323    3.864187    3.887417
     73          1           0       -0.390786    4.088707   -3.479675
     74          1           0       -4.192862    4.670031   -0.840802
     75          1           0       -4.141529    3.643123    0.573181
     76          1           0       -2.805796    5.246898    0.838238
     77          1           0        8.597580   -1.870145   -0.915648
     78          1           0       -1.255081    6.266637   -3.450812
     79          1           0       -2.265826    5.935976   -1.760710
 ---------------------------------------------------------------------

 SCF Done:  E(RB3LYP) =  -1947.84905852     A.U. after   16 cycles

 Excitation energies and oscillator strengths:

 Excited State   1:      Singlet-A      1.0004 eV 1239.29 nm  f=0.0001  <S**2>=0.000
     155 ->156         0.70341
 This state for optimization and/or second-order correction.
 Total Energy, E(TD-HF/TD-DFT) =  -1947.81229276
 Copying the excited state density for this state as the 1-particle RhoCI density.

 The electronic state is 1-A.
 Alpha  occ. eigenvalues --  -19.19237 -19.15945 -19.14520 -19.12294 -19.12260
 Alpha  occ. eigenvalues --  -19.08998 -14.37233 -14.36392 -14.32533 -14.31656
 Alpha  occ. eigenvalues --  -10.34060 -10.31745 -10.28625 -10.27297 -10.26201
 Alpha  occ. eigenvalues --  -10.25573 -10.24554 -10.23389 -10.22890 -10.22881
 Alpha  occ. eigenvalues --  -10.22618 -10.22575 -10.22443 -10.22392 -10.22256
 Alpha  occ. eigenvalues --  -10.22188 -10.22156 -10.22075 -10.21951 -10.21452
 Alpha  occ. eigenvalues --  -10.21427 -10.20944 -10.20694 -10.20664 -10.20108
 Alpha  occ. eigenvalues --  -10.19938 -10.19887 -10.19153 -10.18856 -10.18295
 Alpha  occ. eigenvalues --  -10.17599 -10.17175 -10.15603  -1.09855  -1.08214
 Alpha  occ. eigenvalues --   -1.02472  -1.01351  -1.00993  -0.99597  -0.98432
 Alpha  occ. eigenvalues --   -0.98359  -0.94711  -0.92553  -0.83631  -0.83143
 Alpha  occ. eigenvalues --   -0.81283  -0.80913  -0.80490  -0.79040  -0.78679
 Alpha  occ. eigenvalues --   -0.76791  -0.76026  -0.75468  -0.74036  -0.72996
 Alpha  occ. eigenvalues --   -0.70750  -0.70312  -0.70156  -0.69205  -0.68145
 Alpha  occ. eigenvalues --   -0.66959  -0.66039  -0.63348  -0.61839  -0.60363
 Alpha  occ. eigenvalues --   -0.60019  -0.59799  -0.58700  -0.57180  -0.56728
 Alpha  occ. eigenvalues --   -0.56609  -0.56138  -0.54892  -0.53840  -0.53572
 Alpha  occ. eigenvalues --   -0.51845  -0.51320  -0.50783  -0.50406  -0.49489
 Alpha  occ. eigenvalues --   -0.49081  -0.48871  -0.48233  -0.47965  -0.47800
 Alpha  occ. eigenvalues --   -0.46879  -0.46777  -0.46534  -0.45910  -0.45436
 Alpha  occ. eigenvalues --   -0.44972  -0.44712  -0.44627  -0.43908  -0.43718
 Alpha  occ. eigenvalues --   -0.43582  -0.43522  -0.43391  -0.42630  -0.42456
 Alpha  occ. eigenvalues --   -0.41977  -0.41787  -0.41356  -0.41160  -0.41122
 Alpha  occ. eigenvalues --   -0.40914  -0.40618  -0.39871  -0.39792  -0.39532
 Alpha  occ. eigenvalues --   -0.39161  -0.39018  -0.38803  -0.38469  -0.38233
 Alpha  occ. eigenvalues --   -0.38154  -0.37871  -0.37224  -0.37012  -0.36820
 Alpha  occ. eigenvalues --   -0.35718  -0.35514  -0.35422  -0.35048  -0.34813
 Alpha  occ. eigenvalues --   -0.33888  -0.33467  -0.32845  -0.32111  -0.31896
 Alpha  occ. eigenvalues --   -0.30974  -0.29952  -0.29617  -0.29247  -0.29104
 Alpha  occ. eigenvalues --   -0.27576  -0.26748  -0.26403  -0.24954  -0.24616
 Alpha  occ. eigenvalues --   -0.23779  -0.23375  -0.22572  -0.22501  -0.18645
 Alpha virt. eigenvalues --   -0.12438  -0.07411  -0.04719  -0.02468  -0.01894
 Alpha virt. eigenvalues --   -0.01030   0.01612   0.01689   0.02166   0.02526
 Alpha virt. eigenvalues --    0.03736   0.04078   0.04564   0.05165   0.05457

 Mulliken charges:
               1
     1  O   -0.213744
     2  O   -0.201429
     3  O   -0.238508
     4  O   -0.193391
     5  O   -0.234190
     6  O   -0.232275
     7  N    0.089637
     8  N   -0.155754
     9  N   -0.159117
    10  N   -0.271577
    11  C    0.041879
    12  C    0.198680
    13  C   -0.164002
    14  C   -0.141601
    15  C   -0.144705
    16  C   -0.038820
    17  C   -0.126609
    18  C    0.222927
    19  C   -0.050110
    20  C   -0.144133
    21  C    0.108650
    22  C    0.154605
    23  C    0.000566
    24  C    0.182198
    25  C    0.084103
    26  C   -0.130396
    27  C   -0.138303
    28  C    0.161373
    29  C   -0.028256
    30  C   -0.074506
    31  C    0.043393
    32  C    0.056052
    33  C   -0.133427
    34  C    0.180134
    35  C    0.090283
    36  C   -0.059417
    37  C    0.136243
    38  C    0.038752
    39  C   -0.175667
    40  C    0.152250
    41  C   -0.047557
    42  C   -0.015566
    43  C   -0.007877
    44  H    0.044213
    45  H   -0.017509
    46  H    0.005422
    47  H    0.039511
    48  H    0.104772
    49  H   -0.007066
    50  H   -0.008930
    51  H    0.013459
    52  H   -0.009988
    53  H   -0.054862
    54  H    0.021719
    55  H   -0.026364
    56  H    0.062021
    57  H    0.049386
    58  H    0.080647
    59  H    0.072449
    60  H    0.245650
    61  H    0.038344
    62  H    0.031842
    63  H    0.048439
    64  H    0.060509
    65  H    0.037500
    66  H    0.026015
    67  H    0.052210
    68  H    0.045396
    69  H   -0.013398
    70  H   -0.018934
    71  H    0.048921
    72  H    0.161593
    73  H    0.016721
    74  H    0.054533
    75  H    0.048053
    76  H    0.076683
    77  H    0.180187
    78  H    0.042102
    79  H    0.027962
 Sum of Mulliken charges =  -0.00000

 Dipole moment (field-independent basis, Debye):
    X=              2.6747    Y=              3.2983    Z=             -1.5533  Tot=              4.5217
 Quadrupole moment (field-independent basis, Debye-Ang):
   XX=           -231.7655   YY=           -248.2002   ZZ=           -259.4806
   XY=              1.9665   XZ=            -29.5055   YZ=            -16.5326

 Normal termination of Gaussian 16 at Sun Jul 28 03:21:39 2019.
