 Gaussian 16, Revision A.03,
 Gaussian 16:  ES64L-G16RevA.03 25-Dec-2016

 --------------------------
 # td=(NStates=1) B3LYP/SVP
 --------------------------

 --
 TD
 --
 Symbolic Z-matrix:
 Charge =  0 Multiplicity = 1

                         Standard orientation:
 ---------------------------------------------------------------------
 Center     Atomic      Atomic             Coordinates (Angstroms)
 Number     Number       Type             X           Y           Z
 ---------------------------------------------------------------------
      1          8           0        5.471995    0.131833   -3.236560
      2          8           0       -3.000719   -2.927905    3.530690
      3          8           0       -3.417398   -0.788603    3.145791
      4          8           0       -1.765844    6.987453    1.714867
      5          8           0       -0.890242    7.079184   -0.447398
      6          8           0       -1.695134   -3.940749    0.155005
      7          7           0        2.277057    0.994019    0.673575
      8          7           0        4.336678   -0.376314   -1.267977
      9          7           0       -1.784472    0.658212   -0.536690
     10          7           0       -2.503401   -1.854100   -0.531703
     11          6           0        4.647219   -1.082708   -0.030345
     12          6           0        4.284647   -0.409406    1.260213
     13          6           0        2.841546   -0.045065    1.388177
     14          6           0        1.851049   -0.588305    2.192992
     15          6           0        0.614276    0.024069    1.782991
     16          6           0        1.001918    1.047247    0.864244
     17          6           0        6.152799   -1.315291   -0.177748
     18          6           0       -0.695191   -0.037117    2.548316
     19          6           0        6.664492   -0.829922   -1.312116
     20          6           0        0.134057    2.035023    0.106790
     21          6           0       -1.147139    1.862425   -0.391105
     22          6           0        5.428172   -0.275434   -2.138358
     23          6           0       -1.971916    2.893136   -1.095808
     24          6           0        2.074051   -1.743130    3.122704
     25          6           0        6.996590   -1.999655    0.956707
     26          6           0       -3.102052    2.274759   -1.509849
     27          6           0       -1.184087   -1.505449    2.759344
     28          6           0       -3.041804    0.865146   -1.293856
     29          6           0       -1.577303    4.416247   -1.006092
     30          6           0        8.023459   -0.710328   -1.999785
     31          6           0       -1.587917    5.019254    0.503330
     32          6           0       -4.296991    2.885481   -2.196622
     33          6           0       -3.894948   -0.139470   -1.539375
     34          6           0       -2.563454   -1.669372    3.133232
     35          6           0       -3.693484   -1.497706   -1.214121
     36          6           0        9.187629   -0.880260   -1.444819
     37          6           0       -1.379756    6.541473    0.485298
     38          6           0       -4.408197   -2.692476   -1.552447
     39          6           0       -3.816052   -3.845506   -1.066661
     40          6           0       -2.652213   -3.294211   -0.382442
     41          6           0       -5.652577   -2.556913   -2.163304
     42          6           0       -3.986025   -5.251682   -1.160848
     43          6           0       -6.463718   -3.587187   -2.663618
     44          1           0        4.403778   -2.160251    0.029312
     45          1           0        4.942789    0.444841    1.286250
     46          1           0        4.635404   -1.122722    2.224963
     47          1           0        2.532557    1.604743   -0.270156
     48          1           0        3.388984   -0.615635   -1.495484
     49          1           0       -0.423343    0.436830    3.614702
     50          1           0       -1.448090    0.433515    1.886746
     51          1           0        0.538087    2.875301   -0.008714
     52          1           0        3.059774   -2.044127    3.515455
     53          1           0        1.557390   -1.618446    4.086945
     54          1           0        1.582877   -2.592157    2.317002
     55          1           0        6.345399   -2.575879    1.488183
     56          1           0        7.741889   -1.284707    1.539608
     57          1           0        7.611134   -2.541717    0.619549
     58          1           0       -1.071513   -2.321127    2.032042
     59          1           0       -0.612705   -2.190094    3.506831
     60          1           0       -1.288574   -0.372974   -0.221078
     61          1           0       -2.294156    5.192271   -1.567596
     62          1           0       -0.755009    4.543737   -1.265179
     63          1           0        8.093110   -0.430152   -3.119424
     64          1           0       -0.474927    4.297528    0.791332
     65          1           0       -2.525832    4.743558    1.256344
     66          1           0       -4.229854    3.922312   -2.438605
     67          1           0       -5.255136    2.633707   -1.733182
     68          1           0       -4.346811    2.427493   -3.178468
     69          1           0       -4.734368    0.098094   -2.289809
     70          1           0        9.355972   -1.232319   -0.422736
     71          1           0       10.212878   -0.621772   -1.834712
     72          1           0       -4.051733   -2.765915    3.608825
     73          1           0       -5.978067   -1.565564   -2.333340
     74          1           0       -4.895319   -5.585713   -0.583501
     75          1           0       -4.102431   -5.670151   -2.132666
     76          1           0       -3.172591   -5.869304   -0.899527
     77          1           0       -1.532725    8.008846    1.841191
     78          1           0       -7.342456   -3.471961   -3.075199
     79          1           0       -6.091160   -4.738520   -2.625614
 ---------------------------------------------------------------------

 SCF Done:  E(RB3LYP) =  -1947.67642374     A.U. after   17 cycles

 Excitation energies and oscillator strengths:

 Excited State   1:      Singlet-A      1.7467 eV  709.81 nm  f=0.2885  <S**2>=0.000
     153 ->156        -0.10045
     154 ->156         0.15586
     155 ->156         0.68540
     155 <-156        -0.11840
 This state for optimization and/or second-order correction.
 Total Energy, E(TD-HF/TD-DFT) =  -1947.61223273
 Copying the excited state density for this state as the 1-particle RhoCI density.

 The electronic state is 1-A.
 Alpha  occ. eigenvalues --  -19.19967 -19.15337 -19.14309 -19.11267 -19.10550
 Alpha  occ. eigenvalues --  -19.09597 -14.38936 -14.36433 -14.35629 -14.29725
 Alpha  occ. eigenvalues --  -10.33110 -10.29254 -10.29198 -10.26350 -10.25034
 Alpha  occ. eigenvalues --  -10.24341 -10.24318 -10.23733 -10.23603 -10.22518
 Alpha  occ. eigenvalues --  -10.22298 -10.22047 -10.21897 -10.21698 -10.21212
 Alpha  occ. eigenvalues --  -10.20966 -10.20761 -10.20673 -10.20659 -10.20541
 Alpha  occ. eigenvalues --  -10.20466 -10.20448 -10.20411 -10.20380 -10.20301
 Alpha  occ. eigenvalues --  -10.20170 -10.19742 -10.19232 -10.19148 -10.19088
 Alpha  occ. eigenvalues --  -10.18808 -10.18550 -10.18497  -1.09789  -1.05387
 Alpha  occ. eigenvalues --   -1.05147  -1.02814  -0.99965  -0.98766  -0.95646
 Alpha  occ. eigenvalues --   -0.95501  -0.94580  -0.90498  -0.82108  -0.81598
 Alpha  occ. eigenvalues --   -0.81484  -0.80961  -0.80335  -0.79582  -0.77759
 Alpha  occ. eigenvalues --   -0.77170  -0.76146  -0.75890  -0.75230  -0.72315
 Alpha  occ. eigenvalues --   -0.72011  -0.71119  -0.70507  -0.69562  -0.68203
 Alpha  occ. eigenvalues --   -0.66818  -0.66256  -0.63957  -0.61904  -0.60758
 Alpha  occ. eigenvalues --   -0.58831  -0.58547  -0.57468  -0.56540  -0.56184
 Alpha  occ. eigenvalues --   -0.55776  -0.54984  -0.54590  -0.53864  -0.53587
 Alpha  occ. eigenvalues --   -0.51875  -0.51471  -0.51068  -0.50122  -0.49290
 Alpha  occ. eigenvalues --   -0.48895  -0.48207  -0.48103  -0.48031  -0.47210
 Alpha  occ. eigenvalues --   -0.46840  -0.46613  -0.46008  -0.45759  -0.45342
 Alpha  occ. eigenvalues --   -0.44951  -0.44857  -0.44515  -0.44297  -0.44054
 Alpha  occ. eigenvalues --   -0.43888  -0.43534  -0.43373  -0.43155  -0.42449
 Alpha  occ. eigenvalues --   -0.41911  -0.41763  -0.41584  -0.41433  -0.40921
 Alpha  occ. eigenvalues --   -0.40608  -0.40503  -0.39979  -0.39741  -0.39230
 Alpha  occ. eigenvalues --   -0.39124  -0.39037  -0.38606  -0.38474  -0.38241
 Alpha  occ. eigenvalues --   -0.38015  -0.37761  -0.37375  -0.36908  -0.36853
 Alpha  occ. eigenvalues --   -0.36282  -0.35863  -0.34571  -0.34453  -0.34245
 Alpha  occ. eigenvalues --   -0.34206  -0.33188  -0.32169  -0.31913  -0.31486
 Alpha  occ. eigenvalues --   -0.31391  -0.29330  -0.28950  -0.28172  -0.27777
 Alpha  occ. eigenvalues --   -0.27210  -0.25924  -0.25783  -0.25158  -0.24771
 Alpha  occ. eigenvalues --   -0.24212  -0.24135  -0.23464  -0.21720  -0.19052
 Alpha virt. eigenvalues --   -0.12068  -0.07195  -0.04236  -0.01845  -0.01272
 Alpha virt. eigenvalues --    0.01064   0.01543   0.01670   0.01886   0.02398
 Alpha virt. eigenvalues --    0.02826   0.03829   0.04540   0.05089   0.05481

 Mulliken charges:
               1
     1  O   -0.153497
     2  O   -0.268755
     3  O   -0.266467
     4  O   -0.234588
     5  O   -0.182525
     6  O   -0.251336
     7  N   -0.049694
     8  N   -0.193626
     9  N   -0.228344
    10  N   -0.334345
    11  C    0.065237
    12  C    0.171601
    13  C   -0.066025
    14  C   -0.115741
    15  C   -0.172835
    16  C   -0.009757
    17  C   -0.260383
    18  C    0.151585
    19  C   -0.048511
    20  C    0.011253
    21  C    0.098824
    22  C    0.140364
    23  C   -0.072357
    24  C    0.018383
    25  C    0.261064
    26  C   -0.121931
    27  C   -0.010536
    28  C    0.165505
    29  C    0.246263
    30  C    0.022783
    31  C   -0.189401
    32  C    0.148151
    33  C   -0.135595
    34  C    0.117376
    35  C    0.115474
    36  C   -0.072249
    37  C    0.186893
    38  C    0.097386
    39  C   -0.126184
    40  C    0.160059
    41  C   -0.058065
    42  C    0.124912
    43  C    0.007197
    44  H    0.017964
    45  H   -0.019223
    46  H    0.030716
    47  H    0.179388
    48  H    0.128694
    49  H    0.049442
    50  H    0.030631
    51  H   -0.112364
    52  H    0.010916
    53  H    0.027785
    54  H    0.082667
    55  H   -0.021427
    56  H    0.044319
    57  H   -0.090838
    58  H    0.041779
    59  H    0.021738
    60  H    0.241086
    61  H    0.035662
    62  H   -0.107745
    63  H    0.038744
    64  H    0.068964
    65  H    0.078189
    66  H    0.000569
    67  H    0.025114
    68  H    0.011513
    69  H    0.003492
    70  H   -0.002745
    71  H    0.031948
    72  H    0.214936
    73  H   -0.031462
    74  H    0.031063
    75  H    0.010006
    76  H    0.003155
    77  H    0.218134
    78  H   -0.020416
    79  H    0.040041
 Sum of Mulliken charges =  -0.00000

 Dipole moment (field-independent basis, Debye):
    X=              0.0034    Y=              1.7937    Z=              1.0860  Tot=              2.0968
 Quadrupole moment (field-independent basis, Debye-Ang):
   XX=           -222.5712   YY=           -235.3188   ZZ=           -261.5418
   XY=             -9.4008   XZ=             36.4303   YZ=             12.0052

 Normal termination of Gaussian 16 at Wed Oct  9 09:53:10 2019.
