 Gaussian 16, Revision A.03,
 Gaussian 16:  ES64L-G16RevA.03 25-Dec-2016

 --------------------------
 # td=(NStates=1) B3LYP/SVP
 --------------------------

 --
 TD
 --
 Symbolic Z-matrix:
 Charge =  0 Multiplicity = 1

                         Standard orientation:
 ---------------------------------------------------------------------
 Center     Atomic      Atomic             Coordinates (Angstroms)
 Number     Number       Type             X           Y           Z
 ---------------------------------------------------------------------
      1          8           0        5.230205   -0.169493   -3.280976
      2          8           0       -3.002090   -2.887151    3.077686
      3          8           0       -3.332734   -0.720853    3.119912
      4          8           0       -0.838104    6.999136    1.773998
      5          8           0       -0.472235    7.031409   -0.575137
      6          8           0       -1.963727   -3.911705    0.010475
      7          7           0        2.397260    0.896742    0.704238
      8          7           0        4.273844   -0.787782   -1.246006
      9          7           0       -1.837606    0.735633   -0.374840
     10          7           0       -2.675402   -1.780696   -0.581934
     11          6           0        4.717024   -1.413519   -0.025811
     12          6           0        4.400900   -0.418322    1.284715
     13          6           0        2.933186   -0.081862    1.390340
     14          6           0        1.890412   -0.758154    2.131372
     15          6           0        0.676190   -0.125803    1.731195
     16          6           0        1.064374    0.949756    0.826630
     17          6           0        6.247441   -1.530300   -0.189443
     18          6           0       -0.578877   -0.237312    2.508304
     19          6           0        6.602503   -1.049826   -1.406494
     20          6           0        0.265263    1.841338    0.069530
     21          6           0       -1.061643    1.802764   -0.357118
     22          6           0        5.330335   -0.592324   -2.158881
     23          6           0       -1.788343    3.021280   -0.834120
     24          6           0        2.193438   -1.942030    3.028676
     25          6           0        7.137514   -2.312708    0.757028
     26          6           0       -3.048114    2.507104   -1.333769
     27          6           0       -1.209242   -1.698974    2.471234
     28          6           0       -3.103279    1.122089   -0.969701
     29          6           0       -1.251097    4.363079   -0.870713
     30          6           0        7.909781   -0.965760   -2.125557
     31          6           0       -1.392663    5.047304    0.559800
     32          6           0       -4.135160    3.274234   -1.908551
     33          6           0       -4.027272    0.131868   -1.222106
     34          6           0       -2.580567   -1.669342    2.889055
     35          6           0       -3.825814   -1.272718   -1.052877
     36          6           0        9.079031   -0.762964   -1.515132
     37          6           0       -0.866328    6.493419    0.498612
     38          6           0       -4.823225   -2.409670   -1.360697
     39          6           0       -4.163384   -3.600527   -1.119428
     40          6           0       -2.818083   -3.289913   -0.583006
     41          6           0       -6.108065   -2.062922   -2.160777
     42          6           0       -4.693199   -4.973380   -1.147589
     43          6           0       -6.999110   -2.985782   -2.342126
     44          1           0        4.362538   -2.381836    0.139835
     45          1           0        5.083703    0.408116    1.007331
     46          1           0        4.738832   -1.005301    2.297616
     47          1           0        2.912435    1.463190    0.080834
     48          1           0        3.289105   -0.963515   -1.612018
     49          1           0       -0.231221   -0.139729    3.626067
     50          1           0       -1.423779    0.432637    2.283248
     51          1           0        0.993449    2.744986   -0.153875
     52          1           0        3.397279   -2.146736    3.149548
     53          1           0        1.717817   -1.699633    4.029058
     54          1           0        1.770287   -2.839925    2.498533
     55          1           0        6.600544   -3.133518    1.198493
     56          1           0        7.477879   -1.458470    1.559655
     57          1           0        7.979133   -2.908778    0.230867
     58          1           0       -1.035011   -2.296703    1.609884
     59          1           0       -0.769390   -2.281508    3.274346
     60          1           0       -1.637075   -0.330788   -0.348767
     61          1           0       -1.675101    4.929946   -1.618418
     62          1           0       -0.218819    4.429352   -1.084484
     63          1           0        7.742914   -0.833475   -3.252465
     64          1           0       -0.756230    4.505946    1.162846
     65          1           0       -2.518700    4.878941    1.100207
     66          1           0       -3.937776    4.207251   -2.269694
     67          1           0       -5.039382    3.290089   -1.211576
     68          1           0       -4.510637    2.655728   -2.728890
     69          1           0       -4.936531    0.343529   -1.970418
     70          1           0        9.041604   -0.924755   -0.300827
     71          1           0       10.094567   -0.396562   -1.872477
     72          1           0       -3.933720   -3.130276    3.128517
     73          1           0       -6.179239   -1.206927   -2.687451
     74          1           0       -5.657828   -5.079191   -0.627851
     75          1           0       -4.848685   -5.413328   -2.194142
     76          1           0       -4.175276   -5.725936   -0.495629
     77          1           0       -0.614967    8.021077    1.604861
     78          1           0       -7.905452   -2.558736   -2.894083
     79          1           0       -7.118016   -4.033914   -1.952113
 ---------------------------------------------------------------------

 SCF Done:  E(RB3LYP) =  -1947.89074387     A.U. after   17 cycles

 Excitation energies and oscillator strengths:

 Excited State   1:      Singlet-A      1.8226 eV  680.27 nm  f=0.4356  <S**2>=0.000
     155 ->156         0.70817
     155 <-156        -0.14593
 This state for optimization and/or second-order correction.
 Total Energy, E(TD-HF/TD-DFT) =  -1947.82376549
 Copying the excited state density for this state as the 1-particle RhoCI density.

 The electronic state is 1-A.
 Alpha  occ. eigenvalues --  -19.20550 -19.15475 -19.14163 -19.11335 -19.11235
 Alpha  occ. eigenvalues --  -19.09225 -14.38768 -14.36126 -14.35074 -14.28581
 Alpha  occ. eigenvalues --  -10.33704 -10.29422 -10.29339 -10.27219 -10.25197
 Alpha  occ. eigenvalues --  -10.23557 -10.23502 -10.23352 -10.23093 -10.22537
 Alpha  occ. eigenvalues --  -10.22513 -10.22500 -10.22242 -10.21917 -10.21550
 Alpha  occ. eigenvalues --  -10.21469 -10.21441 -10.21290 -10.21057 -10.20844
 Alpha  occ. eigenvalues --  -10.20800 -10.20379 -10.20321 -10.20071 -10.19840
 Alpha  occ. eigenvalues --  -10.19547 -10.19317 -10.19274 -10.19244 -10.19228
 Alpha  occ. eigenvalues --  -10.19119 -10.18980 -10.17345  -1.08339  -1.08148
 Alpha  occ. eigenvalues --   -1.03638  -1.01972  -1.01164  -0.99788  -0.96809
 Alpha  occ. eigenvalues --   -0.96389  -0.93960  -0.89426  -0.81957  -0.81748
 Alpha  occ. eigenvalues --   -0.81255  -0.80862  -0.80113  -0.78940  -0.77229
 Alpha  occ. eigenvalues --   -0.76817  -0.76661  -0.75407  -0.73630  -0.71854
 Alpha  occ. eigenvalues --   -0.71000  -0.70734  -0.69113  -0.68704  -0.68236
 Alpha  occ. eigenvalues --   -0.67734  -0.65685  -0.63392  -0.60936  -0.60076
 Alpha  occ. eigenvalues --   -0.59547  -0.58830  -0.57547  -0.57213  -0.56994
 Alpha  occ. eigenvalues --   -0.55992  -0.55533  -0.54841  -0.53325  -0.52629
 Alpha  occ. eigenvalues --   -0.52100  -0.51190  -0.50511  -0.49983  -0.49327
 Alpha  occ. eigenvalues --   -0.49062  -0.48462  -0.48345  -0.47471  -0.47114
 Alpha  occ. eigenvalues --   -0.46997  -0.46638  -0.45871  -0.45518  -0.45148
 Alpha  occ. eigenvalues --   -0.44528  -0.44279  -0.44032  -0.43728  -0.43407
 Alpha  occ. eigenvalues --   -0.43074  -0.42882  -0.42747  -0.42649  -0.42473
 Alpha  occ. eigenvalues --   -0.42257  -0.41656  -0.41453  -0.41187  -0.40847
 Alpha  occ. eigenvalues --   -0.40443  -0.40108  -0.39981  -0.39784  -0.39376
 Alpha  occ. eigenvalues --   -0.39310  -0.38915  -0.38789  -0.38298  -0.37966
 Alpha  occ. eigenvalues --   -0.37777  -0.37629  -0.36703  -0.36523  -0.36349
 Alpha  occ. eigenvalues --   -0.36244  -0.34834  -0.34663  -0.34444  -0.34390
 Alpha  occ. eigenvalues --   -0.33926  -0.33641  -0.32995  -0.32482  -0.31565
 Alpha  occ. eigenvalues --   -0.30867  -0.29455  -0.29110  -0.28410  -0.27318
 Alpha  occ. eigenvalues --   -0.27163  -0.26363  -0.25194  -0.24828  -0.24322
 Alpha  occ. eigenvalues --   -0.24191  -0.24059  -0.23862  -0.22105  -0.17206
 Alpha virt. eigenvalues --   -0.10336  -0.06388  -0.05377  -0.02319   0.00146
 Alpha virt. eigenvalues --    0.00300   0.01230   0.01810   0.02497   0.02741
 Alpha virt. eigenvalues --    0.03770   0.03964   0.04228   0.04664   0.05274

 Mulliken charges:
               1
     1  O   -0.191756
     2  O   -0.166922
     3  O   -0.256397
     4  O   -0.223595
     5  O   -0.268949
     6  O   -0.177149
     7  N    0.072487
     8  N   -0.236360
     9  N   -0.107539
    10  N   -0.357257
    11  C    0.110378
    12  C    0.107596
    13  C   -0.100301
    14  C   -0.146162
    15  C   -0.091087
    16  C   -0.013852
    17  C   -0.197440
    18  C    0.037361
    19  C   -0.074778
    20  C   -0.100954
    21  C    0.111131
    22  C    0.156236
    23  C   -0.106508
    24  C    0.035973
    25  C    0.037125
    26  C   -0.130936
    27  C    0.015150
    28  C    0.139888
    29  C    0.192229
    30  C    0.019241
    31  C   -0.056488
    32  C    0.149663
    33  C   -0.119887
    34  C    0.111596
    35  C    0.028292
    36  C   -0.093789
    37  C    0.199666
    38  C    0.044793
    39  C   -0.183391
    40  C    0.183978
    41  C    0.046592
    42  C    0.048654
    43  C   -0.041631
    44  H    0.000290
    45  H   -0.005297
    46  H    0.038159
    47  H    0.096537
    48  H    0.158839
    49  H    0.025223
    50  H    0.042843
    51  H   -0.001457
    52  H    0.022766
    53  H    0.040274
    54  H    0.056807
    55  H    0.013332
    56  H    0.068068
    57  H    0.055907
    58  H    0.052379
    59  H    0.011449
    60  H    0.179658
    61  H   -0.015439
    62  H   -0.013311
    63  H    0.034963
    64  H    0.018010
    65  H    0.079581
    66  H   -0.010130
    67  H    0.033496
    68  H    0.005687
    69  H    0.006310
    70  H    0.035214
    71  H    0.054032
    72  H    0.182741
    73  H   -0.030061
    74  H    0.016750
    75  H    0.041481
    76  H    0.022211
    77  H    0.220086
    78  H    0.021441
    79  H    0.036259
 Sum of Mulliken charges =  -0.00000

 Dipole moment (field-independent basis, Debye):
    X=              1.2541    Y=              0.4063    Z=              2.2083  Tot=              2.5719
 Quadrupole moment (field-independent basis, Debye-Ang):
   XX=           -216.4627   YY=           -235.0409   ZZ=           -266.2029
   XY=             -3.0160   XZ=             31.9228   YZ=              4.9936

 Normal termination of Gaussian 16 at Tue Oct  8 00:40:51 2019.
