 Gaussian 16, Revision A.03,
 Gaussian 16:  ES64L-G16RevA.03 25-Dec-2016

 --------------------------
 # td=(NStates=1) B3LYP/SVP
 --------------------------

 --
 TD
 --
 Symbolic Z-matrix:
 Charge =  0 Multiplicity = 1

                         Standard orientation:
 ---------------------------------------------------------------------
 Center     Atomic      Atomic             Coordinates (Angstroms)
 Number     Number       Type             X           Y           Z
 ---------------------------------------------------------------------
      1          8           0       -3.276447   -1.183338   -3.034639
      2          8           0        2.986193    2.771660    3.197738
      3          8           0        3.332796    1.172533    4.812548
      4          8           0        7.774996   -1.558423   -0.600648
      5          8           0        6.941272   -2.584674   -2.394708
      6          8           0       -2.567712    1.509112    1.487647
      7          7           0       -0.346190   -2.574290    0.788277
      8          7           0       -2.714993   -1.176873   -0.737182
      9          7           0        1.130508    0.069773   -0.735196
     10          7           0       -1.042802    1.510056   -0.208976
     11          6           0       -3.402678   -1.358657    0.462943
     12          6           0       -2.691537   -2.439792    1.330454
     13          6           0       -1.344445   -2.202491    1.608980
     14          6           0       -0.623824   -1.428360    2.669147
     15          6           0        0.686126   -1.344696    2.349618
     16          6           0        0.816415   -1.975148    1.089504
     17          6           0       -4.823549   -1.772692    0.095942
     18          6           0        1.792464   -0.740220    3.104346
     19          6           0       -4.821677   -1.917660   -1.235753
     20          6           0        2.003831   -1.985437    0.204242
     21          6           0        2.108716   -0.990251   -0.791190
     22          6           0       -3.513293   -1.477399   -1.821519
     23          6           0        3.041871   -0.647052   -1.715657
     24          6           0       -1.337652   -0.748498    3.762974
     25          6           0       -5.955515   -1.917707    1.078832
     26          6           0        2.720875    0.589673   -2.318093
     27          6           0        1.912496    0.750450    2.783302
     28          6           0        1.464174    1.000445   -1.611949
     29          6           0        4.299491   -1.349733   -1.987186
     30          6           0       -5.967972   -2.159599   -2.091745
     31          6           0        5.390926   -1.071239   -1.123729
     32          6           0        3.472195    1.317540   -3.441352
     33          6           0        0.671525    2.194699   -1.903131
     34          6           0        2.824930    1.492633    3.714836
     35          6           0       -0.579151    2.325369   -1.092784
     36          6           0       -6.945769   -3.179284   -1.874443
     37          6           0        6.702053   -1.840380   -1.463444
     38          6           0       -1.377509    3.565221   -0.999701
     39          6           0       -2.292752    3.370049   -0.059868
     40          6           0       -2.046488    2.038152    0.520205
     41          6           0       -1.106004    4.816660   -1.881721
     42          6           0       -3.242973    4.320505    0.610206
     43          6           0       -1.802505    6.013162   -2.037364
     44          1           0       -3.484214   -0.276338    0.962151
     45          1           0       -2.738808   -3.265993    0.695234
     46          1           0       -3.100097   -2.511478    2.193297
     47          1           0       -0.489621   -2.532667   -0.266089
     48          1           0       -2.112698   -0.505151   -0.982393
     49          1           0        1.510534   -0.870415    4.052735
     50          1           0        2.704282   -1.308536    3.066795
     51          1           0        2.894514   -2.627343    0.333149
     52          1           0       -2.054990   -1.445785    4.043020
     53          1           0       -0.672943   -0.709278    4.527537
     54          1           0       -2.010932    0.135090    3.466868
     55          1           0       -5.737823   -1.333845    2.046379
     56          1           0       -6.062816   -2.985316    1.365333
     57          1           0       -6.947983   -1.643050    0.586353
     58          1           0        2.178235    0.926820    1.662466
     59          1           0        0.996815    1.387357    2.808020
     60          1           0        0.301675    0.258752   -0.241749
     61          1           0        4.676827   -1.148645   -2.985970
     62          1           0        4.186573   -2.421016   -1.805458
     63          1           0       -5.841354   -1.765848   -3.022039
     64          1           0        5.235283   -1.245588   -0.172623
     65          1           0        5.643644   -0.082217   -1.000333
     66          1           0        4.272740    0.758954   -3.829450
     67          1           0        3.807810    2.319755   -3.160519
     68          1           0        2.720549    1.418654   -4.099129
     69          1           0        0.894557    3.049649   -2.532066
     70          1           0       -6.900694   -3.761102   -0.997842
     71          1           0       -7.827642   -3.219905   -2.530967
     72          1           0        3.534260    3.171945    3.741195
     73          1           0       -0.317401    4.530191   -2.517190
     74          1           0       -4.122118    4.402741   -0.015299
     75          1           0       -3.538529    3.748073    1.525152
     76          1           0       -2.867865    5.370362    1.010137
     77          1           0        8.581357   -1.938188   -0.753118
     78          1           0       -1.496107    6.607154   -2.878676
     79          1           0       -2.726228    6.207018   -1.396295
 ---------------------------------------------------------------------

 SCF Done:  E(RB3LYP) =  -1947.83527979     A.U. after   19 cycles

 Excitation energies and oscillator strengths:

 Excited State   1:      Singlet-A      0.8979 eV 1380.84 nm  f=0.0060  <S**2>=0.000
     155 ->156         0.70396
 This state for optimization and/or second-order correction.
 Total Energy, E(TD-HF/TD-DFT) =  -1947.80228289
 Copying the excited state density for this state as the 1-particle RhoCI density.

 The electronic state is 1-A.
 Alpha  occ. eigenvalues --  -19.17217 -19.16989 -19.14244 -19.13230 -19.12731
 Alpha  occ. eigenvalues --  -19.08910 -14.37850 -14.37093 -14.33399 -14.30211
 Alpha  occ. eigenvalues --  -10.34105 -10.32533 -10.28085 -10.27472 -10.27383
 Alpha  occ. eigenvalues --  -10.26210 -10.25294 -10.24006 -10.23780 -10.22880
 Alpha  occ. eigenvalues --  -10.22500 -10.22010 -10.21735 -10.21341 -10.21286
 Alpha  occ. eigenvalues --  -10.21226 -10.21083 -10.21059 -10.20880 -10.20792
 Alpha  occ. eigenvalues --  -10.20632 -10.20557 -10.19811 -10.19805 -10.19673
 Alpha  occ. eigenvalues --  -10.19263 -10.18982 -10.18465 -10.18232 -10.17621
 Alpha  occ. eigenvalues --  -10.17017 -10.16916 -10.16069  -1.09458  -1.09291
 Alpha  occ. eigenvalues --   -1.04162  -1.00902  -1.00839  -1.00020  -0.99570
 Alpha  occ. eigenvalues --   -0.98403  -0.95940  -0.93426  -0.86801  -0.82480
 Alpha  occ. eigenvalues --   -0.81769  -0.81652  -0.81433  -0.80388  -0.79826
 Alpha  occ. eigenvalues --   -0.77189  -0.76762  -0.75384  -0.74440  -0.74153
 Alpha  occ. eigenvalues --   -0.71836  -0.70998  -0.70445  -0.70144  -0.68523
 Alpha  occ. eigenvalues --   -0.68160  -0.66823  -0.64408  -0.63173  -0.61196
 Alpha  occ. eigenvalues --   -0.60715  -0.60436  -0.59632  -0.59282  -0.58640
 Alpha  occ. eigenvalues --   -0.57807  -0.56221  -0.55254  -0.54545  -0.53930
 Alpha  occ. eigenvalues --   -0.52853  -0.52823  -0.52461  -0.51620  -0.50244
 Alpha  occ. eigenvalues --   -0.49491  -0.49108  -0.48236  -0.48203  -0.47856
 Alpha  occ. eigenvalues --   -0.47727  -0.47543  -0.47085  -0.46598  -0.46231
 Alpha  occ. eigenvalues --   -0.45781  -0.45658  -0.45235  -0.45183  -0.44318
 Alpha  occ. eigenvalues --   -0.44232  -0.43707  -0.43332  -0.43326  -0.42947
 Alpha  occ. eigenvalues --   -0.42679  -0.42249  -0.41984  -0.41914  -0.41530
 Alpha  occ. eigenvalues --   -0.41392  -0.41183  -0.41038  -0.40812  -0.40673
 Alpha  occ. eigenvalues --   -0.40380  -0.40222  -0.39360  -0.39270  -0.38987
 Alpha  occ. eigenvalues --   -0.38527  -0.38331  -0.37769  -0.37533  -0.37375
 Alpha  occ. eigenvalues --   -0.36609  -0.36564  -0.36026  -0.35449  -0.35186
 Alpha  occ. eigenvalues --   -0.34575  -0.33658  -0.33002  -0.32733  -0.32115
 Alpha  occ. eigenvalues --   -0.31550  -0.29773  -0.29421  -0.29186  -0.28548
 Alpha  occ. eigenvalues --   -0.28411  -0.27352  -0.26315  -0.25248  -0.24402
 Alpha  occ. eigenvalues --   -0.24325  -0.24115  -0.22800  -0.22305  -0.18515
 Alpha virt. eigenvalues --   -0.12681  -0.08328  -0.04474  -0.02150  -0.01542
 Alpha virt. eigenvalues --   -0.01124  -0.00246   0.00777   0.02359   0.03372
 Alpha virt. eigenvalues --    0.04838   0.04907   0.05844   0.05925   0.05973

 Mulliken charges:
               1
     1  O   -0.288959
     2  O   -0.144798
     3  O   -0.254697
     4  O   -0.204734
     5  O   -0.208701
     6  O   -0.204366
     7  N    0.004252
     8  N   -0.123518
     9  N   -0.040739
    10  N   -0.242134
    11  C   -0.017699
    12  C    0.429293
    13  C   -0.182326
    14  C   -0.177550
    15  C   -0.102267
    16  C   -0.100224
    17  C   -0.150719
    18  C    0.285485
    19  C   -0.076109
    20  C   -0.086601
    21  C    0.104594
    22  C    0.139628
    23  C   -0.058602
    24  C    0.205970
    25  C    0.065639
    26  C   -0.169618
    27  C   -0.057184
    28  C    0.063618
    29  C    0.135636
    30  C    0.003942
    31  C    0.127022
    32  C    0.211699
    33  C   -0.064058
    34  C    0.157416
    35  C    0.033175
    36  C   -0.027838
    37  C    0.131579
    38  C   -0.004530
    39  C   -0.229490
    40  C    0.145122
    41  C    0.019909
    42  C    0.062318
    43  C   -0.002612
    44  H    0.078662
    45  H   -0.050980
    46  H   -0.093043
    47  H    0.137691
    48  H    0.090747
    49  H   -0.050949
    50  H   -0.011795
    51  H    0.012010
    52  H   -0.042266
    53  H   -0.040196
    54  H    0.058290
    55  H    0.035016
    56  H    0.037205
    57  H    0.045656
    58  H    0.048134
    59  H    0.060261
    60  H    0.137371
    61  H    0.014235
    62  H    0.004898
    63  H   -0.017279
    64  H   -0.035982
    65  H   -0.009203
    66  H    0.003608
    67  H    0.031686
    68  H    0.007796
    69  H   -0.008329
    70  H    0.008962
    71  H    0.034852
    72  H    0.113339
    73  H   -0.038510
    74  H    0.027291
    75  H    0.023010
    76  H    0.053232
    77  H    0.153110
    78  H    0.029021
    79  H    0.046228
 Sum of Mulliken charges =  -0.00000

 Dipole moment (field-independent basis, Debye):
    X=              2.8016    Y=              2.5627    Z=             -0.4914  Tot=              3.8286
 Quadrupole moment (field-independent basis, Debye-Ang):
   XX=           -232.1055   YY=           -239.8857   ZZ=           -277.9157
   XY=              6.9366   XZ=            -19.9793   YZ=            -16.8575

 Normal termination of Gaussian 16 at Sat Jul 27 10:47:10 2019.
