 Gaussian 16, Revision A.03,
 Gaussian 16:  ES64L-G16RevA.03 25-Dec-2016

 --------------------------
 # td=(NStates=1) B3LYP/SVP
 --------------------------

 --
 TD
 --
 Symbolic Z-matrix:
 Charge =  0 Multiplicity = 1

                         Standard orientation:
 ---------------------------------------------------------------------
 Center     Atomic      Atomic             Coordinates (Angstroms)
 Number     Number       Type             X           Y           Z
 ---------------------------------------------------------------------
      1          8           0        5.329452   -0.329233   -3.353316
      2          8           0       -3.014603   -2.839132    3.343573
      3          8           0       -3.430994   -0.630807    2.990727
      4          8           0       -1.901776    7.308034    1.342396
      5          8           0       -0.595776    6.952555   -0.500101
      6          8           0       -1.447548   -3.962512   -0.019642
      7          7           0        2.279268    0.920683    0.548415
      8          7           0        4.454402   -0.512488   -1.261249
      9          7           0       -1.851662    0.716960   -0.548946
     10          7           0       -2.433907   -2.001281   -0.553327
     11          6           0        4.866608   -1.064612   -0.007576
     12          6           0        4.356905   -0.206808    1.219403
     13          6           0        2.888114    0.016646    1.300874
     14          6           0        1.988023   -0.524266    2.217081
     15          6           0        0.651668    0.067135    1.867730
     16          6           0        0.873337    1.023004    0.830681
     17          6           0        6.353714   -1.273382   -0.102262
     18          6           0       -0.694999   -0.135273    2.540591
     19          6           0        6.730322   -0.935765   -1.340986
     20          6           0        0.009635    1.991785    0.166220
     21          6           0       -1.225134    1.791840   -0.420400
     22          6           0        5.470538   -0.462174   -2.084374
     23          6           0       -2.046730    2.830743   -0.926917
     24          6           0        2.166816   -1.554732    3.312135
     25          6           0        7.113967   -1.597704    1.063868
     26          6           0       -3.146495    2.300086   -1.422982
     27          6           0       -1.110861   -1.527794    2.530773
     28          6           0       -3.083448    0.853203   -1.178195
     29          6           0       -1.730350    4.350739   -0.969278
     30          6           0        8.052374   -0.776585   -2.007388
     31          6           0       -1.952424    5.133424    0.351689
     32          6           0       -4.476642    2.987892   -2.010368
     33          6           0       -3.948434   -0.213783   -1.387068
     34          6           0       -2.644315   -1.618696    2.950544
     35          6           0       -3.611592   -1.630936   -1.146589
     36          6           0        9.165566   -0.566490   -1.414639
     37          6           0       -1.501691    6.520098    0.327094
     38          6           0       -4.443147   -2.829721   -1.371470
     39          6           0       -3.679267   -3.938721   -0.871540
     40          6           0       -2.393770   -3.389027   -0.375098
     41          6           0       -5.726955   -2.735597   -2.121825
     42          6           0       -3.978933   -5.432609   -0.972739
     43          6           0       -6.659601   -3.709686   -2.374700
     44          1           0        4.712356   -2.105451    0.203297
     45          1           0        4.867028    0.695717    1.077493
     46          1           0        4.846774   -0.667997    2.119487
     47          1           0        2.774202    1.628602   -0.133273
     48          1           0        3.522840   -0.429795   -1.578483
     49          1           0       -0.637145    0.107567    3.581338
     50          1           0       -1.642096    0.430614    2.147116
     51          1           0        0.410363    3.016470    0.041353
     52          1           0        3.111756   -1.411210    3.771394
     53          1           0        1.604812   -1.495909    4.100771
     54          1           0        2.227454   -2.675179    2.981045
     55          1           0        6.693834   -2.162056    1.731805
     56          1           0        7.410520   -0.629643    1.748604
     57          1           0        7.936324   -1.993470    0.817210
     58          1           0       -1.070170   -2.106575    1.400375
     59          1           0       -0.375724   -2.366235    2.937920
     60          1           0       -1.574083   -0.286495   -0.285575
     61          1           0       -2.420999    4.797811   -1.831873
     62          1           0       -0.716607    4.429733   -1.333377
     63          1           0        8.070710   -0.870810   -3.097640
     64          1           0       -1.559526    4.802673    1.309188
     65          1           0       -2.954722    5.115479    0.500512
     66          1           0       -4.504106    4.014281   -2.094949
     67          1           0       -5.331042    2.679398   -1.520112
     68          1           0       -4.729365    2.710692   -3.111922
     69          1           0       -4.809897   -0.322213   -2.116706
     70          1           0        9.407055   -0.513473   -0.337427
     71          1           0        9.932671   -0.514552   -1.969870
     72          1           0       -4.049212   -2.762775    3.681896
     73          1           0       -5.835619   -1.920116   -2.555413
     74          1           0       -4.637624   -5.651857   -0.047392
     75          1           0       -4.515157   -5.687808   -1.956594
     76          1           0       -2.942971   -6.112523   -0.960847
     77          1           0       -1.456078    8.240510    1.147016
     78          1           0       -7.567067   -3.404183   -3.062148
     79          1           0       -6.643023   -4.890990   -2.061295
 ---------------------------------------------------------------------

 SCF Done:  E(RB3LYP) =  -1947.77412486     A.U. after   17 cycles

 Excitation energies and oscillator strengths:

 Excited State   1:      Singlet-A      1.9064 eV  650.36 nm  f=0.3131  <S**2>=0.000
     154 ->156         0.18387
     155 ->156         0.67510
     155 <-156        -0.10942
 This state for optimization and/or second-order correction.
 Total Energy, E(TD-HF/TD-DFT) =  -1947.70406601
 Copying the excited state density for this state as the 1-particle RhoCI density.

 The electronic state is 1-A.
 Alpha  occ. eigenvalues --  -19.20159 -19.18600 -19.12255 -19.11397 -19.11233
 Alpha  occ. eigenvalues --  -19.08024 -14.38879 -14.36494 -14.36040 -14.28647
 Alpha  occ. eigenvalues --  -10.32963 -10.31497 -10.27596 -10.26384 -10.25425
 Alpha  occ. eigenvalues --  -10.24399 -10.24104 -10.23375 -10.23104 -10.23039
 Alpha  occ. eigenvalues --  -10.22190 -10.22077 -10.21609 -10.21606 -10.21430
 Alpha  occ. eigenvalues --  -10.21368 -10.21329 -10.21311 -10.21261 -10.20791
 Alpha  occ. eigenvalues --  -10.20624 -10.20538 -10.20243 -10.20242 -10.20035
 Alpha  occ. eigenvalues --  -10.20018 -10.19870 -10.19419 -10.19234 -10.19221
 Alpha  occ. eigenvalues --  -10.18645 -10.18466 -10.17220  -1.08940  -1.07235
 Alpha  occ. eigenvalues --   -1.05184  -1.01727  -1.01012  -0.97773  -0.96979
 Alpha  occ. eigenvalues --   -0.96790  -0.93066  -0.91213  -0.83926  -0.82867
 Alpha  occ. eigenvalues --   -0.81708  -0.80155  -0.79803  -0.79585  -0.79064
 Alpha  occ. eigenvalues --   -0.78219  -0.75930  -0.75922  -0.74470  -0.73767
 Alpha  occ. eigenvalues --   -0.72386  -0.71163  -0.70114  -0.69033  -0.68829
 Alpha  occ. eigenvalues --   -0.66482  -0.65226  -0.63988  -0.62037  -0.61113
 Alpha  occ. eigenvalues --   -0.60123  -0.59207  -0.58951  -0.57929  -0.57514
 Alpha  occ. eigenvalues --   -0.56442  -0.56139  -0.55632  -0.55246  -0.53654
 Alpha  occ. eigenvalues --   -0.52659  -0.51912  -0.51374  -0.51036  -0.49862
 Alpha  occ. eigenvalues --   -0.49287  -0.48993  -0.48174  -0.48154  -0.47517
 Alpha  occ. eigenvalues --   -0.46977  -0.46802  -0.46610  -0.46461  -0.46284
 Alpha  occ. eigenvalues --   -0.45398  -0.44943  -0.44586  -0.43998  -0.43848
 Alpha  occ. eigenvalues --   -0.43341  -0.43249  -0.42825  -0.42545  -0.42300
 Alpha  occ. eigenvalues --   -0.42046  -0.42011  -0.41902  -0.41403  -0.41028
 Alpha  occ. eigenvalues --   -0.40937  -0.40663  -0.40564  -0.40407  -0.39846
 Alpha  occ. eigenvalues --   -0.39671  -0.39127  -0.39054  -0.38852  -0.38557
 Alpha  occ. eigenvalues --   -0.38125  -0.38025  -0.37232  -0.37142  -0.36649
 Alpha  occ. eigenvalues --   -0.36205  -0.36006  -0.35846  -0.35274  -0.34858
 Alpha  occ. eigenvalues --   -0.34357  -0.33292  -0.31581  -0.31197  -0.30974
 Alpha  occ. eigenvalues --   -0.30651  -0.29777  -0.28614  -0.27648  -0.27532
 Alpha  occ. eigenvalues --   -0.27024  -0.26640  -0.26081  -0.24759  -0.24215
 Alpha  occ. eigenvalues --   -0.23938  -0.23642  -0.23227  -0.21935  -0.19138
 Alpha virt. eigenvalues --   -0.11512  -0.06774  -0.04586  -0.01946  -0.01029
 Alpha virt. eigenvalues --    0.00587   0.01235   0.01931   0.02360   0.02576
 Alpha virt. eigenvalues --    0.03143   0.03601   0.04080   0.04436   0.05080

 Mulliken charges:
               1
     1  O   -0.308750
     2  O   -0.218318
     3  O   -0.294548
     4  O   -0.210507
     5  O   -0.322895
     6  O   -0.132771
     7  N   -0.114304
     8  N   -0.070875
     9  N    0.018890
    10  N   -0.323871
    11  C    0.083235
    12  C    0.192674
    13  C   -0.044085
    14  C   -0.151489
    15  C   -0.077927
    16  C    0.064164
    17  C   -0.205968
    18  C    0.116752
    19  C   -0.046641
    20  C   -0.127141
    21  C    0.033652
    22  C    0.108632
    23  C   -0.120632
    24  C    0.178432
    25  C    0.243879
    26  C   -0.078161
    27  C   -0.180619
    28  C    0.115167
    29  C    0.074355
    30  C   -0.003562
    31  C    0.119042
    32  C    0.132733
    33  C   -0.061953
    34  C    0.192525
    35  C   -0.009225
    36  C    0.052045
    37  C    0.137073
    38  C    0.049795
    39  C   -0.194839
    40  C    0.140264
    41  C    0.097936
    42  C   -0.012417
    43  C   -0.098172
    44  H    0.015457
    45  H   -0.031516
    46  H   -0.001778
    47  H    0.154311
    48  H    0.118435
    49  H   -0.004450
    50  H    0.055838
    51  H   -0.003253
    52  H   -0.031161
    53  H   -0.037975
    54  H    0.035850
    55  H   -0.045359
    56  H    0.040734
    57  H   -0.042425
    58  H    0.102778
    59  H    0.041488
    60  H    0.172002
    61  H    0.037788
    62  H    0.024059
    63  H    0.014439
    64  H    0.048081
    65  H   -0.005717
    66  H   -0.015760
    67  H    0.009587
    68  H    0.020431
    69  H    0.007060
    70  H    0.007305
    71  H   -0.041463
    72  H    0.230171
    73  H   -0.112739
    74  H    0.054255
    75  H    0.047430
    76  H    0.061963
    77  H    0.228929
    78  H    0.042713
    79  H    0.060921
 Sum of Mulliken charges =  -0.00000

 Dipole moment (field-independent basis, Debye):
    X=             -1.2392    Y=              1.4734    Z=              4.1003  Tot=              4.5298
 Quadrupole moment (field-independent basis, Debye-Ang):
   XX=           -216.6371   YY=           -240.8573   ZZ=           -262.6243
   XY=             -6.4304   XZ=             38.7314   YZ=              0.9346

 Normal termination of Gaussian 16 at Mon Sep 30 05:35:43 2019.
