 Gaussian 16, Revision A.03,
 Gaussian 16:  ES64L-G16RevA.03 25-Dec-2016

 --------------------------
 # td=(NStates=1) B3LYP/SVP
 --------------------------

 --
 TD
 --
 Symbolic Z-matrix:
 Charge =  0 Multiplicity = 1

                         Standard orientation:
 ---------------------------------------------------------------------
 Center     Atomic      Atomic             Coordinates (Angstroms)
 Number     Number       Type             X           Y           Z
 ---------------------------------------------------------------------
      1          8           0       -2.993938   -2.331612   -2.290101
      2          8           0        2.946095    4.063855    2.219409
      3          8           0        3.541858    2.801963    3.959152
      4          8           0        7.533505   -1.631497   -0.364110
      5          8           0        6.668784   -3.573631   -0.901884
      6          8           0       -2.636568    1.968267    0.809519
      7          7           0       -0.388616   -1.940402    1.541688
      8          7           0       -2.527568   -1.357456   -0.248319
      9          7           0        1.206134   -0.149233   -0.651615
     10          7           0       -0.991223    1.257223   -0.682226
     11          6           0       -3.275626   -1.089870    0.914446
     12          6           0       -2.699692   -1.646616    2.299563
     13          6           0       -1.280268   -1.307926    2.283468
     14          6           0       -0.627070   -0.329903    3.055962
     15          6           0        0.686910   -0.341633    2.717765
     16          6           0        0.842135   -1.391920    1.735745
     17          6           0       -4.652989   -1.765840    0.668354
     18          6           0        1.848503    0.615068    3.196085
     19          6           0       -4.681923   -2.349579   -0.564330
     20          6           0        1.974688   -1.844862    0.819912
     21          6           0        2.042517   -1.137596   -0.333168
     22          6           0       -3.348518   -2.084372   -1.159000
     23          6           0        2.909596   -1.370479   -1.543196
     24          6           0       -1.331480    0.739483    3.829937
     25          6           0       -5.772079   -1.666465    1.565504
     26          6           0        2.463146   -0.353574   -2.452226
     27          6           0        1.802649    2.041598    2.424596
     28          6           0        1.366369    0.287382   -1.956425
     29          6           0        4.140858   -2.236590   -1.595228
     30          6           0       -5.660962   -3.114006   -1.247309
     31          6           0        5.389244   -1.510491   -0.948373
     32          6           0        3.099094   -0.205563   -3.829078
     33          6           0        0.480181    1.262312   -2.521086
     34          6           0        2.867379    2.920523    3.039024
     35          6           0       -0.569325    1.839436   -1.910325
     36          6           0       -6.730608   -3.708543   -0.703778
     37          6           0        6.546032   -2.356914   -0.635945
     38          6           0       -1.386987    3.165585   -2.216151
     39          6           0       -2.210999    3.370573   -1.126168
     40          6           0       -1.940290    2.115545   -0.216327
     41          6           0       -1.054241    3.879924   -3.336376
     42          6           0       -3.219990    4.402755   -0.775125
     43          6           0       -1.913322    4.876014   -3.807113
     44          1           0       -3.210120   -0.048968    1.050083
     45          1           0       -2.860911   -2.686057    2.276118
     46          1           0       -3.157604   -1.179281    3.194921
     47          1           0       -0.528509   -2.577646    0.807872
     48          1           0       -1.983767   -0.564835   -0.607936
     49          1           0        1.566879    0.822061    4.170594
     50          1           0        2.899654    0.237078    3.023361
     51          1           0        2.713619   -2.640470    1.150995
     52          1           0       -1.959902    0.156808    4.380143
     53          1           0       -0.779951    1.558134    4.223170
     54          1           0       -2.162292    1.142997    2.999286
     55          1           0       -5.557485   -0.872770    2.246141
     56          1           0       -6.019605   -2.730859    2.160948
     57          1           0       -6.659039   -1.520907    0.813772
     58          1           0        2.012085    1.666822    1.528260
     59          1           0        0.651003    2.367895    2.552655
     60          1           0        0.236362    0.322924   -0.328451
     61          1           0        4.119709   -2.640685   -2.572473
     62          1           0        3.830477   -3.072359   -0.993009
     63          1           0       -5.401056   -3.408400   -2.395605
     64          1           0        5.192623   -1.015629    0.035571
     65          1           0        5.820701   -0.665415   -1.987743
     66          1           0        4.102942   -0.914140   -4.018340
     67          1           0        3.508319    0.875838   -3.928624
     68          1           0        2.381316   -0.132554   -4.705950
     69          1           0        1.097942    1.869039   -3.331568
     70          1           0       -7.095057   -3.784743    0.321676
     71          1           0       -7.456553   -4.238298   -1.467779
     72          1           0        3.541248    4.798174    2.526503
     73          1           0       -0.190810    3.484298   -3.989892
     74          1           0       -3.906258    4.056037   -1.455864
     75          1           0       -3.844214    4.372446    0.205296
     76          1           0       -2.838301    5.560481   -0.886714
     77          1           0        8.181308   -2.355956   -0.217708
     78          1           0       -1.545016    5.325005   -4.737278
     79          1           0       -2.886305    5.163528   -3.256817
 ---------------------------------------------------------------------

 SCF Done:  E(RB3LYP) =  -1947.78259075     A.U. after   23 cycles

 Excitation energies and oscillator strengths:

 Excited State   1:      Singlet-A      0.5955 eV 2081.98 nm  f=0.0004  <S**2>=0.000
     155 ->156         0.70486
 This state for optimization and/or second-order correction.
 Total Energy, E(TD-HF/TD-DFT) =  -1947.76070615
 Copying the excited state density for this state as the 1-particle RhoCI density.

 The electronic state is 1-A.
 Alpha  occ. eigenvalues --  -19.21355 -19.15266 -19.13313 -19.13197 -19.10656
 Alpha  occ. eigenvalues --  -19.08129 -14.36588 -14.36287 -14.31929 -14.31688
 Alpha  occ. eigenvalues --  -10.33191 -10.31441 -10.28029 -10.26572 -10.26187
 Alpha  occ. eigenvalues --  -10.25710 -10.25610 -10.25530 -10.23894 -10.23827
 Alpha  occ. eigenvalues --  -10.23434 -10.22600 -10.22397 -10.22011 -10.21670
 Alpha  occ. eigenvalues --  -10.21448 -10.21334 -10.21286 -10.21083 -10.20590
 Alpha  occ. eigenvalues --  -10.20358 -10.20162 -10.20061 -10.19709 -10.19588
 Alpha  occ. eigenvalues --  -10.19083 -10.18901 -10.18816 -10.18429 -10.17849
 Alpha  occ. eigenvalues --  -10.17005 -10.16852 -10.15603  -1.15986  -1.09624
 Alpha  occ. eigenvalues --   -1.01036  -1.00710  -1.00350  -1.00219  -0.99574
 Alpha  occ. eigenvalues --   -0.98049  -0.92166  -0.91647  -0.83448  -0.83048
 Alpha  occ. eigenvalues --   -0.82305  -0.81289  -0.79914  -0.78985  -0.78423
 Alpha  occ. eigenvalues --   -0.76958  -0.75999  -0.75763  -0.74654  -0.73450
 Alpha  occ. eigenvalues --   -0.70737  -0.70069  -0.69630  -0.69518  -0.68082
 Alpha  occ. eigenvalues --   -0.66416  -0.65120  -0.62448  -0.61719  -0.61290
 Alpha  occ. eigenvalues --   -0.59589  -0.59483  -0.58460  -0.57225  -0.55802
 Alpha  occ. eigenvalues --   -0.55536  -0.54782  -0.54586  -0.53363  -0.52271
 Alpha  occ. eigenvalues --   -0.52258  -0.51498  -0.51254  -0.50604  -0.50544
 Alpha  occ. eigenvalues --   -0.50122  -0.49161  -0.48676  -0.48339  -0.47685
 Alpha  occ. eigenvalues --   -0.47413  -0.47071  -0.46501  -0.46326  -0.45977
 Alpha  occ. eigenvalues --   -0.45221  -0.44958  -0.44842  -0.44276  -0.43513
 Alpha  occ. eigenvalues --   -0.43247  -0.42937  -0.42537  -0.42267  -0.42071
 Alpha  occ. eigenvalues --   -0.41917  -0.41811  -0.41098  -0.40841  -0.40685
 Alpha  occ. eigenvalues --   -0.40472  -0.40139  -0.39981  -0.39802  -0.39246
 Alpha  occ. eigenvalues --   -0.39065  -0.38881  -0.38543  -0.38028  -0.37850
 Alpha  occ. eigenvalues --   -0.37742  -0.37112  -0.37001  -0.36403  -0.35835
 Alpha  occ. eigenvalues --   -0.35674  -0.35438  -0.35053  -0.34599  -0.34013
 Alpha  occ. eigenvalues --   -0.33853  -0.33477  -0.33116  -0.32369  -0.32124
 Alpha  occ. eigenvalues --   -0.31618  -0.30267  -0.30069  -0.29092  -0.29031
 Alpha  occ. eigenvalues --   -0.28544  -0.26544  -0.25222  -0.24083  -0.23663
 Alpha  occ. eigenvalues --   -0.23205  -0.22844  -0.22357  -0.22343  -0.17891
 Alpha virt. eigenvalues --   -0.12954  -0.07626  -0.04265  -0.04091  -0.02149
 Alpha virt. eigenvalues --    0.01044   0.01685   0.01952   0.02948   0.03248
 Alpha virt. eigenvalues --    0.03824   0.04113   0.04795   0.04937   0.05313

 Mulliken charges:
               1
     1  O   -0.222873
     2  O   -0.272795
     3  O   -0.135306
     4  O   -0.080056
     5  O   -0.283854
     6  O   -0.254539
     7  N    0.053379
     8  N   -0.215972
     9  N   -0.099251
    10  N   -0.358576
    11  C    0.043441
    12  C    0.298804
    13  C   -0.190815
    14  C   -0.128077
    15  C   -0.114695
    16  C   -0.089519
    17  C   -0.158817
    18  C    0.103978
    19  C    0.005847
    20  C   -0.145917
    21  C    0.147289
    22  C    0.117435
    23  C   -0.142445
    24  C    0.109506
    25  C    0.021818
    26  C   -0.085266
    27  C   -0.025394
    28  C    0.046393
    29  C    0.196035
    30  C   -0.041225
    31  C   -0.070113
    32  C    0.006453
    33  C   -0.100049
    34  C    0.153194
    35  C    0.110947
    36  C   -0.087453
    37  C    0.115444
    38  C    0.120271
    39  C   -0.161112
    40  C    0.187912
    41  C   -0.104374
    42  C    0.026209
    43  C   -0.034636
    44  H    0.006687
    45  H   -0.052511
    46  H   -0.013652
    47  H    0.095633
    48  H    0.145345
    49  H   -0.010679
    50  H    0.006975
    51  H    0.042980
    52  H   -0.023693
    53  H    0.008265
    54  H    0.056989
    55  H    0.021910
    56  H    0.056605
    57  H    0.060493
    58  H   -0.006299
    59  H    0.087691
    60  H    0.235670
    61  H    0.017975
    62  H    0.003101
    63  H    0.048544
    64  H    0.058466
    65  H    0.089196
    66  H    0.054612
    67  H    0.025854
    68  H    0.045758
    69  H    0.022806
    70  H    0.018706
    71  H    0.031846
    72  H    0.181176
    73  H    0.020679
    74  H    0.030267
    75  H    0.048588
    76  H    0.065216
    77  H    0.176220
    78  H    0.028321
    79  H    0.053037
 Sum of Mulliken charges =  -0.00000

 Dipole moment (field-independent basis, Debye):
    X=              3.4939    Y=              2.7645    Z=             -1.7926  Tot=              4.8025
 Quadrupole moment (field-independent basis, Debye-Ang):
   XX=           -229.2127   YY=           -249.2917   ZZ=           -259.6866
   XY=             -1.3306   XZ=            -19.1297   YZ=            -18.6241

 Normal termination of Gaussian 16 at Tue Jul 30 21:15:13 2019.
