 Gaussian 16, Revision A.03,
 Gaussian 16:  ES64L-G16RevA.03 25-Dec-2016

 --------------------------
 # td=(NStates=1) B3LYP/SVP
 --------------------------

 --
 TD
 --
 Symbolic Z-matrix:
 Charge =  0 Multiplicity = 1

                         Standard orientation:
 ---------------------------------------------------------------------
 Center     Atomic      Atomic             Coordinates (Angstroms)
 Number     Number       Type             X           Y           Z
 ---------------------------------------------------------------------
      1          8           0       -3.315909   -1.843552   -2.614720
      2          8           0        2.836469    3.759723    2.467072
      3          8           0        3.407956    2.294856    4.036089
      4          8           0        8.005266   -1.668384   -0.635377
      5          8           0        6.588898   -3.407707   -1.396964
      6          8           0       -2.746137    1.810012    1.107118
      7          7           0       -0.247287   -2.264654    1.404798
      8          7           0       -2.729111   -1.409322   -0.420669
      9          7           0        1.211747   -0.011042   -0.676018
     10          7           0       -1.058018    1.336213   -0.370848
     11          6           0       -3.306219   -1.281505    0.830698
     12          6           0       -2.572794   -2.177030    1.852195
     13          6           0       -1.149933   -1.774018    2.112537
     14          6           0       -0.562251   -0.721924    3.011169
     15          6           0        0.691258   -0.665734    2.643500
     16          6           0        0.980520   -1.629859    1.592525
     17          6           0       -4.715677   -1.831735    0.510214
     18          6           0        1.686475    0.288382    3.257966
     19          6           0       -4.785659   -2.202681   -0.827402
     20          6           0        2.116249   -1.845439    0.692561
     21          6           0        2.180433   -1.006349   -0.433256
     22          6           0       -3.417512   -1.777666   -1.391982
     23          6           0        3.145962   -0.858743   -1.454461
     24          6           0       -1.442689    0.136233    3.933128
     25          6           0       -5.790271   -2.023959    1.529434
     26          6           0        2.720969    0.124124   -2.363498
     27          6           0        1.615918    1.663191    2.404898
     28          6           0        1.471896    0.667094   -1.778245
     29          6           0        4.308479   -1.836821   -1.709849
     30          6           0       -5.716752   -2.702248   -1.827484
     31          6           0        5.578048   -1.220796   -1.056707
     32          6           0        3.373140    0.668037   -3.603107
     33          6           0        0.553781    1.641420   -2.211141
     34          6           0        2.736193    2.613639    3.135715
     35          6           0       -0.516768    2.025446   -1.518626
     36          6           0       -6.820932   -3.521274   -1.542285
     37          6           0        6.726774   -2.243720   -0.984275
     38          6           0       -1.435582    3.123053   -1.756598
     39          6           0       -2.355581    3.280063   -0.784279
     40          6           0       -2.051812    2.154858    0.051649
     41          6           0       -1.366056    4.073305   -2.801261
     42          6           0       -3.432520    4.168775   -0.380030
     43          6           0       -1.994610    5.176819   -3.143454
     44          1           0       -3.265662   -0.346486    1.371703
     45          1           0       -2.375198   -3.195475    1.576946
     46          1           0       -3.374915   -1.963444    2.947118
     47          1           0       -0.259711   -2.985955    0.546209
     48          1           0       -1.994160   -0.755201   -0.618553
     49          1           0        1.590637    0.449194    4.397759
     50          1           0        2.784676   -0.030920    3.119124
     51          1           0        2.902095   -2.454246    0.798345
     52          1           0       -2.106318   -0.423592    4.525541
     53          1           0       -0.569460    0.497552    4.717992
     54          1           0       -1.671799    1.177024    3.342456
     55          1           0       -6.152958   -1.004471    2.243268
     56          1           0       -5.508381   -2.996372    2.316342
     57          1           0       -6.726830   -2.152042    0.977196
     58          1           0        1.938508    1.847043    1.390327
     59          1           0        0.573369    2.309185    2.649127
     60          1           0        0.168185    0.055362   -0.193927
     61          1           0        4.590263   -1.820717   -2.702544
     62          1           0        4.117188   -2.844823   -1.189105
     63          1           0       -5.287093   -2.467073   -2.993221
     64          1           0        5.310686   -1.031766   -0.041419
     65          1           0        5.688108   -0.312422   -1.374080
     66          1           0        4.102096   -0.253819   -4.105201
     67          1           0        3.998783    1.521108   -3.479079
     68          1           0        2.505983    0.905180   -4.425956
     69          1           0        0.803821    2.118250   -3.193335
     70          1           0       -7.024779   -3.918325   -0.650282
     71          1           0       -7.415649   -3.975563   -2.429805
     72          1           0        3.557922    4.111263    2.996569
     73          1           0       -0.544916    3.637909   -3.486829
     74          1           0       -4.158052    4.113697   -1.138227
     75          1           0       -4.001773    3.705692    0.403140
     76          1           0       -3.139409    5.219010   -0.216966
     77          1           0        8.516767   -2.401283   -0.941970
     78          1           0       -1.873854    5.887235   -4.026088
     79          1           0       -2.866670    5.763727   -2.320658
 ---------------------------------------------------------------------

 SCF Done:  E(RB3LYP) =  -1947.68318348     A.U. after   22 cycles

 Excitation energies and oscillator strengths:

 Excited State   1:      Singlet-A      0.5847 eV 2120.37 nm  f=0.0039  <S**2>=0.000
     155 ->156         0.70338
 This state for optimization and/or second-order correction.
 Total Energy, E(TD-HF/TD-DFT) =  -1947.66169509
 Copying the excited state density for this state as the 1-particle RhoCI density.

 The electronic state is 1-A.
 Alpha  occ. eigenvalues --  -19.19778 -19.18628 -19.16279 -19.13188 -19.10164
 Alpha  occ. eigenvalues --  -19.07451 -14.39479 -14.38517 -14.34227 -14.31092
 Alpha  occ. eigenvalues --  -10.35394 -10.31280 -10.27528 -10.26436 -10.26365
 Alpha  occ. eigenvalues --  -10.25615 -10.25107 -10.24842 -10.24366 -10.23887
 Alpha  occ. eigenvalues --  -10.23742 -10.22853 -10.22145 -10.22065 -10.21980
 Alpha  occ. eigenvalues --  -10.21594 -10.21518 -10.21394 -10.21288 -10.20843
 Alpha  occ. eigenvalues --  -10.20778 -10.20735 -10.20706 -10.20591 -10.20150
 Alpha  occ. eigenvalues --  -10.19986 -10.19669 -10.19388 -10.18517 -10.17976
 Alpha  occ. eigenvalues --  -10.17697 -10.17642 -10.16853  -1.12183  -1.09486
 Alpha  occ. eigenvalues --   -1.02895  -1.02130  -1.02029  -1.01116  -1.00132
 Alpha  occ. eigenvalues --   -0.98844  -0.95328  -0.91900  -0.85193  -0.83212
 Alpha  occ. eigenvalues --   -0.82221  -0.80641  -0.80222  -0.79653  -0.79142
 Alpha  occ. eigenvalues --   -0.77504  -0.76256  -0.74502  -0.74025  -0.72623
 Alpha  occ. eigenvalues --   -0.71445  -0.70286  -0.69263  -0.68214  -0.68014
 Alpha  occ. eigenvalues --   -0.67346  -0.65993  -0.63951  -0.62226  -0.60486
 Alpha  occ. eigenvalues --   -0.60417  -0.59840  -0.58778  -0.58086  -0.57549
 Alpha  occ. eigenvalues --   -0.56389  -0.55468  -0.54729  -0.53684  -0.53160
 Alpha  occ. eigenvalues --   -0.52611  -0.52159  -0.51790  -0.50708  -0.50537
 Alpha  occ. eigenvalues --   -0.49806  -0.49706  -0.49457  -0.48575  -0.48090
 Alpha  occ. eigenvalues --   -0.47434  -0.47350  -0.47025  -0.46648  -0.46207
 Alpha  occ. eigenvalues --   -0.45546  -0.45481  -0.44898  -0.44560  -0.44286
 Alpha  occ. eigenvalues --   -0.43988  -0.43836  -0.43066  -0.42360  -0.42160
 Alpha  occ. eigenvalues --   -0.41796  -0.41575  -0.41504  -0.41129  -0.41055
 Alpha  occ. eigenvalues --   -0.40770  -0.40539  -0.40280  -0.40123  -0.40017
 Alpha  occ. eigenvalues --   -0.39425  -0.39155  -0.38527  -0.38247  -0.38041
 Alpha  occ. eigenvalues --   -0.37677  -0.37452  -0.37100  -0.36496  -0.35742
 Alpha  occ. eigenvalues --   -0.35220  -0.34920  -0.34683  -0.34382  -0.34340
 Alpha  occ. eigenvalues --   -0.33844  -0.33123  -0.32728  -0.32174  -0.31528
 Alpha  occ. eigenvalues --   -0.31096  -0.31051  -0.29254  -0.28910  -0.28745
 Alpha  occ. eigenvalues --   -0.28369  -0.27719  -0.25579  -0.24608  -0.24472
 Alpha  occ. eigenvalues --   -0.23984  -0.22756  -0.22453  -0.21302  -0.18595
 Alpha virt. eigenvalues --   -0.13700  -0.08429  -0.04147  -0.04140  -0.01702
 Alpha virt. eigenvalues --    0.01121   0.01630   0.02156   0.02178   0.02659
 Alpha virt. eigenvalues --    0.03066   0.03724   0.03977   0.04332   0.05116

 Mulliken charges:
               1
     1  O   -0.272372
     2  O   -0.148291
     3  O   -0.194943
     4  O   -0.214350
     5  O   -0.237988
     6  O   -0.304384
     7  N    0.000121
     8  N   -0.020825
     9  N   -0.134914
    10  N   -0.331263
    11  C    0.117154
    12  C    0.069997
    13  C   -0.137124
    14  C   -0.118215
    15  C   -0.028570
    16  C   -0.044675
    17  C   -0.127767
    18  C    0.044862
    19  C   -0.067024
    20  C   -0.019500
    21  C    0.077918
    22  C    0.043895
    23  C   -0.109484
    24  C    0.062915
    25  C   -0.046848
    26  C   -0.081129
    27  C   -0.083476
    28  C    0.079428
    29  C    0.153932
    30  C   -0.073483
    31  C    0.064182
    32  C   -0.017756
    33  C   -0.161688
    34  C    0.090220
    35  C    0.223184
    36  C   -0.023389
    37  C    0.206832
    38  C    0.025483
    39  C   -0.175358
    40  C    0.146662
    41  C    0.030631
    42  C    0.185270
    43  C   -0.136324
    44  H    0.047452
    45  H   -0.031850
    46  H    0.034412
    47  H    0.164527
    48  H    0.119748
    49  H    0.050550
    50  H    0.006264
    51  H   -0.059655
    52  H    0.011738
    53  H   -0.004188
    54  H    0.090729
    55  H    0.039552
    56  H    0.062533
    57  H    0.028245
    58  H    0.042317
    59  H    0.071369
    60  H    0.261927
    61  H   -0.010821
    62  H    0.051304
    63  H    0.088413
    64  H    0.019888
    65  H   -0.028173
    66  H    0.051688
    67  H    0.054184
    68  H    0.067102
    69  H   -0.005873
    70  H   -0.011451
    71  H    0.033065
    72  H    0.148173
    73  H   -0.013709
    74  H    0.004827
    75  H    0.009934
    76  H    0.044409
    77  H    0.164455
    78  H    0.049969
    79  H    0.035399
 Sum of Mulliken charges =  -0.00000

 Dipole moment (field-independent basis, Debye):
    X=              6.0918    Y=              2.1286    Z=             -1.9143  Tot=              6.7309
 Quadrupole moment (field-independent basis, Debye-Ang):
   XX=           -248.5131   YY=           -243.7948   ZZ=           -263.4786
   XY=             -2.1075   XZ=            -24.5362   YZ=            -15.9947

 Normal termination of Gaussian 16 at Fri Jul 26 14:43:22 2019.
