 Gaussian 16, Revision A.03,
 Gaussian 16:  ES64L-G16RevA.03 25-Dec-2016

 --------------------------
 # td=(NStates=1) B3LYP/SVP
 --------------------------

 --
 TD
 --
 Symbolic Z-matrix:
 Charge =  0 Multiplicity = 1

                         Standard orientation:
 ---------------------------------------------------------------------
 Center     Atomic      Atomic             Coordinates (Angstroms)
 Number     Number       Type             X           Y           Z
 ---------------------------------------------------------------------
      1          8           0       -3.154711   -1.273929   -2.828363
      2          8           0        3.137304    3.030294    3.153516
      3          8           0        3.767274    1.258907    4.335415
      4          8           0        7.804501   -1.455143   -0.942609
      5          8           0        6.692396   -3.061619   -2.108439
      6          8           0       -2.643804    1.713841    1.426203
      7          7           0       -0.387685   -2.394156    0.874301
      8          7           0       -2.725273   -1.170788   -0.619434
      9          7           0        1.107354    0.172978   -0.716312
     10          7           0       -0.965471    1.520682   -0.205759
     11          6           0       -3.380020   -1.369499    0.700781
     12          6           0       -2.696129   -2.339116    1.663854
     13          6           0       -1.269001   -2.153515    1.857737
     14          6           0       -0.551630   -1.323962    2.793177
     15          6           0        0.778593   -1.263392    2.526448
     16          6           0        0.882014   -1.909034    1.186719
     17          6           0       -4.801833   -1.858120    0.176187
     18          6           0        1.858431   -0.426216    3.105083
     19          6           0       -4.779036   -2.036655   -1.175085
     20          6           0        2.076476   -1.936960    0.342131
     21          6           0        2.102482   -0.938783   -0.695226
     22          6           0       -3.534079   -1.490338   -1.698712
     23          6           0        2.988729   -0.571811   -1.710085
     24          6           0       -1.283332   -0.579925    3.932358
     25          6           0       -5.843226   -2.236960    1.235723
     26          6           0        2.552595    0.627621   -2.359512
     27          6           0        1.700174    1.141533    2.933675
     28          6           0        1.316704    1.014761   -1.666105
     29          6           0        4.150564   -1.453919   -1.985621
     30          6           0       -5.573822   -2.671086   -2.196736
     31          6           0        5.539794   -1.148050   -1.208668
     32          6           0        3.150726    1.282774   -3.571984
     33          6           0        0.582840    2.153021   -1.941827
     34          6           0        3.015255    1.783502    3.585751
     35          6           0       -0.627431    2.372290   -1.137373
     36          6           0       -6.673804   -3.476145   -1.831653
     37          6           0        6.666028   -2.063130   -1.424975
     38          6           0       -1.455922    3.564110   -1.143559
     39          6           0       -2.261191    3.555842   -0.062069
     40          6           0       -2.012931    2.182463    0.538075
     41          6           0       -1.367868    4.566239   -2.217298
     42          6           0       -3.309028    4.410069    0.417596
     43          6           0       -2.201413    5.557749   -2.563575
     44          1           0       -3.516239   -0.357218    1.304871
     45          1           0       -2.624755   -3.421663    1.258618
     46          1           0       -3.390491   -2.298349    2.533107
     47          1           0       -0.586835   -2.701082   -0.044274
     48          1           0       -2.059973   -0.446043   -0.618747
     49          1           0        1.931251   -0.597920    4.310391
     50          1           0        2.854294   -0.822324    2.557592
     51          1           0        2.703172   -2.767506    0.372222
     52          1           0       -2.150685   -0.958420    4.388870
     53          1           0       -0.637534   -0.341254    4.694852
     54          1           0       -1.593616    0.415931    3.498390
     55          1           0       -5.953257   -1.427642    1.990053
     56          1           0       -5.688894   -3.140050    1.635854
     57          1           0       -6.796707   -2.235718    0.723842
     58          1           0        1.666665    1.239500    1.869280
     59          1           0        0.746917    1.626089    3.341388
     60          1           0        0.255590    0.227855   -0.125131
     61          1           0        4.450702   -1.482505   -3.118797
     62          1           0        4.036459   -2.770104   -2.084680
     63          1           0       -5.379601   -2.465252   -3.308419
     64          1           0        5.087232   -1.424453   -0.196529
     65          1           0        5.598765   -0.061347   -1.133797
     66          1           0        4.013049    0.861831   -3.922919
     67          1           0        3.484720    2.397245   -3.576700
     68          1           0        2.335517    1.208551   -4.334803
     69          1           0        0.731283    2.788828   -3.068197
     70          1           0       -6.715933   -3.652982   -0.715871
     71          1           0       -7.427487   -3.975416   -2.524054
     72          1           0        3.848690    3.360825    3.787141
     73          1           0       -0.536330    4.579412   -2.964158
     74          1           0       -4.267771    4.372723   -0.164359
     75          1           0       -3.485165    4.187585    1.520014
     76          1           0       -2.839514    5.643069    0.389519
     77          1           0        8.498874   -2.128074   -1.110363
     78          1           0       -2.029824    6.358338   -3.274811
     79          1           0       -3.026980    5.815585   -1.936140
 ---------------------------------------------------------------------

 SCF Done:  E(RB3LYP) =  -1947.85416233     A.U. after   16 cycles

 Excitation energies and oscillator strengths:

 Excited State   1:      Singlet-A      1.0586 eV 1171.17 nm  f=0.0061  <S**2>=0.000
     155 ->156         0.70224
 This state for optimization and/or second-order correction.
 Total Energy, E(TD-HF/TD-DFT) =  -1947.81525806
 Copying the excited state density for this state as the 1-particle RhoCI density.

 The electronic state is 1-A.
 Alpha  occ. eigenvalues --  -19.18751 -19.18641 -19.14254 -19.13459 -19.12912
 Alpha  occ. eigenvalues --  -19.08369 -14.37430 -14.36701 -14.32006 -14.31061
 Alpha  occ. eigenvalues --  -10.33441 -10.31726 -10.28836 -10.26388 -10.25932
 Alpha  occ. eigenvalues --  -10.25411 -10.24941 -10.23557 -10.23411 -10.23079
 Alpha  occ. eigenvalues --  -10.22886 -10.22496 -10.22330 -10.22031 -10.21673
 Alpha  occ. eigenvalues --  -10.21576 -10.21391 -10.21286 -10.21183 -10.21146
 Alpha  occ. eigenvalues --  -10.20788 -10.20552 -10.20332 -10.20308 -10.20251
 Alpha  occ. eigenvalues --  -10.20050 -10.20047 -10.19805 -10.19165 -10.19043
 Alpha  occ. eigenvalues --  -10.17295 -10.16809 -10.16459  -1.11009  -1.10017
 Alpha  occ. eigenvalues --   -1.05834  -1.01627  -1.01488  -1.01320  -0.99541
 Alpha  occ. eigenvalues --   -0.97267  -0.94640  -0.90984  -0.83511  -0.81889
 Alpha  occ. eigenvalues --   -0.81122  -0.80665  -0.79670  -0.78522  -0.78143
 Alpha  occ. eigenvalues --   -0.77100  -0.75524  -0.74814  -0.74090  -0.73198
 Alpha  occ. eigenvalues --   -0.71078  -0.70612  -0.69692  -0.68841  -0.67459
 Alpha  occ. eigenvalues --   -0.66073  -0.65225  -0.62790  -0.60809  -0.59830
 Alpha  occ. eigenvalues --   -0.59632  -0.58989  -0.58563  -0.57528  -0.56442
 Alpha  occ. eigenvalues --   -0.56048  -0.55781  -0.55360  -0.53397  -0.52438
 Alpha  occ. eigenvalues --   -0.51911  -0.51682  -0.50875  -0.49635  -0.49215
 Alpha  occ. eigenvalues --   -0.49087  -0.48877  -0.48478  -0.48300  -0.47794
 Alpha  occ. eigenvalues --   -0.47443  -0.47358  -0.46945  -0.46430  -0.46122
 Alpha  occ. eigenvalues --   -0.45383  -0.45089  -0.45025  -0.44454  -0.44256
 Alpha  occ. eigenvalues --   -0.43920  -0.43309  -0.42924  -0.42693  -0.42031
 Alpha  occ. eigenvalues --   -0.41700  -0.41412  -0.41229  -0.41123  -0.40942
 Alpha  occ. eigenvalues --   -0.40737  -0.40518  -0.40317  -0.40034  -0.39834
 Alpha  occ. eigenvalues --   -0.39311  -0.38634  -0.38434  -0.38232  -0.38185
 Alpha  occ. eigenvalues --   -0.37842  -0.37456  -0.37284  -0.36985  -0.36354
 Alpha  occ. eigenvalues --   -0.35969  -0.35313  -0.35020  -0.34626  -0.34214
 Alpha  occ. eigenvalues --   -0.33328  -0.33086  -0.32519  -0.32033  -0.31774
 Alpha  occ. eigenvalues --   -0.31531  -0.30602  -0.30156  -0.29829  -0.29309
 Alpha  occ. eigenvalues --   -0.28573  -0.26260  -0.26095  -0.24628  -0.24261
 Alpha  occ. eigenvalues --   -0.24164  -0.23179  -0.22612  -0.21891  -0.18571
 Alpha virt. eigenvalues --   -0.12136  -0.08140  -0.05550  -0.01757  -0.01295
 Alpha virt. eigenvalues --    0.01173   0.01317   0.01894   0.02224   0.03087
 Alpha virt. eigenvalues --    0.04175   0.04323   0.04785   0.05120   0.05511

 Mulliken charges:
               1
     1  O   -0.226666
     2  O   -0.167962
     3  O   -0.200993
     4  O   -0.204341
     5  O   -0.212900
     6  O   -0.154284
     7  N   -0.019201
     8  N   -0.208392
     9  N   -0.094774
    10  N   -0.331321
    11  C    0.025667
    12  C    0.165573
    13  C   -0.068667
    14  C   -0.150735
    15  C   -0.035523
    16  C   -0.068480
    17  C   -0.201999
    18  C   -0.007506
    19  C   -0.018407
    20  C   -0.032631
    21  C    0.117429
    22  C    0.127715
    23  C   -0.020979
    24  C    0.141640
    25  C    0.140056
    26  C   -0.097548
    27  C   -0.020504
    28  C    0.105326
    29  C   -0.127723
    30  C   -0.044240
    31  C    0.017658
    32  C    0.095146
    33  C   -0.173185
    34  C    0.121415
    35  C    0.084767
    36  C   -0.060014
    37  C    0.168745
    38  C    0.113276
    39  C   -0.177595
    40  C    0.166721
    41  C   -0.046068
    42  C   -0.018473
    43  C   -0.031032
    44  H    0.071455
    45  H   -0.004839
    46  H    0.002570
    47  H    0.102825
    48  H    0.116830
    49  H    0.038388
    50  H    0.027511
    51  H    0.000377
    52  H   -0.015393
    53  H   -0.030995
    54  H    0.024465
    55  H    0.022607
    56  H    0.013693
    57  H    0.017047
    58  H    0.017346
    59  H    0.058491
    60  H    0.195600
    61  H    0.028688
    62  H    0.061267
    63  H    0.038941
    64  H    0.052033
    65  H    0.044045
    66  H   -0.008430
    67  H    0.040715
    68  H    0.045411
    69  H    0.059588
    70  H    0.020530
    71  H    0.044739
    72  H    0.180547
    73  H    0.000303
    74  H    0.066911
    75  H    0.046384
    76  H    0.048883
    77  H    0.179881
    78  H    0.025970
    79  H   -0.003378
 Sum of Mulliken charges =  -0.00000

 Dipole moment (field-independent basis, Debye):
    X=              1.1111    Y=              3.2279    Z=             -0.3695  Tot=              3.4337
 Quadrupole moment (field-independent basis, Debye-Ang):
   XX=           -233.3633   YY=           -237.0583   ZZ=           -263.7435
   XY=              6.8120   XZ=            -18.1810   YZ=             -9.3440

 Normal termination of Gaussian 16 at Sat Jul 27 10:13:18 2019.
