 Gaussian 16, Revision A.03,
 Gaussian 16:  ES64L-G16RevA.03 25-Dec-2016

 --------------------------
 # td=(NStates=1) B3LYP/SVP
 --------------------------

 --
 TD
 --
 Symbolic Z-matrix:
 Charge =  0 Multiplicity = 1

                         Standard orientation:
 ---------------------------------------------------------------------
 Center     Atomic      Atomic             Coordinates (Angstroms)
 Number     Number       Type             X           Y           Z
 ---------------------------------------------------------------------
      1          8           0       -3.336289   -1.812414   -2.746976
      2          8           0        2.866812    3.447116    2.831518
      3          8           0        3.429654    1.966797    4.350976
      4          8           0        7.781204   -1.515932   -0.659108
      5          8           0        6.781337   -3.236757   -1.656725
      6          8           0       -2.482088    1.702603    1.327454
      7          7           0       -0.278335   -2.250119    1.057902
      8          7           0       -2.756936   -1.140265   -0.623446
      9          7           0        1.179130    0.012521   -0.712864
     10          7           0       -0.835392    1.403146   -0.327597
     11          6           0       -3.442810   -1.306450    0.761939
     12          6           0       -2.726933   -2.107723    1.828030
     13          6           0       -1.235410   -1.634026    1.948678
     14          6           0       -0.579430   -0.907519    2.953417
     15          6           0        0.772762   -0.914427    2.563557
     16          6           0        0.885036   -1.695699    1.487951
     17          6           0       -4.765825   -1.835177    0.432284
     18          6           0        1.921856    0.007036    3.055323
     19          6           0       -4.862016   -2.122553   -0.966088
     20          6           0        1.981252   -1.915939    0.618031
     21          6           0        2.092877   -1.009632   -0.482748
     22          6           0       -3.517593   -1.750819   -1.530984
     23          6           0        3.058306   -0.927276   -1.481921
     24          6           0       -1.156319   -0.070981    4.025664
     25          6           0       -5.817325   -1.938917    1.509843
     26          6           0        2.589911    0.074602   -2.475360
     27          6           0        1.745468    1.380129    2.407190
     28          6           0        1.488346    0.642658   -1.788546
     29          6           0        4.209870   -1.848442   -1.768457
     30          6           0       -5.905576   -2.612456   -1.820708
     31          6           0        5.474047   -1.235697   -1.024427
     32          6           0        3.280093    0.580181   -3.749235
     33          6           0        0.638717    1.696280   -2.251300
     34          6           0        2.730258    2.310637    3.390210
     35          6           0       -0.448037    2.073149   -1.459386
     36          6           0       -7.112762   -3.242463   -1.381448
     37          6           0        6.726440   -2.184674   -1.113663
     38          6           0       -1.357302    3.326009   -1.577910
     39          6           0       -2.251247    3.315022   -0.557583
     40          6           0       -1.897759    2.069725    0.178731
     41          6           0       -1.251768    4.261392   -2.750016
     42          6           0       -3.321001    4.317537   -0.257543
     43          6           0       -1.789315    5.550801   -2.943126
     44          1           0       -3.706854   -0.232970    1.420094
     45          1           0       -2.761142   -3.187021    1.718198
     46          1           0       -3.411392   -1.973481    2.735687
     47          1           0       -0.515001   -2.686530    0.229049
     48          1           0       -2.374481   -0.279162   -0.823414
     49          1           0        1.913155   -0.083126    4.141716
     50          1           0        3.038921   -0.369855    3.112054
     51          1           0        2.768643   -2.716677    0.733702
     52          1           0       -2.229671   -0.493531    4.339228
     53          1           0       -0.483311    0.332673    4.813124
     54          1           0       -1.567926    0.885820    3.469806
     55          1           0       -5.725442   -1.294646    2.340778
     56          1           0       -6.172354   -3.113062    2.003083
     57          1           0       -6.675299   -1.721411    1.003289
     58          1           0        1.966435    1.287625    1.364433
     59          1           0        0.910440    1.834172    2.749554
     60          1           0        0.314750    0.308842   -0.265616
     61          1           0        4.519459   -2.074572   -2.908411
     62          1           0        3.972714   -2.855548   -1.481497
     63          1           0       -5.843865   -2.448634   -2.766603
     64          1           0        5.295932   -0.961121    0.060455
     65          1           0        5.918500   -0.341741   -1.270517
     66          1           0        4.260132    0.008167   -4.281232
     67          1           0        3.857194    1.550133   -3.501357
     68          1           0        2.539763    0.923344   -4.424812
     69          1           0        0.780998    2.135297   -3.244628
     70          1           0       -7.371541   -3.469824   -0.288559
     71          1           0       -8.004622   -3.442540   -2.288752
     72          1           0        3.168719    4.139945    3.751570
     73          1           0       -0.743958    3.847514   -3.461777
     74          1           0       -4.019206    4.557355   -0.932213
     75          1           0       -3.743683    4.103224    0.803198
     76          1           0       -3.021334    5.287291   -0.229854
     77          1           0        8.648823   -2.168551   -0.608066
     78          1           0       -1.458136    6.100037   -3.843264
     79          1           0       -2.470546    5.958570   -2.185902
 ---------------------------------------------------------------------

 SCF Done:  E(RB3LYP) =  -1947.70508459     A.U. after   20 cycles

 Excitation energies and oscillator strengths:

 Excited State   1:      Singlet-A      1.0343 eV 1198.69 nm  f=0.0005  <S**2>=0.000
     155 ->156         0.69690
 This state for optimization and/or second-order correction.
 Total Energy, E(TD-HF/TD-DFT) =  -1947.66707357
 Copying the excited state density for this state as the 1-particle RhoCI density.

 The electronic state is 1-A.
 Alpha  occ. eigenvalues --  -19.19842 -19.19803 -19.13654 -19.12179 -19.10237
 Alpha  occ. eigenvalues --  -19.07686 -14.36666 -14.36171 -14.33081 -14.31070
 Alpha  occ. eigenvalues --  -10.32753 -10.31663 -10.27781 -10.26110 -10.25894
 Alpha  occ. eigenvalues --  -10.25831 -10.25237 -10.24296 -10.23482 -10.23373
 Alpha  occ. eigenvalues --  -10.23321 -10.23308 -10.23089 -10.22127 -10.21492
 Alpha  occ. eigenvalues --  -10.21297 -10.21073 -10.21052 -10.20927 -10.20920
 Alpha  occ. eigenvalues --  -10.20801 -10.20738 -10.20211 -10.20196 -10.20117
 Alpha  occ. eigenvalues --  -10.19949 -10.19138 -10.18909 -10.18720 -10.18543
 Alpha  occ. eigenvalues --  -10.18530 -10.17319 -10.16745  -1.10718  -1.10373
 Alpha  occ. eigenvalues --   -1.02336  -1.01898  -1.00208  -0.98694  -0.97886
 Alpha  occ. eigenvalues --   -0.96707  -0.91527  -0.91443  -0.83917  -0.81983
 Alpha  occ. eigenvalues --   -0.81023  -0.80748  -0.80617  -0.78354  -0.78122
 Alpha  occ. eigenvalues --   -0.76714  -0.76153  -0.75551  -0.73804  -0.72747
 Alpha  occ. eigenvalues --   -0.71184  -0.70341  -0.69514  -0.69368  -0.67951
 Alpha  occ. eigenvalues --   -0.65811  -0.64610  -0.63112  -0.61168  -0.60589
 Alpha  occ. eigenvalues --   -0.59631  -0.59025  -0.58379  -0.58055  -0.57816
 Alpha  occ. eigenvalues --   -0.56529  -0.55801  -0.55326  -0.53870  -0.53618
 Alpha  occ. eigenvalues --   -0.52252  -0.51526  -0.50877  -0.50164  -0.49454
 Alpha  occ. eigenvalues --   -0.49204  -0.48987  -0.48764  -0.48598  -0.47874
 Alpha  occ. eigenvalues --   -0.47400  -0.47070  -0.46976  -0.46585  -0.45727
 Alpha  occ. eigenvalues --   -0.44948  -0.44448  -0.44378  -0.44027  -0.43862
 Alpha  occ. eigenvalues --   -0.43552  -0.43410  -0.42721  -0.42671  -0.42406
 Alpha  occ. eigenvalues --   -0.41912  -0.41737  -0.41470  -0.40982  -0.40681
 Alpha  occ. eigenvalues --   -0.40147  -0.39910  -0.39788  -0.39672  -0.39472
 Alpha  occ. eigenvalues --   -0.39060  -0.38791  -0.38514  -0.38253  -0.37985
 Alpha  occ. eigenvalues --   -0.37732  -0.37079  -0.36575  -0.36193  -0.36052
 Alpha  occ. eigenvalues --   -0.35697  -0.35443  -0.34735  -0.34595  -0.33758
 Alpha  occ. eigenvalues --   -0.33552  -0.33099  -0.32193  -0.31608  -0.31149
 Alpha  occ. eigenvalues --   -0.30597  -0.29342  -0.29067  -0.28734  -0.28246
 Alpha  occ. eigenvalues --   -0.27565  -0.26308  -0.25334  -0.24513  -0.23788
 Alpha  occ. eigenvalues --   -0.23288  -0.22988  -0.22075  -0.21264  -0.19543
 Alpha virt. eigenvalues --   -0.12925  -0.08209  -0.05445  -0.02395  -0.02283
 Alpha virt. eigenvalues --    0.00314   0.00674   0.00758   0.01204   0.01846
 Alpha virt. eigenvalues --    0.02331   0.03637   0.03699   0.04557   0.05515

 Mulliken charges:
               1
     1  O   -0.255895
     2  O   -0.195829
     3  O   -0.261872
     4  O   -0.233875
     5  O   -0.195936
     6  O   -0.328511
     7  N   -0.075891
     8  N   -0.146370
     9  N    0.010430
    10  N   -0.284825
    11  C   -0.016613
    12  C    0.127920
    13  C   -0.023977
    14  C   -0.098005
    15  C   -0.060437
    16  C    0.042987
    17  C   -0.111556
    18  C    0.011404
    19  C   -0.034083
    20  C   -0.068307
    21  C    0.084010
    22  C    0.114478
    23  C   -0.084543
    24  C    0.023994
    25  C    0.065054
    26  C   -0.114852
    27  C    0.100009
    28  C    0.055932
    29  C    0.083209
    30  C    0.063577
    31  C   -0.019035
    32  C    0.029703
    33  C   -0.087658
    34  C    0.096977
    35  C    0.090120
    36  C   -0.116380
    37  C    0.123099
    38  C    0.022287
    39  C   -0.150115
    40  C    0.162446
    41  C    0.036961
    42  C    0.171011
    43  C   -0.006379
    44  H    0.093648
    45  H   -0.011559
    46  H    0.006544
    47  H    0.098187
    48  H    0.128459
    49  H    0.003461
    50  H    0.010908
    51  H    0.032361
    52  H    0.010996
    53  H    0.022134
    54  H    0.056613
    55  H    0.012768
    56  H    0.046561
    57  H    0.007168
    58  H    0.046428
    59  H    0.010299
    60  H    0.161489
    61  H    0.050951
    62  H    0.018465
    63  H   -0.068317
    64  H    0.041799
    65  H    0.007559
    66  H    0.063256
    67  H    0.041377
    68  H    0.027250
    69  H   -0.011881
    70  H    0.038154
    71  H    0.051685
    72  H    0.243849
    73  H   -0.081247
    74  H   -0.017796
    75  H    0.041757
    76  H   -0.019306
    77  H    0.233998
    78  H    0.039657
    79  H    0.017665
 Sum of Mulliken charges =  -0.00000

 Dipole moment (field-independent basis, Debye):
    X=              4.3301    Y=              3.4645    Z=             -0.5933  Tot=              5.5771
 Quadrupole moment (field-independent basis, Debye-Ang):
   XX=           -229.4091   YY=           -240.1523   ZZ=           -262.2066
   XY=             -3.8290   XZ=            -21.3040   YZ=            -14.8378

 Normal termination of Gaussian 16 at Mon Jul 29 03:16:23 2019.
