 Gaussian 16, Revision A.03,
 Gaussian 16:  ES64L-G16RevA.03 25-Dec-2016

 --------------------------
 # td=(NStates=1) B3LYP/SVP
 --------------------------

 --
 TD
 --
 Symbolic Z-matrix:
 Charge =  0 Multiplicity = 1

                         Standard orientation:
 ---------------------------------------------------------------------
 Center     Atomic      Atomic             Coordinates (Angstroms)
 Number     Number       Type             X           Y           Z
 ---------------------------------------------------------------------
      1          8           0        5.231824   -0.199118   -3.247735
      2          8           0       -3.259665   -2.759257    3.071229
      3          8           0       -3.439464   -0.549515    2.556830
      4          8           0       -1.090726    7.111693    1.616472
      5          8           0       -0.356685    6.973547   -0.487047
      6          8           0       -1.818169   -3.936219   -0.076388
      7          7           0        2.432720    0.856981    0.567112
      8          7           0        4.337580   -0.858090   -1.233417
      9          7           0       -1.736389    0.696377   -0.465607
     10          7           0       -2.691121   -1.748340   -0.423070
     11          6           0        4.761923   -1.370098    0.060035
     12          6           0        4.445257   -0.439744    1.362026
     13          6           0        2.969574   -0.101118    1.390168
     14          6           0        1.941341   -0.641074    2.161997
     15          6           0        0.662145    0.021896    1.807728
     16          6           0        1.035028    0.953583    0.805188
     17          6           0        6.257025   -1.537379   -0.068585
     18          6           0       -0.552052   -0.161679    2.530747
     19          6           0        6.652679   -1.047603   -1.379395
     20          6           0        0.339604    1.905933    0.098752
     21          6           0       -0.973837    1.887111   -0.385878
     22          6           0        5.399376   -0.679072   -2.072141
     23          6           0       -1.818417    2.888534   -0.942260
     24          6           0        2.098503   -1.715605    3.171984
     25          6           0        7.202036   -2.111566    1.012584
     26          6           0       -3.054891    2.417534   -1.347424
     27          6           0       -1.257263   -1.578440    2.591894
     28          6           0       -2.980138    0.943001   -1.022834
     29          6           0       -1.411329    4.401542   -0.999332
     30          6           0        7.870463   -0.965230   -2.015333
     31          6           0       -1.559369    5.067152    0.299394
     32          6           0       -4.232010    3.023068   -1.994983
     33          6           0       -3.993312    0.047345   -1.312108
     34          6           0       -2.836476   -1.493282    2.650349
     35          6           0       -3.767984   -1.331389   -1.018534
     36          6           0        9.149379   -0.902111   -1.571374
     37          6           0       -1.007328    6.511058    0.439719
     38          6           0       -4.729355   -2.509057   -1.333080
     39          6           0       -3.939874   -3.664251   -0.977736
     40          6           0       -2.802508   -3.247171   -0.391970
     41          6           0       -6.018910   -2.357132   -1.877276
     42          6           0       -4.573590   -5.003862   -1.012820
     43          6           0       -6.934090   -3.250711   -2.192176
     44          1           0        4.296530   -2.454095    0.247466
     45          1           0        5.151510    0.479628    1.166779
     46          1           0        4.699182   -1.000228    2.153269
     47          1           0        2.868418    1.414253   -0.236876
     48          1           0        3.370156   -1.088405   -1.559409
     49          1           0       -0.518634    0.476564    3.495916
     50          1           0       -1.314276    0.447849    1.890013
     51          1           0        0.951201    2.819178   -0.093360
     52          1           0        3.175596   -1.884925    3.395383
     53          1           0        1.849715   -1.344555    4.309252
     54          1           0        1.606624   -2.534936    2.820583
     55          1           0        6.496835   -3.042345    1.394155
     56          1           0        7.367813   -1.372178    1.857177
     57          1           0        8.321056   -2.410579    0.287803
     58          1           0       -1.258299   -1.992925    1.751727
     59          1           0       -0.991055   -2.469682    3.295158
     60          1           0       -1.541410   -0.190823   -0.330990
     61          1           0       -2.018825    4.997771   -1.714490
     62          1           0       -0.383768    4.509013   -1.173465
     63          1           0        7.747791   -1.307576   -3.212140
     64          1           0       -1.058320    4.540746    1.099750
     65          1           0       -2.640499    5.038726    0.760232
     66          1           0       -3.785064    3.829276   -2.936483
     67          1           0       -4.973217    3.422216   -1.195440
     68          1           0       -4.724622    2.102125   -2.776557
     69          1           0       -4.798570    0.363266   -2.084680
     70          1           0        9.404557   -0.672412   -0.482842
     71          1           0        9.988765   -0.640480   -2.240735
     72          1           0       -4.334653   -2.680149    2.988361
     73          1           0       -6.180740   -1.356955   -2.323785
     74          1           0       -5.543532   -5.140402   -0.474087
     75          1           0       -4.514613   -5.382158   -2.047045
     76          1           0       -3.919056   -5.831688   -0.456240
     77          1           0       -0.497085    7.961845    1.799267
     78          1           0       -7.964965   -2.887821   -2.661813
     79          1           0       -6.920627   -4.235788   -2.097812
 ---------------------------------------------------------------------

 SCF Done:  E(RB3LYP) =  -1947.75719691     A.U. after   19 cycles

 Excitation energies and oscillator strengths:

 Excited State   1:      Singlet-A      1.7827 eV  695.47 nm  f=0.3497  <S**2>=0.000
     155 ->156         0.69932
     155 <-156        -0.10753
 This state for optimization and/or second-order correction.
 Total Energy, E(TD-HF/TD-DFT) =  -1947.69168264
 Copying the excited state density for this state as the 1-particle RhoCI density.

 The electronic state is 1-A.
 Alpha  occ. eigenvalues --  -19.19236 -19.16677 -19.12531 -19.11764 -19.10544
 Alpha  occ. eigenvalues --  -19.09060 -14.38365 -14.36131 -14.35629 -14.28894
 Alpha  occ. eigenvalues --  -10.32305 -10.29981 -10.28500 -10.26348 -10.26125
 Alpha  occ. eigenvalues --  -10.25043 -10.24537 -10.24257 -10.24203 -10.23944
 Alpha  occ. eigenvalues --  -10.23441 -10.22798 -10.22774 -10.22757 -10.21733
 Alpha  occ. eigenvalues --  -10.21475 -10.21438 -10.21233 -10.21203 -10.21199
 Alpha  occ. eigenvalues --  -10.20973 -10.20603 -10.20593 -10.20284 -10.20000
 Alpha  occ. eigenvalues --  -10.19953 -10.19861 -10.19586 -10.19579 -10.19576
 Alpha  occ. eigenvalues --  -10.19235 -10.18904 -10.17694  -1.09783  -1.09208
 Alpha  occ. eigenvalues --   -1.00348  -1.00023  -0.99850  -0.99541  -0.97688
 Alpha  occ. eigenvalues --   -0.97093  -0.92745  -0.91313  -0.82732  -0.82107
 Alpha  occ. eigenvalues --   -0.81812  -0.81314  -0.80844  -0.79369  -0.78116
 Alpha  occ. eigenvalues --   -0.77553  -0.76314  -0.75216  -0.74369  -0.71981
 Alpha  occ. eigenvalues --   -0.70938  -0.70838  -0.69196  -0.68268  -0.67865
 Alpha  occ. eigenvalues --   -0.66777  -0.66240  -0.64880  -0.62324  -0.61366
 Alpha  occ. eigenvalues --   -0.60748  -0.58439  -0.57079  -0.56392  -0.56162
 Alpha  occ. eigenvalues --   -0.56013  -0.55355  -0.54581  -0.53684  -0.52793
 Alpha  occ. eigenvalues --   -0.51832  -0.51262  -0.50907  -0.49964  -0.49494
 Alpha  occ. eigenvalues --   -0.48549  -0.48203  -0.47748  -0.47691  -0.47344
 Alpha  occ. eigenvalues --   -0.47084  -0.46659  -0.46507  -0.46303  -0.45422
 Alpha  occ. eigenvalues --   -0.45299  -0.44810  -0.44690  -0.44147  -0.44009
 Alpha  occ. eigenvalues --   -0.43632  -0.43332  -0.42692  -0.42509  -0.42136
 Alpha  occ. eigenvalues --   -0.42104  -0.41821  -0.41591  -0.41249  -0.40907
 Alpha  occ. eigenvalues --   -0.40638  -0.40433  -0.40156  -0.39871  -0.39648
 Alpha  occ. eigenvalues --   -0.39221  -0.38605  -0.38068  -0.37967  -0.37747
 Alpha  occ. eigenvalues --   -0.37618  -0.37525  -0.37058  -0.36690  -0.36353
 Alpha  occ. eigenvalues --   -0.35996  -0.35171  -0.34837  -0.34661  -0.34026
 Alpha  occ. eigenvalues --   -0.33429  -0.32905  -0.32091  -0.31901  -0.31596
 Alpha  occ. eigenvalues --   -0.31327  -0.30298  -0.28967  -0.27607  -0.27393
 Alpha  occ. eigenvalues --   -0.26937  -0.26060  -0.25821  -0.24601  -0.24429
 Alpha  occ. eigenvalues --   -0.24030  -0.23854  -0.23596  -0.22516  -0.18540
 Alpha virt. eigenvalues --   -0.11307  -0.07834  -0.07308  -0.00824  -0.00490
 Alpha virt. eigenvalues --   -0.00035   0.01087   0.01889   0.02050   0.02790
 Alpha virt. eigenvalues --    0.03122   0.03754   0.04016   0.04072   0.04213

 Mulliken charges:
               1
     1  O   -0.284733
     2  O   -0.284020
     3  O   -0.117625
     4  O   -0.215213
     5  O   -0.248298
     6  O   -0.223543
     7  N   -0.126526
     8  N   -0.165771
     9  N   -0.025308
    10  N   -0.315327
    11  C   -0.000715
    12  C    0.257810
    13  C   -0.054298
    14  C   -0.174288
    15  C   -0.058649
    16  C    0.105323
    17  C   -0.141413
    18  C    0.030977
    19  C   -0.014176
    20  C   -0.135495
    21  C    0.127729
    22  C    0.149607
    23  C   -0.108180
    24  C    0.107057
    25  C   -0.050858
    26  C   -0.083081
    27  C    0.133650
    28  C    0.094294
    29  C    0.216525
    30  C   -0.071990
    31  C   -0.062161
    32  C   -0.068954
    33  C   -0.135333
    34  C    0.094643
    35  C    0.072898
    36  C   -0.081304
    37  C    0.142534
    38  C    0.036630
    39  C   -0.113638
    40  C    0.155852
    41  C   -0.011142
    42  C    0.038646
    43  C   -0.014233
    44  H    0.044541
    45  H    0.022208
    46  H   -0.054687
    47  H    0.150316
    48  H    0.156542
    49  H    0.034652
    50  H    0.020335
    51  H   -0.001548
    52  H   -0.013597
    53  H    0.030227
    54  H    0.031799
    55  H    0.056436
    56  H    0.070584
    57  H    0.089793
    58  H   -0.075952
    59  H    0.042555
    60  H    0.061930
    61  H    0.012167
    62  H   -0.015867
    63  H    0.061309
    64  H    0.021439
    65  H    0.030509
    66  H    0.065964
    67  H    0.079302
    68  H    0.056895
    69  H    0.010495
    70  H    0.030376
    71  H    0.042559
    72  H    0.203341
    73  H    0.002470
    74  H    0.046176
    75  H    0.029430
    76  H    0.025725
    77  H    0.237839
    78  H    0.039725
    79  H   -0.023888
 Sum of Mulliken charges =  -0.00000

 Dipole moment (field-independent basis, Debye):
    X=             -0.4925    Y=              1.3723    Z=              3.7402  Tot=              4.0143
 Quadrupole moment (field-independent basis, Debye-Ang):
   XX=           -213.2127   YY=           -247.0139   ZZ=           -263.4426
   XY=             -0.7380   XZ=             35.4272   YZ=             13.8367

 Normal termination of Gaussian 16 at Sat Sep 28 21:06:26 2019.
