 Gaussian 16, Revision A.03,
 Gaussian 16:  ES64L-G16RevA.03 25-Dec-2016

 --------------------------
 # td=(NStates=1) B3LYP/SVP
 --------------------------

 --
 TD
 --
 Symbolic Z-matrix:
 Charge =  0 Multiplicity = 1

                         Standard orientation:
 ---------------------------------------------------------------------
 Center     Atomic      Atomic             Coordinates (Angstroms)
 Number     Number       Type             X           Y           Z
 ---------------------------------------------------------------------
      1          8           0        5.549962    0.072234   -3.222019
      2          8           0       -3.140703   -2.634360    2.963351
      3          8           0       -3.458544   -0.389662    2.672126
      4          8           0       -2.077490    7.053439    1.311195
      5          8           0       -0.586364    6.926258   -0.458627
      6          8           0       -1.524458   -3.923358    0.125069
      7          7           0        2.285392    0.971833    0.536806
      8          7           0        4.423797   -0.388032   -1.228372
      9          7           0       -1.886372    0.553993   -0.526498
     10          7           0       -2.489871   -1.968628   -0.354655
     11          6           0        4.729313   -1.067332    0.044997
     12          6           0        4.383751   -0.240952    1.324767
     13          6           0        2.957888    0.057513    1.404659
     14          6           0        1.936975   -0.420198    2.401985
     15          6           0        0.748209    0.217115    1.953494
     16          6           0        0.968679    1.058093    0.886025
     17          6           0        6.281665   -1.262878   -0.112483
     18          6           0       -0.606610    0.007388    2.671765
     19          6           0        6.689024   -0.782738   -1.296700
     20          6           0        0.170756    1.912706   -0.019328
     21          6           0       -1.107700    1.761022   -0.480822
     22          6           0        5.561384   -0.339032   -2.056282
     23          6           0       -2.036098    2.831192   -1.122037
     24          6           0        2.202797   -1.473332    3.424416
     25          6           0        7.104683   -1.995857    0.867910
     26          6           0       -3.216428    2.183612   -1.386302
     27          6           0       -1.211313   -1.423902    2.497447
     28          6           0       -3.094998    0.738580   -1.155404
     29          6           0       -1.623681    4.305987   -1.013555
     30          6           0        8.023891   -0.780359   -1.933471
     31          6           0       -2.000625    4.898243    0.214187
     32          6           0       -4.391873    2.733211   -2.102612
     33          6           0       -3.945784   -0.261867   -1.319273
     34          6           0       -2.711401   -1.384284    2.835648
     35          6           0       -3.619277   -1.548575   -1.026124
     36          6           0        9.261157   -0.760354   -1.377942
     37          6           0       -1.340869    6.354133    0.250789
     38          6           0       -4.529983   -2.794014   -1.409705
     39          6           0       -3.678704   -3.942001   -0.953506
     40          6           0       -2.497665   -3.427517   -0.365496
     41          6           0       -5.893677   -2.670971   -1.775065
     42          6           0       -3.922661   -5.334827   -1.051076
     43          6           0       -6.566652   -3.759054   -2.293102
     44          1           0        4.141959   -1.951342   -0.102162
     45          1           0        5.084948    0.587752    1.184430
     46          1           0        4.706912   -0.935627    2.091576
     47          1           0        2.700873    1.371961   -0.209276
     48          1           0        3.456494   -0.548475   -1.737467
     49          1           0       -0.485550    0.086885    3.971710
     50          1           0       -1.583301    0.808787    2.238255
     51          1           0        0.652403    2.781826   -0.313919
     52          1           0        3.453157   -1.523218    3.566725
     53          1           0        1.930201   -1.006116    4.338881
     54          1           0        1.544131   -2.436925    3.054342
     55          1           0        6.550796   -2.983371    1.260749
     56          1           0        7.543673   -1.529906    1.807206
     57          1           0        7.953395   -2.511365    0.301652
     58          1           0       -1.094170   -1.818996    1.569283
     59          1           0       -0.671134   -2.287169    3.183080
     60          1           0       -1.614690   -0.474361   -0.355841
     61          1           0       -2.085317    4.815003   -1.831224
     62          1           0       -0.725862    4.435775   -1.426951
     63          1           0        8.250565   -0.998627   -2.950997
     64          1           0       -1.681491    4.428670    1.102847
     65          1           0       -2.963251    5.167075    0.606657
     66          1           0       -4.270134    3.833941   -2.418401
     67          1           0       -5.324399    2.627525   -1.444553
     68          1           0       -4.573572    2.165613   -3.059114
     69          1           0       -4.844458    0.109959   -1.688014
     70          1           0        9.542603   -0.765066   -0.309593
     71          1           0       10.065357   -0.875643   -1.853720
     72          1           0       -4.205458   -2.621126    2.707156
     73          1           0       -6.571086   -1.768956   -1.833687
     74          1           0       -4.938992   -5.516673   -0.433631
     75          1           0       -3.956765   -5.940667   -1.996440
     76          1           0       -3.075254   -5.812830   -0.518485
     77          1           0       -1.688430    8.087547    1.347275
     78          1           0       -7.693331   -3.568911   -2.470479
     79          1           0       -6.105728   -4.786019   -2.664421
 ---------------------------------------------------------------------

 SCF Done:  E(RB3LYP) =  -1947.76535958     A.U. after   17 cycles

 Excitation energies and oscillator strengths:

 Excited State   1:      Singlet-A      1.8216 eV  680.63 nm  f=0.3008  <S**2>=0.000
     154 ->156         0.11396
     155 ->156         0.69524
 This state for optimization and/or second-order correction.
 Total Energy, E(TD-HF/TD-DFT) =  -1947.69841709
 Copying the excited state density for this state as the 1-particle RhoCI density.

 The electronic state is 1-A.
 Alpha  occ. eigenvalues --  -19.18122 -19.17216 -19.15294 -19.11080 -19.10520
 Alpha  occ. eigenvalues --  -19.09533 -14.37368 -14.35377 -14.35291 -14.29043
 Alpha  occ. eigenvalues --  -10.32952 -10.30620 -10.27893 -10.26309 -10.24594
 Alpha  occ. eigenvalues --  -10.24485 -10.23625 -10.23423 -10.23032 -10.22913
 Alpha  occ. eigenvalues --  -10.22703 -10.22422 -10.22290 -10.22143 -10.22017
 Alpha  occ. eigenvalues --  -10.21922 -10.21571 -10.21503 -10.21309 -10.21216
 Alpha  occ. eigenvalues --  -10.21157 -10.21155 -10.21075 -10.20866 -10.20769
 Alpha  occ. eigenvalues --  -10.20455 -10.20074 -10.19869 -10.19578 -10.18815
 Alpha  occ. eigenvalues --  -10.18650 -10.18537 -10.17697  -1.08438  -1.07145
 Alpha  occ. eigenvalues --   -1.02815  -1.01186  -0.98147  -0.97492  -0.97038
 Alpha  occ. eigenvalues --   -0.96026  -0.92947  -0.89399  -0.83787  -0.82334
 Alpha  occ. eigenvalues --   -0.81410  -0.80586  -0.80383  -0.79622  -0.78776
 Alpha  occ. eigenvalues --   -0.77395  -0.76622  -0.75594  -0.74668  -0.72421
 Alpha  occ. eigenvalues --   -0.71658  -0.70887  -0.68770  -0.68051  -0.67865
 Alpha  occ. eigenvalues --   -0.65834  -0.64605  -0.64044  -0.61749  -0.60903
 Alpha  occ. eigenvalues --   -0.58588  -0.57949  -0.57504  -0.57135  -0.56605
 Alpha  occ. eigenvalues --   -0.55693  -0.55190  -0.54548  -0.54100  -0.53148
 Alpha  occ. eigenvalues --   -0.51843  -0.51399  -0.50302  -0.50010  -0.49469
 Alpha  occ. eigenvalues --   -0.48852  -0.48218  -0.48027  -0.47815  -0.47436
 Alpha  occ. eigenvalues --   -0.46829  -0.46647  -0.46446  -0.45904  -0.45593
 Alpha  occ. eigenvalues --   -0.45062  -0.44552  -0.44488  -0.44004  -0.43939
 Alpha  occ. eigenvalues --   -0.43489  -0.43131  -0.42797  -0.42346  -0.42225
 Alpha  occ. eigenvalues --   -0.42025  -0.41879  -0.41531  -0.41499  -0.40815
 Alpha  occ. eigenvalues --   -0.40549  -0.40245  -0.40178  -0.39914  -0.39594
 Alpha  occ. eigenvalues --   -0.39071  -0.39059  -0.38809  -0.38716  -0.37715
 Alpha  occ. eigenvalues --   -0.37477  -0.37432  -0.37135  -0.36900  -0.36461
 Alpha  occ. eigenvalues --   -0.35964  -0.34867  -0.34772  -0.34679  -0.34363
 Alpha  occ. eigenvalues --   -0.33942  -0.32806  -0.31921  -0.31621  -0.30738
 Alpha  occ. eigenvalues --   -0.30330  -0.30179  -0.29369  -0.28036  -0.26970
 Alpha  occ. eigenvalues --   -0.26296  -0.25925  -0.25824  -0.25439  -0.25153
 Alpha  occ. eigenvalues --   -0.24565  -0.24067  -0.23117  -0.21578  -0.18833
 Alpha virt. eigenvalues --   -0.11242  -0.07233  -0.06133  -0.01335  -0.00663
 Alpha virt. eigenvalues --   -0.00094   0.00045   0.00388   0.01999   0.02459
 Alpha virt. eigenvalues --    0.03359   0.03676   0.03909   0.04493   0.04509

 Mulliken charges:
               1
     1  O   -0.233211
     2  O   -0.216317
     3  O   -0.281830
     4  O   -0.341720
     5  O   -0.167576
     6  O   -0.167575
     7  N   -0.047849
     8  N   -0.281014
     9  N   -0.142880
    10  N   -0.350043
    11  C    0.067569
    12  C    0.258211
    13  C   -0.088785
    14  C   -0.125581
    15  C   -0.086102
    16  C    0.117225
    17  C   -0.153409
    18  C   -0.105493
    19  C    0.054228
    20  C   -0.054569
    21  C    0.099881
    22  C    0.137459
    23  C   -0.117565
    24  C    0.052838
    25  C   -0.003671
    26  C   -0.098425
    27  C    0.003005
    28  C    0.081438
    29  C    0.241231
    30  C   -0.012509
    31  C    0.071907
    32  C    0.032941
    33  C   -0.064066
    34  C    0.185002
    35  C    0.141830
    36  C    0.006063
    37  C    0.141141
    38  C    0.078129
    39  C   -0.163517
    40  C    0.161203
    41  C   -0.070485
    42  C    0.009225
    43  C   -0.086593
    44  H    0.007857
    45  H   -0.001482
    46  H   -0.013888
    47  H    0.070193
    48  H    0.163173
    49  H    0.024860
    50  H    0.085449
    51  H   -0.031810
    52  H    0.024948
    53  H    0.016850
    54  H    0.092229
    55  H    0.031629
    56  H    0.059644
    57  H    0.040181
    58  H    0.034553
    59  H    0.033279
    60  H    0.174232
    61  H   -0.026307
    62  H   -0.029450
    63  H    0.010709
    64  H    0.020392
    65  H    0.033292
    66  H    0.029093
    67  H    0.038660
    68  H    0.041732
    69  H   -0.076557
    70  H    0.003951
    71  H   -0.041708
    72  H    0.229701
    73  H    0.032027
    74  H    0.040748
    75  H    0.047877
    76  H    0.024018
    77  H    0.224919
    78  H    0.038292
    79  H    0.066974
 Sum of Mulliken charges =  -0.00000

 Dipole moment (field-independent basis, Debye):
    X=             -1.2065    Y=             -0.2016    Z=              0.8370  Tot=              1.4822
 Quadrupole moment (field-independent basis, Debye-Ang):
   XX=           -211.2669   YY=           -243.3735   ZZ=           -264.4540
   XY=             -9.3824   XZ=             36.6377   YZ=              5.0890

 Normal termination of Gaussian 16 at Sun Sep 15 09:30:59 2019.
