 Gaussian 16, Revision A.03,
 Gaussian 16:  ES64L-G16RevA.03 25-Dec-2016

 --------------------------
 # td=(NStates=1) B3LYP/SVP
 --------------------------

 --
 TD
 --
 Symbolic Z-matrix:
 Charge =  0 Multiplicity = 1

                         Standard orientation:
 ---------------------------------------------------------------------
 Center     Atomic      Atomic             Coordinates (Angstroms)
 Number     Number       Type             X           Y           Z
 ---------------------------------------------------------------------
      1          8           0       -3.457331   -1.066018   -2.895089
      2          8           0        3.251476    2.845302    3.430053
      3          8           0        4.027170    0.897447    4.343059
      4          8           0        7.645974   -1.435986   -0.736673
      5          8           0        6.840465   -2.794027   -2.364193
      6          8           0       -2.691985    1.612106    1.648658
      7          7           0       -0.248597   -2.471896    0.656783
      8          7           0       -2.678465   -1.128565   -0.732613
      9          7           0        1.107960    0.072761   -0.763183
     10          7           0       -1.076949    1.539311   -0.085133
     11          6           0       -3.351436   -1.286871    0.575794
     12          6           0       -2.585986   -2.416948    1.387164
     13          6           0       -1.169777   -2.112298    1.584752
     14          6           0       -0.518025   -1.420237    2.602792
     15          6           0        0.818514   -1.264211    2.251036
     16          6           0        0.945538   -1.970558    1.055227
     17          6           0       -4.753797   -1.911303    0.163663
     18          6           0        1.976548   -0.639729    3.097395
     19          6           0       -4.817533   -2.012897   -1.157333
     20          6           0        2.107234   -1.776887    0.108777
     21          6           0        2.127100   -0.721068   -0.822057
     22          6           0       -3.661682   -1.318701   -1.757867
     23          6           0        3.072578   -0.423874   -1.854236
     24          6           0       -1.313492   -0.779123    3.728169
     25          6           0       -5.690367   -2.374473    1.293527
     26          6           0        2.460120    0.737037   -2.465933
     27          6           0        2.046633    0.832101    2.984804
     28          6           0        1.263128    1.100896   -1.726549
     29          6           0        4.224294   -1.249012   -2.205789
     30          6           0       -5.889080   -2.414929   -2.031798
     31          6           0        5.462042   -1.021605   -1.330323
     32          6           0        3.167044    1.357658   -3.625539
     33          6           0        0.403483    2.211662   -1.876124
     34          6           0        3.201160    1.493531    3.716592
     35          6           0       -0.684497    2.388544   -1.007772
     36          6           0       -6.947275   -3.142767   -1.681799
     37          6           0        6.647239   -1.897436   -1.634152
     38          6           0       -1.522798    3.583955   -0.931542
     39          6           0       -2.423446    3.381504    0.077574
     40          6           0       -2.019001    2.039007    0.644215
     41          6           0       -1.348671    4.781076   -1.912188
     42          6           0       -3.602182    4.102665    0.659580
     43          6           0       -2.098154    5.756926   -2.011848
     44          1           0       -3.543552   -0.276388    1.231814
     45          1           0       -2.837942   -3.280087    0.957011
     46          1           0       -3.116187   -2.230196    2.453583
     47          1           0       -0.361494   -2.885030   -0.152848
     48          1           0       -2.130142   -0.310290   -0.667540
     49          1           0        1.838648   -1.004364    4.137551
     50          1           0        2.833333   -1.220597    2.716083
     51          1           0        2.831556   -2.669002    0.045248
     52          1           0       -2.015408   -1.467104    4.228941
     53          1           0       -0.684964   -0.664374    4.765129
     54          1           0       -1.843396    0.117295    3.356885
     55          1           0       -5.552705   -1.942599    2.135219
     56          1           0       -5.716295   -3.610512    1.198093
     57          1           0       -6.742012   -2.216258    0.898114
     58          1           0        2.294997    1.107010    1.898789
     59          1           0        1.152316    1.468908    3.229015
     60          1           0        0.364271    0.053628    0.011693
     61          1           0        4.903873   -1.063792   -3.098375
     62          1           0        4.071061   -2.259165   -2.108920
     63          1           0       -5.883437   -1.829735   -3.034282
     64          1           0        5.324035   -1.230334   -0.269979
     65          1           0        5.798335   -0.024837   -1.417692
     66          1           0        3.805403    0.671448   -4.122304
     67          1           0        3.488330    2.399741   -3.331920
     68          1           0        2.497531    1.642174   -4.414047
     69          1           0        0.771765    2.931156   -2.342237
     70          1           0       -7.159140   -3.797567   -0.774401
     71          1           0       -7.604514   -3.337661   -2.610074
     72          1           0        4.022793    3.154219    3.896179
     73          1           0       -0.637132    4.292539   -2.686396
     74          1           0       -4.292153    4.512520   -0.080100
     75          1           0       -4.119197    3.390542    1.416743
     76          1           0       -3.019223    4.974314    1.105472
     77          1           0        8.541293   -1.973379   -0.783356
     78          1           0       -2.067336    6.509352   -2.823673
     79          1           0       -3.019851    5.846747   -1.290182
 ---------------------------------------------------------------------

 SCF Done:  E(RB3LYP) =  -1947.82190155     A.U. after   19 cycles

 Excitation energies and oscillator strengths:

 Excited State   1:      Singlet-A      1.0148 eV 1221.79 nm  f=0.0015  <S**2>=0.000
     155 ->156         0.70437
 This state for optimization and/or second-order correction.
 Total Energy, E(TD-HF/TD-DFT) =  -1947.78460927
 Copying the excited state density for this state as the 1-particle RhoCI density.

 The electronic state is 1-A.
 Alpha  occ. eigenvalues --  -19.17699 -19.17651 -19.15316 -19.12830 -19.11318
 Alpha  occ. eigenvalues --  -19.09080 -14.38399 -14.36628 -14.31530 -14.30027
 Alpha  occ. eigenvalues --  -10.33479 -10.31585 -10.27759 -10.27128 -10.26562
 Alpha  occ. eigenvalues --  -10.25480 -10.25013 -10.23850 -10.23787 -10.23643
 Alpha  occ. eigenvalues --  -10.22318 -10.22246 -10.22023 -10.21305 -10.20928
 Alpha  occ. eigenvalues --  -10.20659 -10.20506 -10.20167 -10.20162 -10.20099
 Alpha  occ. eigenvalues --  -10.19994 -10.19943 -10.19872 -10.19751 -10.19556
 Alpha  occ. eigenvalues --  -10.19264 -10.19245 -10.19012 -10.18912 -10.18035
 Alpha  occ. eigenvalues --  -10.17756 -10.17534 -10.16606  -1.10093  -1.09147
 Alpha  occ. eigenvalues --   -1.02753  -1.01619  -1.01103  -1.00798  -1.00614
 Alpha  occ. eigenvalues --   -0.98841  -0.94924  -0.90785  -0.85125  -0.83336
 Alpha  occ. eigenvalues --   -0.81040  -0.80931  -0.80815  -0.80275  -0.78670
 Alpha  occ. eigenvalues --   -0.77191  -0.76433  -0.76084  -0.74823  -0.73684
 Alpha  occ. eigenvalues --   -0.71246  -0.70581  -0.70266  -0.69591  -0.67828
 Alpha  occ. eigenvalues --   -0.67438  -0.65628  -0.62924  -0.60694  -0.60291
 Alpha  occ. eigenvalues --   -0.59475  -0.59033  -0.58799  -0.58055  -0.57332
 Alpha  occ. eigenvalues --   -0.56803  -0.56098  -0.54868  -0.53605  -0.52849
 Alpha  occ. eigenvalues --   -0.52588  -0.52035  -0.51675  -0.50388  -0.49909
 Alpha  occ. eigenvalues --   -0.49020  -0.48799  -0.48706  -0.48308  -0.47882
 Alpha  occ. eigenvalues --   -0.47810  -0.47568  -0.46904  -0.46562  -0.46033
 Alpha  occ. eigenvalues --   -0.45475  -0.45026  -0.44957  -0.44740  -0.44545
 Alpha  occ. eigenvalues --   -0.44258  -0.43876  -0.43807  -0.43344  -0.42458
 Alpha  occ. eigenvalues --   -0.42101  -0.41791  -0.41520  -0.41413  -0.41031
 Alpha  occ. eigenvalues --   -0.40841  -0.40730  -0.40304  -0.40085  -0.39964
 Alpha  occ. eigenvalues --   -0.39769  -0.39346  -0.39180  -0.38642  -0.38583
 Alpha  occ. eigenvalues --   -0.38078  -0.37369  -0.36796  -0.36476  -0.36083
 Alpha  occ. eigenvalues --   -0.35672  -0.35389  -0.34802  -0.34335  -0.33656
 Alpha  occ. eigenvalues --   -0.33169  -0.33024  -0.32666  -0.32118  -0.31845
 Alpha  occ. eigenvalues --   -0.31559  -0.30384  -0.30149  -0.29213  -0.28118
 Alpha  occ. eigenvalues --   -0.27929  -0.27124  -0.25583  -0.24868  -0.24451
 Alpha  occ. eigenvalues --   -0.23817  -0.23456  -0.23228  -0.22381  -0.19646
 Alpha virt. eigenvalues --   -0.13220  -0.07387  -0.03711  -0.00753  -0.00081
 Alpha virt. eigenvalues --    0.00752   0.01983   0.02252   0.02379   0.03188
 Alpha virt. eigenvalues --    0.03572   0.04337   0.04734   0.05347   0.05551

 Mulliken charges:
               1
     1  O   -0.182130
     2  O   -0.198686
     3  O   -0.204154
     4  O   -0.300013
     5  O   -0.156172
     6  O   -0.287074
     7  N    0.063330
     8  N   -0.213026
     9  N   -0.060342
    10  N   -0.201478
    11  C   -0.075517
    12  C    0.250157
    13  C   -0.074955
    14  C   -0.090985
    15  C   -0.134595
    16  C   -0.121040
    17  C   -0.190950
    18  C    0.161432
    19  C   -0.036049
    20  C   -0.122682
    21  C    0.069684
    22  C    0.131067
    23  C   -0.002837
    24  C    0.028057
    25  C    0.131154
    26  C   -0.173379
    27  C   -0.015165
    28  C    0.143891
    29  C    0.126752
    30  C   -0.024058
    31  C   -0.032501
    32  C    0.149682
    33  C    0.003383
    34  C    0.119067
    35  C    0.090592
    36  C   -0.079798
    37  C    0.136811
    38  C   -0.039132
    39  C   -0.226333
    40  C    0.145199
    41  C    0.067828
    42  C    0.060873
    43  C   -0.066792
    44  H    0.091860
    45  H   -0.071401
    46  H    0.007425
    47  H    0.054279
    48  H    0.119336
    49  H    0.015203
    50  H   -0.000876
    51  H    0.031259
    52  H   -0.000181
    53  H   -0.000068
    54  H    0.063588
    55  H   -0.023123
    56  H    0.054331
    57  H    0.030993
    58  H    0.037417
    59  H    0.057109
    60  H    0.218930
    61  H    0.033675
    62  H   -0.005975
    63  H    0.040470
    64  H    0.043630
    65  H    0.029787
    66  H    0.019692
    67  H    0.035822
    68  H    0.000246
    69  H   -0.111265
    70  H    0.032375
    71  H    0.029802
    72  H    0.163722
    73  H    0.012038
    74  H    0.038247
    75  H    0.062434
    76  H    0.045251
    77  H    0.214204
    78  H    0.028045
    79  H    0.032605
 Sum of Mulliken charges =  -0.00000

 Dipole moment (field-independent basis, Debye):
    X=              3.7568    Y=              1.5973    Z=             -1.1808  Tot=              4.2497
 Quadrupole moment (field-independent basis, Debye-Ang):
   XX=           -234.9207   YY=           -238.8570   ZZ=           -266.8663
   XY=              7.7513   XZ=            -19.6695   YZ=            -11.1727

 Normal termination of Gaussian 16 at Wed Jul 24 01:45:38 2019.
