 Gaussian 16, Revision A.03,
 Gaussian 16:  ES64L-G16RevA.03 25-Dec-2016

 --------------------------
 # td=(NStates=1) B3LYP/SVP
 --------------------------

 --
 TD
 --
 Symbolic Z-matrix:
 Charge =  0 Multiplicity = 1

                         Standard orientation:
 ---------------------------------------------------------------------
 Center     Atomic      Atomic             Coordinates (Angstroms)
 Number     Number       Type             X           Y           Z
 ---------------------------------------------------------------------
      1          8           0       -3.360530   -1.871537   -2.713589
      2          8           0        3.148805    3.327498    3.028882
      3          8           0        3.959337    1.585169    4.124240
      4          8           0        7.648174   -1.643801   -0.641729
      5          8           0        6.676689   -3.288452   -1.818278
      6          8           0       -2.611301    1.751356    1.346875
      7          7           0       -0.271302   -2.258701    1.015345
      8          7           0       -2.675214   -1.361266   -0.596558
      9          7           0        1.209083    0.017819   -0.686407
     10          7           0       -1.027747    1.411913   -0.432816
     11          6           0       -3.314471   -1.264064    0.714785
     12          6           0       -2.584557   -2.120224    1.795778
     13          6           0       -1.308102   -1.745789    1.883374
     14          6           0       -0.596345   -0.744573    2.818400
     15          6           0        0.828202   -0.923412    2.538918
     16          6           0        0.936046   -1.707539    1.377321
     17          6           0       -4.759719   -1.820088    0.506800
     18          6           0        1.981254   -0.075549    3.226035
     19          6           0       -4.866470   -2.161606   -0.798165
     20          6           0        2.098055   -1.857093    0.505503
     21          6           0        2.041766   -1.055644   -0.640773
     22          6           0       -3.625524   -1.700834   -1.601403
     23          6           0        2.897105   -0.922396   -1.747815
     24          6           0       -1.275449   -0.034677    3.858278
     25          6           0       -5.691751   -1.866916    1.612826
     26          6           0        2.456704    0.233333   -2.510481
     27          6           0        1.965756    1.372008    2.733976
     28          6           0        1.393196    0.742636   -1.847713
     29          6           0        4.249559   -1.753455   -1.988201
     30          6           0       -6.016182   -2.661277   -1.770369
     31          6           0        5.361257   -1.198979   -1.103996
     32          6           0        3.063143    0.765752   -3.751048
     33          6           0        0.459830    1.794861   -2.262461
     34          6           0        3.139209    2.091684    3.442489
     35          6           0       -0.570472    2.198146   -1.437954
     36          6           0       -7.169950   -3.257108   -1.157028
     37          6           0        6.564734   -2.142495   -1.246556
     38          6           0       -1.344565    3.409664   -1.508024
     39          6           0       -2.275448    3.414210   -0.527383
     40          6           0       -2.087600    2.068138    0.180495
     41          6           0       -1.270211    4.395624   -2.545065
     42          6           0       -3.393972    4.423036   -0.173800
     43          6           0       -1.726496    5.609424   -2.661766
     44          1           0       -3.306514   -0.128681    1.157972
     45          1           0       -2.771839   -3.354419    1.690554
     46          1           0       -3.122238   -2.083931    2.639624
     47          1           0       -0.480337   -2.770316    0.142343
     48          1           0       -2.064883   -0.589818   -0.679297
     49          1           0        1.989387   -0.258187    4.406662
     50          1           0        3.003382   -0.411220    2.774348
     51          1           0        2.809719   -2.712110    0.507050
     52          1           0       -2.211662   -0.632096    4.137527
     53          1           0       -0.562663    0.527578    4.427463
     54          1           0       -1.742426    0.692201    3.444375
     55          1           0       -5.627005   -1.089182    2.573404
     56          1           0       -5.538461   -2.936145    2.125052
     57          1           0       -6.841176   -1.955225    1.309813
     58          1           0        2.144013    1.285288    1.595585
     59          1           0        0.919443    1.948600    2.889397
     60          1           0        0.209297    0.297777   -0.139732
     61          1           0        4.533731   -1.843193   -2.958560
     62          1           0        4.221251   -2.810358   -1.457477
     63          1           0       -5.963142   -2.614921   -2.794127
     64          1           0        4.998145   -1.217513   -0.111887
     65          1           0        5.615000   -0.063603   -1.361984
     66          1           0        3.896420    0.096648   -4.102145
     67          1           0        3.519722    1.681435   -3.530872
     68          1           0        2.367471    0.827900   -4.694386
     69          1           0        0.680824    2.526636   -3.172748
     70          1           0       -7.250793   -3.334733   -0.085790
     71          1           0       -8.020404   -3.706693   -1.914498
     72          1           0        4.107194    3.931604    3.022153
     73          1           0       -0.733324    4.104086   -3.331755
     74          1           0       -4.102062    4.767556   -0.919646
     75          1           0       -3.970555    4.020442    0.711165
     76          1           0       -2.892299    5.289570    0.286918
     77          1           0        8.409675   -2.248252   -0.601367
     78          1           0       -1.501929    6.053511   -3.435077
     79          1           0       -2.405299    6.130778   -1.748074
 ---------------------------------------------------------------------

 SCF Done:  E(RB3LYP) =  -1947.71986420     A.U. after   22 cycles

 Excitation energies and oscillator strengths:

 Excited State   1:      Singlet-A      0.5933 eV 2089.91 nm  f=0.0106  <S**2>=0.000
     155 ->156         0.71055
 This state for optimization and/or second-order correction.
 Total Energy, E(TD-HF/TD-DFT) =  -1947.69806264
 Copying the excited state density for this state as the 1-particle RhoCI density.

 The electronic state is 1-A.
 Alpha  occ. eigenvalues --  -19.19647 -19.18329 -19.13717 -19.12006 -19.11540
 Alpha  occ. eigenvalues --  -19.09602 -14.37096 -14.36551 -14.31548 -14.31268
 Alpha  occ. eigenvalues --  -10.34354 -10.31204 -10.28537 -10.26805 -10.26073
 Alpha  occ. eigenvalues --  -10.25240 -10.24507 -10.24094 -10.23679 -10.23550
 Alpha  occ. eigenvalues --  -10.22558 -10.22159 -10.22138 -10.22123 -10.22108
 Alpha  occ. eigenvalues --  -10.21730 -10.21609 -10.21354 -10.21082 -10.20682
 Alpha  occ. eigenvalues --  -10.20608 -10.20606 -10.20284 -10.20157 -10.20076
 Alpha  occ. eigenvalues --  -10.20006 -10.19296 -10.19042 -10.18943 -10.18567
 Alpha  occ. eigenvalues --  -10.18422 -10.18373 -10.15869  -1.10231  -1.09483
 Alpha  occ. eigenvalues --   -1.04399  -1.00664  -0.99919  -0.98589  -0.98466
 Alpha  occ. eigenvalues --   -0.94949  -0.93033  -0.91127  -0.83058  -0.82972
 Alpha  occ. eigenvalues --   -0.82214  -0.79973  -0.79484  -0.79337  -0.79060
 Alpha  occ. eigenvalues --   -0.76892  -0.75795  -0.75764  -0.73643  -0.73002
 Alpha  occ. eigenvalues --   -0.71217  -0.70864  -0.69474  -0.68757  -0.67969
 Alpha  occ. eigenvalues --   -0.65267  -0.64729  -0.62797  -0.61928  -0.61149
 Alpha  occ. eigenvalues --   -0.59341  -0.58516  -0.58207  -0.57924  -0.56301
 Alpha  occ. eigenvalues --   -0.55557  -0.55105  -0.54489  -0.53043  -0.52971
 Alpha  occ. eigenvalues --   -0.52551  -0.51883  -0.51076  -0.50086  -0.49674
 Alpha  occ. eigenvalues --   -0.48874  -0.48419  -0.48257  -0.47891  -0.47259
 Alpha  occ. eigenvalues --   -0.46964  -0.46778  -0.46489  -0.46234  -0.46078
 Alpha  occ. eigenvalues --   -0.45474  -0.44858  -0.44437  -0.44327  -0.44058
 Alpha  occ. eigenvalues --   -0.43618  -0.42941  -0.42669  -0.42270  -0.41910
 Alpha  occ. eigenvalues --   -0.41631  -0.41556  -0.40905  -0.40626  -0.40535
 Alpha  occ. eigenvalues --   -0.40320  -0.40150  -0.39886  -0.39585  -0.39378
 Alpha  occ. eigenvalues --   -0.39282  -0.39046  -0.38913  -0.38628  -0.38449
 Alpha  occ. eigenvalues --   -0.37609  -0.37429  -0.37134  -0.36777  -0.36006
 Alpha  occ. eigenvalues --   -0.35859  -0.35326  -0.35052  -0.34661  -0.34100
 Alpha  occ. eigenvalues --   -0.33286  -0.32784  -0.32402  -0.32349  -0.32060
 Alpha  occ. eigenvalues --   -0.30497  -0.29389  -0.29258  -0.28912  -0.28816
 Alpha  occ. eigenvalues --   -0.27995  -0.26396  -0.25658  -0.24961  -0.24330
 Alpha  occ. eigenvalues --   -0.23914  -0.22661  -0.22233  -0.22160  -0.18083
 Alpha virt. eigenvalues --   -0.13643  -0.08270  -0.04131  -0.03022  -0.01356
 Alpha virt. eigenvalues --   -0.00842   0.00377   0.01583   0.01911   0.02481
 Alpha virt. eigenvalues --    0.03581   0.03953   0.04289   0.04644   0.05024

 Mulliken charges:
               1
     1  O   -0.152994
     2  O   -0.243716
     3  O   -0.191292
     4  O   -0.167533
     5  O   -0.290015
     6  O   -0.309628
     7  N   -0.097873
     8  N   -0.217339
     9  N   -0.177067
    10  N   -0.328060
    11  C   -0.032408
    12  C    0.147588
    13  C   -0.025087
    14  C   -0.187464
    15  C   -0.078991
    16  C    0.012447
    17  C   -0.078236
    18  C    0.030760
    19  C   -0.101284
    20  C   -0.051233
    21  C    0.068951
    22  C    0.139538
    23  C   -0.062594
    24  C    0.327996
    25  C   -0.055256
    26  C   -0.136821
    27  C   -0.106080
    28  C    0.099561
    29  C    0.084322
    30  C    0.038269
    31  C   -0.015915
    32  C    0.098526
    33  C   -0.115623
    34  C    0.145826
    35  C    0.115614
    36  C   -0.071274
    37  C    0.168537
    38  C    0.087115
    39  C   -0.190058
    40  C    0.215138
    41  C   -0.009385
    42  C    0.085984
    43  C    0.065380
    44  H    0.097756
    45  H    0.005297
    46  H   -0.072489
    47  H    0.130948
    48  H    0.117397
    49  H    0.053314
    50  H    0.008802
    51  H    0.024889
    52  H   -0.000057
    53  H   -0.020512
    54  H   -0.073795
    55  H    0.063675
    56  H    0.047167
    57  H    0.051156
    58  H    0.055049
    59  H    0.067433
    60  H    0.269355
    61  H    0.001346
    62  H    0.042444
    63  H   -0.013951
    64  H    0.035721
    65  H    0.059908
    66  H    0.011498
    67  H    0.016897
    68  H    0.055578
    69  H    0.027425
    70  H    0.015685
    71  H    0.047498
    72  H    0.247990
    73  H   -0.078381
    74  H    0.044132
    75  H    0.026998
    76  H    0.029904
    77  H    0.194553
    78  H   -0.068776
    79  H    0.039817
 Sum of Mulliken charges =  -0.00000

 Dipole moment (field-independent basis, Debye):
    X=              4.1371    Y=              3.9523    Z=             -1.2575  Tot=              5.8581
 Quadrupole moment (field-independent basis, Debye-Ang):
   XX=           -231.5914   YY=           -243.2049   ZZ=           -265.3798
   XY=              8.6132   XZ=            -18.3481   YZ=            -16.4594

 Normal termination of Gaussian 16 at Tue Jul 30 02:33:42 2019.
