 Gaussian 16, Revision A.03,
 Gaussian 16:  ES64L-G16RevA.03 25-Dec-2016

 --------------------------
 # td=(NStates=1) B3LYP/SVP
 --------------------------

 --
 TD
 --
 Symbolic Z-matrix:
 Charge =  0 Multiplicity = 1

                         Standard orientation:
 ---------------------------------------------------------------------
 Center     Atomic      Atomic             Coordinates (Angstroms)
 Number     Number       Type             X           Y           Z
 ---------------------------------------------------------------------
      1          8           0       -3.272925   -1.513394   -2.803705
      2          8           0        3.070396    3.275371    2.852851
      3          8           0        3.590824    1.695224    4.390431
      4          8           0        7.657330   -1.706522   -0.569108
      5          8           0        6.651942   -3.017663   -2.032375
      6          8           0       -2.611505    1.636775    1.350507
      7          7           0       -0.303508   -2.382642    1.034226
      8          7           0       -2.655611   -1.192646   -0.593435
      9          7           0        1.110559    0.016344   -0.751721
     10          7           0       -0.982225    1.480517   -0.264242
     11          6           0       -3.390016   -1.345046    0.714995
     12          6           0       -2.574348   -2.249443    1.699896
     13          6           0       -1.166381   -1.923516    1.871926
     14          6           0       -0.525469   -1.069621    2.770737
     15          6           0        0.829826   -1.075223    2.474915
     16          6           0        0.971763   -1.811993    1.303062
     17          6           0       -4.669953   -1.909433    0.355162
     18          6           0        1.867337   -0.197224    3.204886
     19          6           0       -4.719848   -2.079565   -0.964681
     20          6           0        2.097305   -1.917660    0.388234
     21          6           0        2.128868   -0.964855   -0.630850
     22          6           0       -3.577785   -1.632269   -1.623117
     23          6           0        3.000172   -0.823221   -1.734933
     24          6           0       -1.270051   -0.254015    3.861603
     25          6           0       -5.661845   -2.272065    1.414438
     26          6           0        2.491953    0.335950   -2.489787
     27          6           0        1.883610    1.254829    2.694155
     28          6           0        1.345725    0.849160   -1.853545
     29          6           0        4.321957   -1.472792   -1.995354
     30          6           0       -5.828247   -2.595797   -1.910290
     31          6           0        5.395579   -1.133608   -1.036490
     32          6           0        3.104986    0.970971   -3.706709
     33          6           0        0.492006    1.944771   -2.017509
     34          6           0        2.893166    2.134836    3.421269
     35          6           0       -0.586645    2.267926   -1.362947
     36          6           0       -6.956932   -3.265656   -1.444050
     37          6           0        6.596599   -2.098680   -1.305270
     38          6           0       -1.493102    3.411305   -1.458758
     39          6           0       -2.305603    3.322121   -0.261548
     40          6           0       -1.967225    2.025702    0.440242
     41          6           0       -1.240607    4.540757   -2.313840
     42          6           0       -3.481244    4.274451    0.235631
     43          6           0       -2.057210    5.569549   -2.642476
     44          1           0       -3.444230   -0.361489    1.023010
     45          1           0       -2.603495   -3.190698    1.399780
     46          1           0       -2.973090   -2.231547    2.683385
     47          1           0       -0.517865   -2.965343    0.136100
     48          1           0       -1.723725   -0.547767   -0.930596
     49          1           0        1.789509    0.007963    4.422264
     50          1           0        2.783757   -0.631623    3.114072
     51          1           0        2.850205   -2.762013    0.697501
     52          1           0       -2.022541   -0.792585    4.432901
     53          1           0       -0.505186    0.386222    4.415796
     54          1           0       -1.783116    0.564422    3.181524
     55          1           0       -5.441260   -1.311633    2.083019
     56          1           0       -5.500845   -3.302953    1.856034
     57          1           0       -6.591084   -2.141071    1.028240
     58          1           0        2.186660    1.147697    1.578424
     59          1           0        0.692646    1.710656    2.664993
     60          1           0        0.504106    0.277353    0.133536
     61          1           0        4.579422   -1.283634   -3.145492
     62          1           0        4.066769   -2.560536   -2.105837
     63          1           0       -5.536196   -2.454989   -3.121853
     64          1           0        4.980173   -1.374806   -0.025819
     65          1           0        5.699693   -0.192784   -1.113929
     66          1           0        3.807686    0.221500   -4.240214
     67          1           0        3.745671    1.769554   -3.316548
     68          1           0        2.217383    1.591327   -4.351331
     69          1           0        0.762762    2.410047   -2.928683
     70          1           0       -7.101399   -3.255219   -0.370143
     71          1           0       -7.680961   -3.630881   -2.287667
     72          1           0        3.703987    3.815050    3.323113
     73          1           0        0.059985    4.645392   -2.711395
     74          1           0       -4.072700    4.380760   -0.692050
     75          1           0       -3.848425    3.828835    1.055528
     76          1           0       -2.995206    5.346705    0.430588
     77          1           0        8.413757   -2.422909   -0.765256
     78          1           0       -1.708139    6.376992   -3.310351
     79          1           0       -3.357740    5.660787   -2.319228
 ---------------------------------------------------------------------

 SCF Done:  E(RB3LYP) =  -1947.75067946     A.U. after   22 cycles

 Excitation energies and oscillator strengths:

 Excited State   1:      Singlet-A      0.7047 eV 1759.51 nm  f=0.0020  <S**2>=0.000
     155 ->156         0.70435
 This state for optimization and/or second-order correction.
 Total Energy, E(TD-HF/TD-DFT) =  -1947.72478402
 Copying the excited state density for this state as the 1-particle RhoCI density.

 The electronic state is 1-A.
 Alpha  occ. eigenvalues --  -19.20167 -19.19689 -19.14737 -19.11939 -19.11009
 Alpha  occ. eigenvalues --  -19.07210 -14.37421 -14.37388 -14.31657 -14.28641
 Alpha  occ. eigenvalues --  -10.33444 -10.32599 -10.26842 -10.26354 -10.26118
 Alpha  occ. eigenvalues --  -10.24993 -10.24791 -10.24088 -10.23777 -10.23570
 Alpha  occ. eigenvalues --  -10.23557 -10.22915 -10.22701 -10.22384 -10.21988
 Alpha  occ. eigenvalues --  -10.21657 -10.21346 -10.21027 -10.20870 -10.20740
 Alpha  occ. eigenvalues --  -10.20549 -10.20157 -10.19882 -10.19881 -10.19728
 Alpha  occ. eigenvalues --  -10.19365 -10.19237 -10.19131 -10.18002 -10.17845
 Alpha  occ. eigenvalues --  -10.17800 -10.17747 -10.16021  -1.12226  -1.11746
 Alpha  occ. eigenvalues --   -1.04298  -1.02481  -0.99097  -0.98661  -0.98296
 Alpha  occ. eigenvalues --   -0.97827  -0.92419  -0.89967  -0.84338  -0.83171
 Alpha  occ. eigenvalues --   -0.80358  -0.79671  -0.79501  -0.79166  -0.78657
 Alpha  occ. eigenvalues --   -0.76989  -0.75818  -0.74583  -0.73776  -0.73184
 Alpha  occ. eigenvalues --   -0.70459  -0.70081  -0.69540  -0.69043  -0.68078
 Alpha  occ. eigenvalues --   -0.66832  -0.66009  -0.63751  -0.61226  -0.60629
 Alpha  occ. eigenvalues --   -0.59985  -0.59180  -0.57499  -0.57242  -0.56111
 Alpha  occ. eigenvalues --   -0.55151  -0.54661  -0.54167  -0.53639  -0.52292
 Alpha  occ. eigenvalues --   -0.51863  -0.51737  -0.51050  -0.50104  -0.49744
 Alpha  occ. eigenvalues --   -0.49493  -0.49111  -0.48699  -0.48123  -0.48017
 Alpha  occ. eigenvalues --   -0.47849  -0.47179  -0.46116  -0.45905  -0.44942
 Alpha  occ. eigenvalues --   -0.44786  -0.44487  -0.44334  -0.44063  -0.43548
 Alpha  occ. eigenvalues --   -0.43522  -0.43227  -0.42988  -0.42644  -0.42471
 Alpha  occ. eigenvalues --   -0.42233  -0.41600  -0.41412  -0.41165  -0.40636
 Alpha  occ. eigenvalues --   -0.40528  -0.40367  -0.39960  -0.39468  -0.39292
 Alpha  occ. eigenvalues --   -0.39143  -0.38692  -0.38384  -0.38137  -0.37991
 Alpha  occ. eigenvalues --   -0.37339  -0.37017  -0.36920  -0.36783  -0.36400
 Alpha  occ. eigenvalues --   -0.35994  -0.35777  -0.35605  -0.34471  -0.34148
 Alpha  occ. eigenvalues --   -0.33740  -0.33359  -0.32521  -0.31915  -0.31568
 Alpha  occ. eigenvalues --   -0.31270  -0.30432  -0.29196  -0.28806  -0.27766
 Alpha  occ. eigenvalues --   -0.27510  -0.26439  -0.23984  -0.23935  -0.23263
 Alpha  occ. eigenvalues --   -0.22908  -0.22687  -0.22210  -0.21514  -0.18913
 Alpha virt. eigenvalues --   -0.13601  -0.07782  -0.04160  -0.01497  -0.01048
 Alpha virt. eigenvalues --   -0.00310   0.01117   0.01685   0.02103   0.02428
 Alpha virt. eigenvalues --    0.02592   0.03277   0.03714   0.04144   0.04786

 Mulliken charges:
               1
     1  O   -0.249537
     2  O   -0.099145
     3  O   -0.294144
     4  O   -0.228974
     5  O   -0.178599
     6  O   -0.191417
     7  N   -0.042095
     8  N   -0.381497
     9  N   -0.186349
    10  N   -0.342271
    11  C    0.173522
    12  C    0.346612
    13  C   -0.157806
    14  C   -0.145144
    15  C   -0.059529
    16  C   -0.100680
    17  C   -0.219763
    18  C    0.097110
    19  C   -0.035361
    20  C   -0.117705
    21  C    0.123805
    22  C    0.138129
    23  C   -0.061009
    24  C    0.059709
    25  C    0.111216
    26  C   -0.123809
    27  C   -0.129991
    28  C    0.112977
    29  C    0.044327
    30  C   -0.060236
    31  C    0.101035
    32  C    0.028882
    33  C   -0.064336
    34  C    0.160244
    35  C    0.166975
    36  C   -0.043256
    37  C    0.110867
    38  C    0.073307
    39  C   -0.246496
    40  C    0.169130
    41  C   -0.084178
    42  C    0.120620
    43  C   -0.108031
    44  H    0.008515
    45  H   -0.088878
    46  H   -0.033067
    47  H    0.150219
    48  H    0.200091
    49  H    0.046712
    50  H   -0.035898
    51  H    0.060378
    52  H    0.018140
    53  H    0.003740
    54  H    0.051726
    55  H    0.040266
    56  H    0.061294
    57  H    0.008663
    58  H    0.042849
    59  H    0.088108
    60  H    0.238335
    61  H    0.020325
    62  H    0.031503
    63  H    0.064820
    64  H    0.051188
    65  H   -0.002399
    66  H    0.050233
    67  H    0.035324
    68  H    0.071135
    69  H   -0.058628
    70  H    0.007213
    71  H    0.048597
    72  H    0.179663
    73  H    0.044012
    74  H    0.045309
    75  H    0.004846
    76  H    0.045613
    77  H    0.218633
    78  H    0.034050
    79  H    0.060260
 Sum of Mulliken charges =  -0.00000

 Dipole moment (field-independent basis, Debye):
    X=              5.2282    Y=              1.7836    Z=             -0.7316  Tot=              5.5723
 Quadrupole moment (field-independent basis, Debye-Ang):
   XX=           -229.5851   YY=           -235.0362   ZZ=           -275.4333
   XY=              3.9715   XZ=            -24.2710   YZ=            -12.0346

 Normal termination of Gaussian 16 at Thu Jul 25 15:35:20 2019.
