 Gaussian 16, Revision A.03,
 Gaussian 16:  ES64L-G16RevA.03 25-Dec-2016

 --------------------------
 # td=(NStates=1) B3LYP/SVP
 --------------------------

 --
 TD
 --
 Symbolic Z-matrix:
 Charge =  0 Multiplicity = 1

                         Standard orientation:
 ---------------------------------------------------------------------
 Center     Atomic      Atomic             Coordinates (Angstroms)
 Number     Number       Type             X           Y           Z
 ---------------------------------------------------------------------
      1          8           0       -3.281447   -1.725448   -2.700436
      2          8           0        2.893001    3.610641    2.771101
      3          8           0        3.648206    2.142279    4.179978
      4          8           0        7.712048   -1.678898   -0.442014
      5          8           0        6.779064   -3.247030   -1.674487
      6          8           0       -2.652430    1.712366    1.234169
      7          7           0       -0.278062   -2.191984    1.259588
      8          7           0       -2.621796   -1.416189   -0.437704
      9          7           0        1.258895   -0.003710   -0.698612
     10          7           0       -0.937592    1.481672   -0.375176
     11          6           0       -3.429788   -1.336063    0.890710
     12          6           0       -2.622268   -2.093520    1.975069
     13          6           0       -1.200537   -1.774227    2.093743
     14          6           0       -0.595355   -0.797300    2.955663
     15          6           0        0.747130   -0.767282    2.517366
     16          6           0        0.912649   -1.698344    1.477166
     17          6           0       -4.749965   -1.889303    0.407489
     18          6           0        1.872281    0.009910    3.106963
     19          6           0       -4.780389   -2.224621   -0.812320
     20          6           0        2.083177   -1.931707    0.531195
     21          6           0        2.216424   -0.935896   -0.478078
     22          6           0       -3.510888   -1.757431   -1.554400
     23          6           0        3.141676   -0.863926   -1.636323
     24          6           0       -1.364965    0.011461    3.902778
     25          6           0       -5.759948   -1.913545    1.480320
     26          6           0        2.531266    0.001944   -2.428948
     27          6           0        1.749525    1.577585    2.715064
     28          6           0        1.405397    0.697499   -1.921411
     29          6           0        4.270979   -1.821544   -1.872435
     30          6           0       -5.868712   -2.747962   -1.657954
     31          6           0        5.478960   -1.363475   -1.014844
     32          6           0        3.064324    0.531769   -3.800887
     33          6           0        0.557312    1.787837   -2.268329
     34          6           0        2.866615    2.437146    3.244580
     35          6           0       -0.672945    2.194464   -1.578527
     36          6           0       -6.900096   -3.498810   -1.405737
     37          6           0        6.576388   -2.212395   -1.114096
     38          6           0       -1.487786    3.325203   -1.690583
     39          6           0       -2.288094    3.417959   -0.546034
     40          6           0       -1.981887    2.086660    0.205880
     41          6           0       -1.222653    4.145995   -2.863832
     42          6           0       -3.327185    4.382145   -0.202271
     43          6           0       -1.853249    5.406179   -3.066535
     44          1           0       -3.545884   -0.151962    1.009354
     45          1           0       -2.605585   -3.240705    1.804873
     46          1           0       -2.938737   -1.860849    2.999698
     47          1           0       -0.429429   -3.007768    0.601704
     48          1           0       -1.820409   -0.678778   -0.714105
     49          1           0        1.966147   -0.065423    4.475941
     50          1           0        2.893218   -0.187170    2.834665
     51          1           0        2.649491   -2.754554    0.613984
     52          1           0       -2.090018   -0.497014    4.527400
     53          1           0       -0.813744    0.791798    4.511448
     54          1           0       -1.879491    0.691407    3.296069
     55          1           0       -5.820934   -1.140709    2.207301
     56          1           0       -5.726748   -2.729977    2.417852
     57          1           0       -6.733088   -2.123292    1.144165
     58          1           0        1.905514    1.770710    1.525691
     59          1           0        0.658921    1.905477    2.863211
     60          1           0        0.533103    0.214329   -0.077517
     61          1           0        4.695758   -2.196853   -3.005907
     62          1           0        3.875590   -2.884063   -1.399088
     63          1           0       -5.743366   -2.353900   -2.709178
     64          1           0        5.037547   -1.127914    0.076858
     65          1           0        5.870953   -0.138023   -1.261844
     66          1           0        4.103755   -0.255642   -3.964465
     67          1           0        3.219113    1.589693   -3.777146
     68          1           0        2.221902    0.401181   -4.559972
     69          1           0        0.503468    2.198854   -3.362180
     70          1           0       -7.065947   -3.854941   -0.451092
     71          1           0       -7.507412   -3.699364   -2.241191
     72          1           0        3.602588    4.344189    2.886037
     73          1           0       -0.645940    3.892479   -3.680690
     74          1           0       -4.342320    4.255938   -0.868922
     75          1           0       -3.596228    4.208429    0.853658
     76          1           0       -2.802620    5.216171   -0.297832
     77          1           0        8.594738   -2.158212   -0.517234
     78          1           0       -1.554436    5.695067   -4.082765
     79          1           0       -2.551469    6.013183   -2.404589
 ---------------------------------------------------------------------

 SCF Done:  E(RB3LYP) =  -1947.72550527     A.U. after   21 cycles

 Excitation energies and oscillator strengths:

 Excited State   1:      Singlet-A      0.9956 eV 1245.34 nm  f=0.0225  <S**2>=0.000
     155 ->156         0.70430
 This state for optimization and/or second-order correction.
 Total Energy, E(TD-HF/TD-DFT) =  -1947.68891808
 Copying the excited state density for this state as the 1-particle RhoCI density.

 The electronic state is 1-A.
 Alpha  occ. eigenvalues --  -19.17986 -19.15718 -19.13844 -19.11836 -19.10172
 Alpha  occ. eigenvalues --  -19.09453 -14.37760 -14.37477 -14.32199 -14.30574
 Alpha  occ. eigenvalues --  -10.32853 -10.30933 -10.28029 -10.27690 -10.27097
 Alpha  occ. eigenvalues --  -10.26621 -10.25952 -10.25546 -10.24917 -10.23442
 Alpha  occ. eigenvalues --  -10.23260 -10.23203 -10.22804 -10.22725 -10.22482
 Alpha  occ. eigenvalues --  -10.22234 -10.21757 -10.21672 -10.21368 -10.20994
 Alpha  occ. eigenvalues --  -10.20864 -10.20504 -10.20124 -10.20109 -10.19648
 Alpha  occ. eigenvalues --  -10.19398 -10.19155 -10.18214 -10.17778 -10.17284
 Alpha  occ. eigenvalues --  -10.16995 -10.16734 -10.16721  -1.09962  -1.08671
 Alpha  occ. eigenvalues --   -1.03662  -1.00766  -0.99957  -0.99716  -0.98639
 Alpha  occ. eigenvalues --   -0.96337  -0.92804  -0.89097  -0.84581  -0.82498
 Alpha  occ. eigenvalues --   -0.81713  -0.80215  -0.79937  -0.79520  -0.78768
 Alpha  occ. eigenvalues --   -0.77466  -0.75957  -0.75206  -0.74751  -0.73016
 Alpha  occ. eigenvalues --   -0.71703  -0.70898  -0.69984  -0.69640  -0.67999
 Alpha  occ. eigenvalues --   -0.67211  -0.66436  -0.63323  -0.61655  -0.61065
 Alpha  occ. eigenvalues --   -0.60568  -0.59663  -0.58290  -0.57234  -0.55925
 Alpha  occ. eigenvalues --   -0.55705  -0.55542  -0.55339  -0.53619  -0.53252
 Alpha  occ. eigenvalues --   -0.53092  -0.51824  -0.50883  -0.50078  -0.49124
 Alpha  occ. eigenvalues --   -0.48988  -0.48691  -0.47751  -0.47711  -0.47443
 Alpha  occ. eigenvalues --   -0.47180  -0.46660  -0.46204  -0.45869  -0.45638
 Alpha  occ. eigenvalues --   -0.45361  -0.45175  -0.44497  -0.43630  -0.43415
 Alpha  occ. eigenvalues --   -0.43110  -0.43068  -0.42803  -0.42505  -0.42164
 Alpha  occ. eigenvalues --   -0.42007  -0.41366  -0.41156  -0.40988  -0.40756
 Alpha  occ. eigenvalues --   -0.40205  -0.39999  -0.39942  -0.39375  -0.39165
 Alpha  occ. eigenvalues --   -0.39108  -0.38658  -0.38438  -0.38217  -0.37897
 Alpha  occ. eigenvalues --   -0.37375  -0.37085  -0.36810  -0.36218  -0.35992
 Alpha  occ. eigenvalues --   -0.35581  -0.35492  -0.35219  -0.34964  -0.34243
 Alpha  occ. eigenvalues --   -0.33704  -0.32191  -0.31721  -0.31457  -0.30776
 Alpha  occ. eigenvalues --   -0.30210  -0.29643  -0.29052  -0.28732  -0.28533
 Alpha  occ. eigenvalues --   -0.27837  -0.25583  -0.25266  -0.25210  -0.23766
 Alpha  occ. eigenvalues --   -0.23710  -0.23329  -0.22822  -0.22209  -0.19582
 Alpha virt. eigenvalues --   -0.13875  -0.08578  -0.03309  -0.03214  -0.02957
 Alpha virt. eigenvalues --    0.00814   0.01324   0.02194   0.02498   0.03190
 Alpha virt. eigenvalues --    0.03383   0.03575   0.04077   0.04415   0.04470

 Mulliken charges:
               1
     1  O   -0.163320
     2  O   -0.161106
     3  O   -0.283290
     4  O   -0.292703
     5  O   -0.183412
     6  O   -0.277349
     7  N    0.052789
     8  N   -0.376216
     9  N   -0.061426
    10  N   -0.307501
    11  C    0.084178
    12  C    0.241557
    13  C   -0.202315
    14  C   -0.073484
    15  C   -0.079421
    16  C   -0.087173
    17  C   -0.126310
    18  C    0.026617
    19  C   -0.054222
    20  C   -0.013928
    21  C    0.082333
    22  C    0.159273
    23  C   -0.009381
    24  C    0.122067
    25  C    0.071033
    26  C   -0.139359
    27  C   -0.112627
    28  C    0.160878
    29  C   -0.044333
    30  C   -0.049195
    31  C   -0.127240
    32  C    0.026836
    33  C   -0.082194
    34  C    0.138839
    35  C    0.051200
    36  C    0.046705
    37  C    0.182489
    38  C    0.112232
    39  C   -0.220316
    40  C    0.201894
    41  C   -0.058641
    42  C    0.115143
    43  C   -0.043289
    44  H    0.091673
    45  H   -0.005176
    46  H   -0.012343
    47  H    0.129708
    48  H    0.166311
    49  H    0.046814
    50  H   -0.011977
    51  H   -0.032162
    52  H    0.008825
    53  H    0.000130
    54  H    0.004489
    55  H    0.003974
    56  H    0.020004
    57  H   -0.005583
    58  H    0.035302
    59  H    0.070739
    60  H    0.152863
    61  H    0.088489
    62  H    0.064239
    63  H    0.011731
    64  H    0.096159
    65  H    0.094736
    66  H    0.052592
    67  H    0.033608
    68  H    0.039742
    69  H    0.030681
    70  H   -0.016429
    71  H    0.007778
    72  H    0.229268
    73  H   -0.025827
    74  H    0.073791
    75  H    0.027766
    76  H    0.000833
    77  H    0.203163
    78  H    0.025032
    79  H    0.052744
 Sum of Mulliken charges =  -0.00000

 Dipole moment (field-independent basis, Debye):
    X=              1.6846    Y=              3.4295    Z=             -2.6286  Tot=              4.6377
 Quadrupole moment (field-independent basis, Debye-Ang):
   XX=           -244.2700   YY=           -232.5744   ZZ=           -270.7296
   XY=              2.7117   XZ=            -23.0693   YZ=            -17.6042

 Normal termination of Gaussian 16 at Fri Jul 26 15:04:20 2019.
