 Gaussian 16, Revision A.03,
 Gaussian 16:  ES64L-G16RevA.03 25-Dec-2016

 --------------------------
 # td=(NStates=1) B3LYP/SVP
 --------------------------

 --
 TD
 --
 Symbolic Z-matrix:
 Charge =  0 Multiplicity = 1

                         Standard orientation:
 ---------------------------------------------------------------------
 Center     Atomic      Atomic             Coordinates (Angstroms)
 Number     Number       Type             X           Y           Z
 ---------------------------------------------------------------------
      1          8           0        5.405783    0.110554   -3.339070
      2          8           0       -3.002860   -2.848857    3.280435
      3          8           0       -3.309178   -0.575926    3.238327
      4          8           0       -1.587352    7.114050    1.496736
      5          8           0       -0.433951    7.015937   -0.475392
      6          8           0       -1.835177   -4.046812    0.020135
      7          7           0        2.339781    0.837279    0.626331
      8          7           0        4.509153   -0.458515   -1.314638
      9          7           0       -1.894418    0.674090   -0.307726
     10          7           0       -2.630316   -1.923503   -0.622560
     11          6           0        4.763089   -1.218508   -0.149970
     12          6           0        4.315699   -0.462221    1.263354
     13          6           0        2.899373   -0.113477    1.325895
     14          6           0        1.859100   -0.669391    2.225464
     15          6           0        0.705685   -0.029423    1.799575
     16          6           0        1.026543    0.983373    0.790501
     17          6           0        6.220534   -1.461555   -0.175945
     18          6           0       -0.671009   -0.113677    2.463069
     19          6           0        6.690588   -0.850418   -1.417618
     20          6           0        0.164924    1.954747    0.192363
     21          6           0       -1.057112    1.819952   -0.274313
     22          6           0        5.539313   -0.306386   -2.185279
     23          6           0       -1.837707    2.887924   -0.920816
     24          6           0        2.122724   -1.666972    3.266429
     25          6           0        6.842337   -2.270459    0.863445
     26          6           0       -3.076443    2.409262   -1.310919
     27          6           0       -1.196282   -1.671334    2.551833
     28          6           0       -3.034035    0.936007   -1.011088
     29          6           0       -1.368476    4.375297   -0.951901
     30          6           0        8.048404   -0.961310   -1.932113
     31          6           0       -1.589746    5.121165    0.414165
     32          6           0       -4.287814    3.013426   -1.934178
     33          6           0       -4.009667   -0.047230   -1.310044
     34          6           0       -2.618604   -1.568667    2.984342
     35          6           0       -3.773898   -1.503881   -1.163924
     36          6           0        9.174432   -1.003112   -1.303295
     37          6           0       -1.141133    6.516608    0.393095
     38          6           0       -4.656848   -2.666815   -1.573780
     39          6           0       -3.999434   -3.680196   -1.152878
     40          6           0       -2.730181   -3.353211   -0.467093
     41          6           0       -5.879381   -2.347355   -2.188338
     42          6           0       -4.277469   -5.198658   -1.097555
     43          6           0       -6.891425   -3.238269   -2.537703
     44          1           0        4.043080   -2.128891   -0.012427
     45          1           0        5.108631    0.415918    1.496624
     46          1           0        4.349664   -1.119341    2.107133
     47          1           0        2.785723    1.533475   -0.010244
     48          1           0        3.441477   -0.248892   -1.782124
     49          1           0       -0.505144    0.140177    3.523998
     50          1           0       -1.369272    0.354258    1.894647
     51          1           0        0.576931    3.014712    0.121543
     52          1           0        3.118952   -1.735448    3.482795
     53          1           0        1.658091   -1.221658    4.286291
     54          1           0        1.794057   -2.582196    2.984289
     55          1           0        6.102592   -3.176678    1.058689
     56          1           0        7.154119   -1.643939    1.725855
     57          1           0        7.792508   -2.788314    0.346541
     58          1           0       -1.040181   -2.098755    1.541241
     59          1           0       -0.666697   -2.443117    3.226216
     60          1           0       -1.657376   -0.188546   -0.130546
     61          1           0       -1.747806    4.905944   -1.798967
     62          1           0       -0.292722    4.203618   -1.246059
     63          1           0        8.125098   -0.795906   -3.058027
     64          1           0       -0.833484    4.727694    1.152127
     65          1           0       -2.516617    5.065395    0.691901
     66          1           0       -3.992748    4.040397   -2.150133
     67          1           0       -5.233421    2.827180   -1.512112
     68          1           0       -3.961843    2.672932   -3.091154
     69          1           0       -4.853282    0.320483   -2.020111
     70          1           0        9.288623   -0.817874   -0.076095
     71          1           0       10.170176   -0.934384   -1.669567
     72          1           0       -3.963862   -2.754816    3.538911
     73          1           0       -6.080845   -1.468754   -2.689752
     74          1           0       -5.174814   -5.420427   -0.464679
     75          1           0       -4.657797   -5.394740   -2.140906
     76          1           0       -3.339488   -5.741202   -0.807122
     77          1           0       -0.915244    7.964030    1.536251
     78          1           0       -7.689887   -2.819257   -3.134546
     79          1           0       -6.841184   -4.411502   -2.208397
 ---------------------------------------------------------------------

 SCF Done:  E(RB3LYP) =  -1947.82860120     A.U. after   16 cycles

 Excitation energies and oscillator strengths:

 Excited State   1:      Singlet-A      1.9967 eV  620.96 nm  f=0.4028  <S**2>=0.000
     155 ->156         0.70260
 This state for optimization and/or second-order correction.
 Total Energy, E(TD-HF/TD-DFT) =  -1947.75522497
 Copying the excited state density for this state as the 1-particle RhoCI density.

 The electronic state is 1-A.
 Alpha  occ. eigenvalues --  -19.20383 -19.16739 -19.13340 -19.11749 -19.11621
 Alpha  occ. eigenvalues --  -19.09761 -14.39365 -14.36360 -14.35960 -14.28595
 Alpha  occ. eigenvalues --  -10.32532 -10.30685 -10.28509 -10.26910 -10.25701
 Alpha  occ. eigenvalues --  -10.25057 -10.24060 -10.23690 -10.22922 -10.22538
 Alpha  occ. eigenvalues --  -10.22482 -10.22250 -10.22140 -10.21728 -10.21655
 Alpha  occ. eigenvalues --  -10.21593 -10.21565 -10.21513 -10.21464 -10.21346
 Alpha  occ. eigenvalues --  -10.20866 -10.20180 -10.20167 -10.20077 -10.19928
 Alpha  occ. eigenvalues --  -10.19683 -10.19284 -10.19172 -10.19063 -10.19026
 Alpha  occ. eigenvalues --  -10.18859 -10.18590 -10.18325  -1.10382  -1.07078
 Alpha  occ. eigenvalues --   -1.01882  -1.01298  -1.00855  -1.00835  -0.98207
 Alpha  occ. eigenvalues --   -0.98123  -0.94174  -0.91993  -0.83155  -0.81955
 Alpha  occ. eigenvalues --   -0.81557  -0.81070  -0.80911  -0.79605  -0.78956
 Alpha  occ. eigenvalues --   -0.77471  -0.76295  -0.75466  -0.74109  -0.72655
 Alpha  occ. eigenvalues --   -0.71951  -0.71221  -0.69832  -0.69361  -0.69241
 Alpha  occ. eigenvalues --   -0.66749  -0.66435  -0.64307  -0.60458  -0.60327
 Alpha  occ. eigenvalues --   -0.59519  -0.58573  -0.58080  -0.57458  -0.56874
 Alpha  occ. eigenvalues --   -0.56045  -0.55515  -0.55234  -0.53767  -0.53457
 Alpha  occ. eigenvalues --   -0.52593  -0.51754  -0.50846  -0.50657  -0.50056
 Alpha  occ. eigenvalues --   -0.49435  -0.48751  -0.48639  -0.48181  -0.48107
 Alpha  occ. eigenvalues --   -0.47256  -0.46975  -0.46732  -0.46524  -0.45945
 Alpha  occ. eigenvalues --   -0.45544  -0.45041  -0.44446  -0.44211  -0.43823
 Alpha  occ. eigenvalues --   -0.43663  -0.43350  -0.43064  -0.42869  -0.42391
 Alpha  occ. eigenvalues --   -0.42341  -0.42050  -0.41822  -0.41712  -0.41409
 Alpha  occ. eigenvalues --   -0.40628  -0.40392  -0.40267  -0.39916  -0.39851
 Alpha  occ. eigenvalues --   -0.39702  -0.39005  -0.38922  -0.38679  -0.38329
 Alpha  occ. eigenvalues --   -0.37736  -0.37436  -0.37094  -0.36937  -0.36590
 Alpha  occ. eigenvalues --   -0.36377  -0.35569  -0.34813  -0.34497  -0.34029
 Alpha  occ. eigenvalues --   -0.33672  -0.33237  -0.33217  -0.32665  -0.31764
 Alpha  occ. eigenvalues --   -0.31498  -0.30777  -0.28975  -0.28791  -0.27433
 Alpha  occ. eigenvalues --   -0.27168  -0.26098  -0.25892  -0.25488  -0.24372
 Alpha  occ. eigenvalues --   -0.24137  -0.23964  -0.23711  -0.22178  -0.18691
 Alpha virt. eigenvalues --   -0.10518  -0.06881  -0.06173  -0.01206  -0.00647
 Alpha virt. eigenvalues --    0.00613   0.00789   0.01068   0.01844   0.02150
 Alpha virt. eigenvalues --    0.03150   0.03477   0.04159   0.04402   0.04838

 Mulliken charges:
               1
     1  O   -0.237493
     2  O   -0.206142
     3  O   -0.256207
     4  O   -0.217983
     5  O   -0.243210
     6  O   -0.205064
     7  N    0.051354
     8  N   -0.225663
     9  N   -0.003353
    10  N   -0.296310
    11  C    0.064341
    12  C    0.133097
    13  C   -0.154139
    14  C   -0.138351
    15  C   -0.153159
    16  C    0.002423
    17  C   -0.118299
    18  C    0.177624
    19  C   -0.080941
    20  C   -0.156010
    21  C    0.162493
    22  C    0.161439
    23  C   -0.127203
    24  C    0.174246
    25  C    0.026955
    26  C   -0.148206
    27  C   -0.104785
    28  C    0.060517
    29  C    0.088395
    30  C    0.008244
    31  C    0.126369
    32  C    0.125726
    33  C   -0.093930
    34  C    0.181712
    35  C    0.012885
    36  C   -0.087324
    37  C    0.110407
    38  C    0.185409
    39  C   -0.255291
    40  C    0.187287
    41  C   -0.055652
    42  C    0.072888
    43  C   -0.060613
    44  H    0.039617
    45  H    0.022088
    46  H   -0.030043
    47  H    0.123520
    48  H    0.178472
    49  H    0.016589
    50  H   -0.020278
    51  H    0.006027
    52  H   -0.031652
    53  H    0.032125
    54  H    0.018120
    55  H    0.048884
    56  H    0.060597
    57  H    0.057265
    58  H    0.079781
    59  H    0.051804
    60  H    0.060487
    61  H    0.003860
    62  H    0.017714
    63  H    0.032055
    64  H    0.049869
    65  H   -0.013736
    66  H   -0.004450
    67  H    0.053799
    68  H    0.050323
    69  H    0.005379
    70  H    0.025291
    71  H    0.019634
    72  H    0.178685
    73  H   -0.028204
    74  H    0.033144
    75  H    0.020083
    76  H    0.051589
    77  H    0.226084
    78  H    0.025409
    79  H    0.051581
 Sum of Mulliken charges =  -0.00000

 Dipole moment (field-independent basis, Debye):
    X=             -0.1782    Y=              2.2707    Z=              2.8397  Tot=              3.6403
 Quadrupole moment (field-independent basis, Debye-Ang):
   XX=           -225.1934   YY=           -246.9587   ZZ=           -263.2468
   XY=             -8.0095   XZ=             38.2214   YZ=              5.4747

 Normal termination of Gaussian 16 at Mon Sep 30 10:14:41 2019.
