 Gaussian 16, Revision A.03,
 Gaussian 16:  ES64L-G16RevA.03 25-Dec-2016

 --------------------------
 # td=(NStates=1) B3LYP/SVP
 --------------------------

 --
 TD
 --
 Symbolic Z-matrix:
 Charge =  0 Multiplicity = 1

                         Standard orientation:
 ---------------------------------------------------------------------
 Center     Atomic      Atomic             Coordinates (Angstroms)
 Number     Number       Type             X           Y           Z
 ---------------------------------------------------------------------
      1          8           0       -3.168568   -1.142836   -2.999327
      2          8           0        3.233285    2.742244    3.022941
      3          8           0        3.394904    1.235843    4.819051
      4          8           0        7.700446   -1.368539   -0.744090
      5          8           0        6.844350   -2.642548   -2.407087
      6          8           0       -2.643143    1.467489    1.604192
      7          7           0       -0.261501   -2.533374    0.693060
      8          7           0       -2.730798   -1.104181   -0.684448
      9          7           0        1.115549    0.153522   -0.726499
     10          7           0       -1.109963    1.373878   -0.085158
     11          6           0       -3.306394   -1.351995    0.558090
     12          6           0       -2.630222   -2.527362    1.421957
     13          6           0       -1.217060   -2.268605    1.589467
     14          6           0       -0.612995   -1.542547    2.737486
     15          6           0        0.812935   -1.432050    2.394391
     16          6           0        0.885569   -1.964161    1.131039
     17          6           0       -4.680673   -1.775150    0.096839
     18          6           0        1.890325   -0.695764    3.150237
     19          6           0       -4.766394   -1.859238   -1.282451
     20          6           0        2.045292   -1.945604    0.136243
     21          6           0        2.086092   -0.771557   -0.617904
     22          6           0       -3.481992   -1.264861   -1.830591
     23          6           0        3.039302   -0.558310   -1.755430
     24          6           0       -1.291762   -0.843298    3.872664
     25          6           0       -5.706135   -2.336850    1.173474
     26          6           0        2.468579    0.603890   -2.437693
     27          6           0        2.133246    0.833551    2.667224
     28          6           0        1.286960    0.977394   -1.718048
     29          6           0        4.263572   -1.282256   -2.192476
     30          6           0       -5.806349   -2.310126   -2.199608
     31          6           0        5.499234   -0.980363   -1.270464
     32          6           0        3.119081    1.457561   -3.492540
     33          6           0        0.444020    2.185474   -1.741340
     34          6           0        2.993771    1.557599    3.559187
     35          6           0       -0.636094    2.312009   -1.010395
     36          6           0       -6.896787   -3.069930   -1.929560
     37          6           0        6.687294   -1.793458   -1.550383
     38          6           0       -1.527927    3.592252   -0.938032
     39          6           0       -2.392854    3.441049    0.118823
     40          6           0       -2.106661    2.026450    0.669038
     41          6           0       -1.303145    4.683365   -1.864526
     42          6           0       -3.278798    4.305357    0.701173
     43          6           0       -2.305151    5.611919   -2.078828
     44          1           0       -3.241375   -0.206742    1.192921
     45          1           0       -2.948328   -3.496733    0.864123
     46          1           0       -3.075953   -2.708249    2.438553
     47          1           0       -0.324070   -2.656872   -0.279298
     48          1           0       -1.910372   -0.496400   -0.708763
     49          1           0        1.518832   -0.819012    4.186764
     50          1           0        2.922554   -1.366217    3.179544
     51          1           0        2.969433   -2.620895    0.281736
     52          1           0       -2.166259   -1.389827    4.320259
     53          1           0       -0.291032   -0.958767    4.517026
     54          1           0       -1.781343    0.039424    3.422441
     55          1           0       -5.397446   -1.589596    2.026931
     56          1           0       -5.399779   -3.353333    1.387937
     57          1           0       -6.598964   -2.278424    0.746068
     58          1           0        2.434088    0.967555    1.603015
     59          1           0        1.309469    1.477472    2.797331
     60          1           0        0.260302    0.420653   -0.085716
     61          1           0        4.306008   -1.077633   -3.291970
     62          1           0        3.966337   -2.220980   -2.178280
     63          1           0       -5.502421   -1.965939   -3.106364
     64          1           0        5.140420   -0.933115   -0.335434
     65          1           0        5.994918   -0.010431   -1.418781
     66          1           0        3.931871    0.890351   -4.028469
     67          1           0        3.580658    2.388835   -3.116383
     68          1           0        2.236792    1.798917   -4.038014
     69          1           0        0.640339    2.789350   -2.515328
     70          1           0       -7.190559   -3.265104   -0.847667
     71          1           0       -7.459371   -3.410758   -2.742961
     72          1           0        3.824543    3.080154    3.842331
     73          1           0       -0.342789    4.753657   -2.360606
     74          1           0       -4.573781    4.427896    0.234880
     75          1           0       -3.390477    4.088828    1.866613
     76          1           0       -2.940926    5.430247    0.576105
     77          1           0        8.563943   -1.581523   -1.256399
     78          1           0       -2.015512    6.504023   -2.783688
     79          1           0       -3.280202    5.700739   -1.536946
 ---------------------------------------------------------------------

 SCF Done:  E(RB3LYP) =  -1947.78320458     A.U. after   21 cycles

 Excitation energies and oscillator strengths:

 Excited State   1:      Singlet-A      0.8192 eV 1513.47 nm  f=0.0033  <S**2>=0.000
     155 ->156         0.70394
 This state for optimization and/or second-order correction.
 Total Energy, E(TD-HF/TD-DFT) =  -1947.75309945
 Copying the excited state density for this state as the 1-particle RhoCI density.

 The electronic state is 1-A.
 Alpha  occ. eigenvalues --  -19.20846 -19.19662 -19.14654 -19.12407 -19.12176
 Alpha  occ. eigenvalues --  -19.08195 -14.38527 -14.37250 -14.32135 -14.31220
 Alpha  occ. eigenvalues --  -10.33901 -10.33022 -10.28599 -10.27311 -10.27074
 Alpha  occ. eigenvalues --  -10.26162 -10.25165 -10.24722 -10.24461 -10.23400
 Alpha  occ. eigenvalues --  -10.22830 -10.22566 -10.22423 -10.22275 -10.22125
 Alpha  occ. eigenvalues --  -10.22068 -10.21990 -10.21946 -10.21879 -10.21660
 Alpha  occ. eigenvalues --  -10.21203 -10.20993 -10.20623 -10.20089 -10.20069
 Alpha  occ. eigenvalues --  -10.19447 -10.18617 -10.18540 -10.18144 -10.18047
 Alpha  occ. eigenvalues --  -10.17714 -10.17425 -10.17202  -1.10541  -1.10463
 Alpha  occ. eigenvalues --   -1.03681  -1.02829  -1.01660  -1.00330  -0.98806
 Alpha  occ. eigenvalues --   -0.94462  -0.92596  -0.92029  -0.85003  -0.83162
 Alpha  occ. eigenvalues --   -0.82125  -0.81043  -0.80399  -0.78981  -0.78842
 Alpha  occ. eigenvalues --   -0.78080  -0.77115  -0.75920  -0.74672  -0.73581
 Alpha  occ. eigenvalues --   -0.71343  -0.70829  -0.69857  -0.69090  -0.68103
 Alpha  occ. eigenvalues --   -0.68063  -0.65866  -0.62907  -0.61644  -0.61243
 Alpha  occ. eigenvalues --   -0.60194  -0.59865  -0.58380  -0.58054  -0.57222
 Alpha  occ. eigenvalues --   -0.56118  -0.55406  -0.54380  -0.53875  -0.53619
 Alpha  occ. eigenvalues --   -0.53485  -0.51675  -0.50899  -0.50449  -0.50260
 Alpha  occ. eigenvalues --   -0.50173  -0.49670  -0.49464  -0.48761  -0.48709
 Alpha  occ. eigenvalues --   -0.48337  -0.48082  -0.47273  -0.46674  -0.45866
 Alpha  occ. eigenvalues --   -0.45625  -0.45240  -0.45139  -0.44666  -0.44190
 Alpha  occ. eigenvalues --   -0.43946  -0.43695  -0.43388  -0.42949  -0.42689
 Alpha  occ. eigenvalues --   -0.42334  -0.41804  -0.41720  -0.41465  -0.41071
 Alpha  occ. eigenvalues --   -0.40879  -0.40644  -0.40473  -0.40178  -0.40054
 Alpha  occ. eigenvalues --   -0.39580  -0.39531  -0.39032  -0.38666  -0.38388
 Alpha  occ. eigenvalues --   -0.38016  -0.37842  -0.37556  -0.37341  -0.36979
 Alpha  occ. eigenvalues --   -0.36445  -0.36294  -0.35818  -0.34354  -0.34068
 Alpha  occ. eigenvalues --   -0.34001  -0.33563  -0.32864  -0.31859  -0.31390
 Alpha  occ. eigenvalues --   -0.30229  -0.30101  -0.29530  -0.29327  -0.29256
 Alpha  occ. eigenvalues --   -0.27415  -0.27203  -0.26513  -0.24121  -0.23934
 Alpha  occ. eigenvalues --   -0.23586  -0.23511  -0.22358  -0.21373  -0.18908
 Alpha virt. eigenvalues --   -0.13350  -0.08230  -0.03716  -0.02358  -0.02227
 Alpha virt. eigenvalues --   -0.02177   0.01134   0.01871   0.02365   0.02521
 Alpha virt. eigenvalues --    0.02832   0.03152   0.03316   0.03398   0.04203

 Mulliken charges:
               1
     1  O   -0.240750
     2  O   -0.190202
     3  O   -0.364742
     4  O   -0.235098
     5  O   -0.215182
     6  O   -0.215259
     7  N    0.044057
     8  N   -0.182257
     9  N   -0.050014
    10  N   -0.380309
    11  C   -0.044381
    12  C    0.143870
    13  C   -0.084147
    14  C   -0.167367
    15  C   -0.088204
    16  C   -0.108287
    17  C   -0.225250
    18  C    0.078842
    19  C   -0.095988
    20  C   -0.078719
    21  C    0.073693
    22  C    0.152849
    23  C   -0.159006
    24  C    0.050679
    25  C    0.119310
    26  C   -0.150411
    27  C    0.062717
    28  C    0.041799
    29  C    0.219476
    30  C    0.050971
    31  C    0.059994
    32  C    0.084734
    33  C   -0.045993
    34  C    0.166530
    35  C    0.163087
    36  C   -0.008485
    37  C    0.148547
    38  C    0.069871
    39  C   -0.083343
    40  C    0.194170
    41  C   -0.030271
    42  C   -0.128363
    43  C   -0.050162
    44  H    0.129604
    45  H   -0.002856
    46  H    0.006564
    47  H    0.104239
    48  H    0.118382
    49  H    0.016655
    50  H    0.030292
    51  H    0.055022
    52  H    0.002505
    53  H    0.046465
    54  H    0.058213
    55  H    0.043958
    56  H    0.030308
    57  H    0.004574
    58  H    0.045201
    59  H    0.039671
    60  H    0.219539
    61  H    0.021289
    62  H   -0.026421
    63  H   -0.045248
    64  H    0.005656
    65  H    0.040549
    66  H    0.032393
    67  H    0.038001
    68  H    0.036771
    69  H   -0.077199
    70  H    0.020373
    71  H    0.007901
    72  H    0.216775
    73  H    0.006230
    74  H    0.061619
    75  H    0.060727
    76  H    0.045722
    77  H    0.212460
    78  H    0.041233
    79  H    0.049827
 Sum of Mulliken charges =  -0.00000

 Dipole moment (field-independent basis, Debye):
    X=              5.9308    Y=              4.1033    Z=             -1.9321  Tot=              7.4662
 Quadrupole moment (field-independent basis, Debye-Ang):
   XX=           -237.4178   YY=           -237.7279   ZZ=           -282.2800
   XY=              6.0160   XZ=            -25.1054   YZ=            -13.6449

 Normal termination of Gaussian 16 at Sat Jul 27 18:45:41 2019.
