 Gaussian 16, Revision A.03,
 Gaussian 16:  ES64L-G16RevA.03 25-Dec-2016

 --------------------------
 # td=(NStates=1) B3LYP/SVP
 --------------------------

 --
 TD
 --
 Symbolic Z-matrix:
 Charge =  0 Multiplicity = 1

                         Standard orientation:
 ---------------------------------------------------------------------
 Center     Atomic      Atomic             Coordinates (Angstroms)
 Number     Number       Type             X           Y           Z
 ---------------------------------------------------------------------
      1          8           0        5.496870   -0.207200   -3.272992
      2          8           0       -3.049151   -2.897478    3.337295
      3          8           0       -3.459670   -0.689114    2.933685
      4          8           0       -1.494298    6.941804    1.728603
      5          8           0       -0.856147    7.152815   -0.447351
      6          8           0       -1.787592   -3.976429    0.080373
      7          7           0        2.389269    1.003703    0.519586
      8          7           0        4.510670   -0.717466   -1.218573
      9          7           0       -1.849258    0.662043   -0.487263
     10          7           0       -2.511338   -1.917140   -0.610201
     11          6           0        4.778238   -1.253942   -0.039165
     12          6           0        4.377052   -0.382242    1.247583
     13          6           0        2.929677    0.060495    1.358376
     14          6           0        1.957376   -0.601404    2.029052
     15          6           0        0.748079    0.009020    1.740677
     16          6           0        1.013620    1.083414    0.766297
     17          6           0        6.337431   -1.410571   -0.127915
     18          6           0       -0.558009   -0.204343    2.446940
     19          6           0        6.726350   -0.877495   -1.312838
     20          6           0        0.203426    2.063022    0.138965
     21          6           0       -1.089561    1.846768   -0.337897
     22          6           0        5.483333   -0.558688   -2.171844
     23          6           0       -1.955117    2.832269   -1.003941
     24          6           0        2.116380   -1.666121    3.095099
     25          6           0        7.107238   -2.048106    1.043181
     26          6           0       -3.133502    2.257380   -1.350201
     27          6           0       -1.207443   -1.599589    2.563561
     28          6           0       -3.106116    0.865806   -1.107012
     29          6           0       -1.517773    4.332893   -1.055445
     30          6           0        8.073826   -0.634568   -1.912611
     31          6           0       -1.750631    5.071751    0.360429
     32          6           0       -4.308696    2.988877   -2.051899
     33          6           0       -3.940007   -0.105464   -1.455282
     34          6           0       -2.726867   -1.539963    2.962752
     35          6           0       -3.717351   -1.461778   -1.138543
     36          6           0        9.227087   -0.673420   -1.350539
     37          6           0       -1.280583    6.543136    0.482214
     38          6           0       -4.620694   -2.642493   -1.490323
     39          6           0       -3.938238   -3.743291   -1.039003
     40          6           0       -2.696205   -3.289333   -0.432738
     41          6           0       -5.922770   -2.483366   -1.959255
     42          6           0       -4.217431   -5.107677   -1.026769
     43          6           0       -6.791760   -3.429519   -2.345486
     44          1           0        4.220812   -2.372936    0.250088
     45          1           0        4.972169    0.471321    1.124374
     46          1           0        4.565333   -0.879690    2.048982
     47          1           0        2.899455    1.556344   -0.099131
     48          1           0        3.637637   -0.767248   -1.771465
     49          1           0       -0.434452    0.112682    3.465224
     50          1           0       -1.291249    0.645268    1.930243
     51          1           0        0.648759    2.931463   -0.325282
     52          1           0        3.201244   -1.540302    3.318768
     53          1           0        1.498329   -1.539710    4.019443
     54          1           0        1.760427   -2.642413    2.598929
     55          1           0        6.405367   -2.857025    1.495461
     56          1           0        7.356532   -1.174889    1.678722
     57          1           0        7.988307   -2.586771    0.919294
     58          1           0       -1.322939   -2.087750    1.530908
     59          1           0       -0.562657   -2.235252    3.181188
     60          1           0       -1.592873   -0.278917   -0.188403
     61          1           0       -2.090586    4.935434   -1.793597
     62          1           0       -0.537667    4.640683   -1.222971
     63          1           0        8.008384   -0.371627   -2.989238
     64          1           0       -1.284273    4.534994    1.176007
     65          1           0       -2.771275    5.127702    0.539775
     66          1           0       -3.777598    3.887941   -2.484101
     67          1           0       -5.114027    3.173907   -1.537057
     68          1           0       -4.470791    2.458166   -2.953368
     69          1           0       -4.864961    0.140629   -2.009101
     70          1           0        9.540836   -1.052351   -0.354061
     71          1           0       10.139085   -0.476135   -1.902322
     72          1           0       -4.072261   -3.064861    3.446644
     73          1           0       -6.037376   -1.553161   -2.174719
     74          1           0       -5.032125   -5.355659   -0.514579
     75          1           0       -4.498682   -5.578025   -1.997857
     76          1           0       -3.473359   -5.715063   -0.625347
     77          1           0       -1.264340    7.900808    1.919415
     78          1           0       -7.754429   -3.151733   -2.818449
     79          1           0       -6.772390   -4.497745   -2.342679
 ---------------------------------------------------------------------

 SCF Done:  E(RB3LYP) =  -1947.86914255     A.U. after   19 cycles

 Excitation energies and oscillator strengths:

 Excited State   1:      Singlet-A      1.9336 eV  641.22 nm  f=0.4150  <S**2>=0.000
     154 ->156         0.17038
     155 ->156         0.68547
     155 <-156        -0.12630
 This state for optimization and/or second-order correction.
 Total Energy, E(TD-HF/TD-DFT) =  -1947.79808548
 Copying the excited state density for this state as the 1-particle RhoCI density.

 The electronic state is 1-A.
 Alpha  occ. eigenvalues --  -19.19711 -19.14403 -19.13177 -19.12956 -19.12246
 Alpha  occ. eigenvalues --  -19.09517 -14.38389 -14.36056 -14.35585 -14.28696
 Alpha  occ. eigenvalues --  -10.32493 -10.30413 -10.29089 -10.26283 -10.25247
 Alpha  occ. eigenvalues --  -10.24179 -10.23799 -10.23424 -10.23403 -10.22738
 Alpha  occ. eigenvalues --  -10.22137 -10.21860 -10.21187 -10.21183 -10.20833
 Alpha  occ. eigenvalues --  -10.20432 -10.20193 -10.20036 -10.19919 -10.19568
 Alpha  occ. eigenvalues --  -10.19543 -10.19502 -10.19459 -10.19449 -10.19413
 Alpha  occ. eigenvalues --  -10.19091 -10.18964 -10.18836 -10.18777 -10.18752
 Alpha  occ. eigenvalues --  -10.18530 -10.18204 -10.16315  -1.10646  -1.09490
 Alpha  occ. eigenvalues --   -1.07226  -1.02478  -0.99418  -0.98777  -0.97916
 Alpha  occ. eigenvalues --   -0.97487  -0.96381  -0.90209  -0.82224  -0.81899
 Alpha  occ. eigenvalues --   -0.81451  -0.81238  -0.80931  -0.79763  -0.77923
 Alpha  occ. eigenvalues --   -0.77190  -0.76580  -0.75710  -0.75344  -0.72303
 Alpha  occ. eigenvalues --   -0.71401  -0.70990  -0.70100  -0.69609  -0.68836
 Alpha  occ. eigenvalues --   -0.67190  -0.66354  -0.64776  -0.62105  -0.60897
 Alpha  occ. eigenvalues --   -0.60709  -0.59262  -0.57957  -0.57722  -0.56701
 Alpha  occ. eigenvalues --   -0.56334  -0.55946  -0.54930  -0.54111  -0.53938
 Alpha  occ. eigenvalues --   -0.51822  -0.51559  -0.51177  -0.50233  -0.49650
 Alpha  occ. eigenvalues --   -0.49053  -0.48723  -0.48416  -0.48218  -0.47473
 Alpha  occ. eigenvalues --   -0.47173  -0.46977  -0.46568  -0.46454  -0.46190
 Alpha  occ. eigenvalues --   -0.45774  -0.45549  -0.45389  -0.45052  -0.44199
 Alpha  occ. eigenvalues --   -0.43967  -0.43667  -0.43349  -0.42939  -0.42855
 Alpha  occ. eigenvalues --   -0.42471  -0.42279  -0.42050  -0.41557  -0.41367
 Alpha  occ. eigenvalues --   -0.41163  -0.40629  -0.40098  -0.39803  -0.39208
 Alpha  occ. eigenvalues --   -0.38978  -0.38893  -0.38671  -0.38587  -0.38449
 Alpha  occ. eigenvalues --   -0.37920  -0.37626  -0.37275  -0.37080  -0.36444
 Alpha  occ. eigenvalues --   -0.36330  -0.35778  -0.35220  -0.34917  -0.34550
 Alpha  occ. eigenvalues --   -0.33816  -0.33708  -0.33494  -0.32442  -0.31766
 Alpha  occ. eigenvalues --   -0.31515  -0.30415  -0.28652  -0.28397  -0.27431
 Alpha  occ. eigenvalues --   -0.27370  -0.26931  -0.26619  -0.25553  -0.25138
 Alpha  occ. eigenvalues --   -0.24456  -0.24048  -0.23634  -0.21657  -0.18561
 Alpha virt. eigenvalues --   -0.11132  -0.06678  -0.05063  -0.00854   0.01271
 Alpha virt. eigenvalues --    0.01453   0.01943   0.02968   0.03468   0.03690
 Alpha virt. eigenvalues --    0.04427   0.04874   0.05227   0.05419   0.05657

 Mulliken charges:
               1
     1  O   -0.136554
     2  O   -0.316357
     3  O   -0.102631
     4  O   -0.189344
     5  O   -0.200742
     6  O   -0.234255
     7  N   -0.047657
     8  N   -0.102833
     9  N   -0.141593
    10  N   -0.304209
    11  C   -0.038144
    12  C    0.362222
    13  C   -0.133649
    14  C   -0.128857
    15  C   -0.052387
    16  C    0.068761
    17  C   -0.173066
    18  C    0.009527
    19  C   -0.091496
    20  C   -0.057036
    21  C    0.083526
    22  C    0.101387
    23  C   -0.056958
    24  C    0.068352
    25  C    0.088512
    26  C   -0.185004
    27  C   -0.035236
    28  C    0.197492
    29  C    0.116659
    30  C    0.039330
    31  C   -0.019213
    32  C    0.209940
    33  C   -0.148121
    34  C    0.132179
    35  C    0.082807
    36  C   -0.048161
    37  C    0.121380
    38  C    0.051934
    39  C   -0.175459
    40  C    0.150392
    41  C    0.099554
    42  C    0.195079
    43  C   -0.036846
    44  H    0.035956
    45  H   -0.042009
    46  H   -0.092575
    47  H    0.094503
    48  H    0.127251
    49  H    0.002313
    50  H    0.038688
    51  H   -0.015343
    52  H    0.014984
    53  H    0.034321
    54  H    0.063550
    55  H    0.033945
    56  H    0.042885
    57  H    0.015536
    58  H    0.092483
    59  H    0.022672
    60  H    0.143395
    61  H    0.008902
    62  H   -0.006734
    63  H    0.011797
    64  H    0.031359
    65  H    0.014591
    66  H    0.002392
    67  H   -0.001925
    68  H    0.002370
    69  H   -0.012381
    70  H    0.007811
    71  H    0.013950
    72  H    0.195899
    73  H   -0.105628
    74  H   -0.030870
    75  H    0.008386
    76  H   -0.005187
    77  H    0.201988
    78  H    0.018701
    79  H    0.008798
 Sum of Mulliken charges =  -0.00000

 Dipole moment (field-independent basis, Debye):
    X=              0.2069    Y=              2.8019    Z=              2.7411  Tot=              3.9252
 Quadrupole moment (field-independent basis, Debye-Ang):
   XX=           -218.7491   YY=           -241.8486   ZZ=           -258.3558
   XY=             -4.5526   XZ=             28.8696   YZ=             10.8510

 Normal termination of Gaussian 16 at Thu Oct 10 07:42:30 2019.
