 Gaussian 16, Revision A.03,
 Gaussian 16:  ES64L-G16RevA.03 25-Dec-2016

 --------------------------
 # td=(NStates=1) B3LYP/SVP
 --------------------------

 --
 TD
 --
 Symbolic Z-matrix:
 Charge =  0 Multiplicity = 1

                         Standard orientation:
 ---------------------------------------------------------------------
 Center     Atomic      Atomic             Coordinates (Angstroms)
 Number     Number       Type             X           Y           Z
 ---------------------------------------------------------------------
      1          8           0        5.345203   -0.198610   -3.295878
      2          8           0       -3.105715   -2.978713    3.160492
      3          8           0       -3.320582   -0.704705    3.018691
      4          8           0       -1.582248    7.142971    1.547033
      5          8           0       -0.467230    7.178682   -0.466580
      6          8           0       -1.743351   -3.943995    0.077517
      7          7           0        2.322841    0.973774    0.730950
      8          7           0        4.379464   -0.485174   -1.184701
      9          7           0       -1.753569    0.701941   -0.486573
     10          7           0       -2.497238   -1.834750   -0.573477
     11          6           0        4.778809   -1.225507    0.009262
     12          6           0        4.355542   -0.412196    1.367472
     13          6           0        2.864137   -0.141285    1.422645
     14          6           0        1.860031   -0.741756    2.188329
     15          6           0        0.598339   -0.091570    1.841441
     16          6           0        0.967809    0.872238    0.935002
     17          6           0        6.313373   -1.420900   -0.168901
     18          6           0       -0.692930   -0.229282    2.509369
     19          6           0        6.671488   -0.863473   -1.402920
     20          6           0        0.180277    1.942814    0.266128
     21          6           0       -1.006057    1.864261   -0.385759
     22          6           0        5.437111   -0.439141   -2.095866
     23          6           0       -1.856034    2.940949   -0.897564
     24          6           0        1.902441   -1.858130    3.114764
     25          6           0        7.113357   -1.944323    1.022998
     26          6           0       -3.019824    2.365868   -1.372904
     27          6           0       -1.195007   -1.692934    2.566814
     28          6           0       -2.920673    0.979994   -1.130629
     29          6           0       -1.502070    4.317735   -0.935787
     30          6           0        7.962487   -0.772675   -2.121402
     31          6           0       -1.591322    5.125533    0.439049
     32          6           0       -4.262572    2.966892   -2.004661
     33          6           0       -3.927857   -0.036644   -1.449368
     34          6           0       -2.701942   -1.654869    3.003160
     35          6           0       -3.659686   -1.309706   -1.089208
     36          6           0        9.163799   -0.898460   -1.516203
     37          6           0       -1.140690    6.598136    0.441619
     38          6           0       -4.554642   -2.482923   -1.561624
     39          6           0       -4.005628   -3.706831   -1.063502
     40          6           0       -2.603139   -3.276566   -0.490014
     41          6           0       -5.849086   -2.374641   -2.179247
     42          6           0       -4.388468   -5.167371   -1.229031
     43          6           0       -6.733718   -3.341148   -2.405833
     44          1           0        4.303497   -2.285574   -0.025695
     45          1           0        5.233000    0.354512    1.473646
     46          1           0        4.506301   -1.324919    2.079719
     47          1           0        2.738353    1.629243   -0.037366
     48          1           0        3.421957   -1.099081   -1.368142
     49          1           0       -0.476979    0.158081    3.380091
     50          1           0       -1.431728    0.340014    1.585551
     51          1           0        0.974242    2.755889    0.087652
     52          1           0        2.881271   -2.352745    3.287957
     53          1           0        1.585185   -1.540666    4.223507
     54          1           0        1.253588   -2.761638    2.719517
     55          1           0        6.403712   -2.571472    1.467703
     56          1           0        7.634758   -1.370243    1.875313
     57          1           0        8.000648   -2.524433    0.610919
     58          1           0       -1.206345   -1.946668    1.520313
     59          1           0       -0.597873   -2.438118    3.197275
     60          1           0       -1.335869   -0.183346   -0.051530
     61          1           0       -2.236928    4.941038   -1.651161
     62          1           0       -0.427395    4.502637   -1.149852
     63          1           0        7.747130   -0.612806   -3.237730
     64          1           0       -1.067711    4.574498    1.189801
     65          1           0       -2.614896    5.254564    0.987384
     66          1           0       -4.082559    3.918616   -2.105173
     67          1           0       -5.289431    2.716870   -1.231426
     68          1           0       -4.362797    2.630965   -3.122578
     69          1           0       -4.956968    0.363558   -1.968866
     70          1           0        9.170522   -0.669419   -0.385583
     71          1           0       10.018644   -0.614297   -2.225226
     72          1           0       -4.142497   -2.814768    3.314005
     73          1           0       -6.196829   -1.295992   -2.454439
     74          1           0       -5.324233   -5.535315   -0.739888
     75          1           0       -4.489605   -5.578049   -2.260180
     76          1           0       -3.426320   -5.797560   -0.846167
     77          1           0       -1.468612    8.130575    1.491090
     78          1           0       -7.804152   -3.300191   -3.014235
     79          1           0       -6.448122   -4.461861   -2.115576
 ---------------------------------------------------------------------

 SCF Done:  E(RB3LYP) =  -1947.77887015     A.U. after   16 cycles

 Excitation energies and oscillator strengths:

 Excited State   1:      Singlet-A      2.0292 eV  611.00 nm  f=0.2747  <S**2>=0.000
     154 ->156         0.23536
     155 ->156         0.65923
 This state for optimization and/or second-order correction.
 Total Energy, E(TD-HF/TD-DFT) =  -1947.70429779
 Copying the excited state density for this state as the 1-particle RhoCI density.

 The electronic state is 1-A.
 Alpha  occ. eigenvalues --  -19.20936 -19.16658 -19.13260 -19.12618 -19.10697
 Alpha  occ. eigenvalues --  -19.10024 -14.38607 -14.37822 -14.35900 -14.28528
 Alpha  occ. eigenvalues --  -10.33628 -10.29949 -10.28881 -10.26519 -10.25428
 Alpha  occ. eigenvalues --  -10.25415 -10.24572 -10.24089 -10.23498 -10.23432
 Alpha  occ. eigenvalues --  -10.23069 -10.22916 -10.22865 -10.22468 -10.22172
 Alpha  occ. eigenvalues --  -10.22054 -10.21988 -10.21719 -10.21186 -10.21172
 Alpha  occ. eigenvalues --  -10.21128 -10.20818 -10.20691 -10.20582 -10.20411
 Alpha  occ. eigenvalues --  -10.20384 -10.20247 -10.20100 -10.19905 -10.19668
 Alpha  occ. eigenvalues --  -10.19258 -10.18928 -10.18045  -1.11687  -1.09581
 Alpha  occ. eigenvalues --   -1.02364  -1.00248  -0.99961  -0.99430  -0.99197
 Alpha  occ. eigenvalues --   -0.97636  -0.93618  -0.88799  -0.83605  -0.82147
 Alpha  occ. eigenvalues --   -0.81767  -0.81427  -0.79144  -0.79026  -0.77536
 Alpha  occ. eigenvalues --   -0.76837  -0.75448  -0.74741  -0.73371  -0.72633
 Alpha  occ. eigenvalues --   -0.71726  -0.71191  -0.69962  -0.68945  -0.67711
 Alpha  occ. eigenvalues --   -0.65969  -0.65500  -0.63159  -0.61482  -0.60649
 Alpha  occ. eigenvalues --   -0.59285  -0.58141  -0.57386  -0.56328  -0.56082
 Alpha  occ. eigenvalues --   -0.55306  -0.55142  -0.54480  -0.53195  -0.52325
 Alpha  occ. eigenvalues --   -0.51664  -0.50608  -0.50379  -0.49755  -0.49580
 Alpha  occ. eigenvalues --   -0.49254  -0.48633  -0.48033  -0.47778  -0.47398
 Alpha  occ. eigenvalues --   -0.47065  -0.46844  -0.46199  -0.45838  -0.45719
 Alpha  occ. eigenvalues --   -0.44956  -0.44414  -0.44160  -0.43585  -0.43400
 Alpha  occ. eigenvalues --   -0.43276  -0.43020  -0.42829  -0.42143  -0.42040
 Alpha  occ. eigenvalues --   -0.41891  -0.41536  -0.41151  -0.40986  -0.40685
 Alpha  occ. eigenvalues --   -0.40366  -0.39987  -0.39928  -0.39525  -0.39451
 Alpha  occ. eigenvalues --   -0.39102  -0.38806  -0.38636  -0.38504  -0.38333
 Alpha  occ. eigenvalues --   -0.37534  -0.37249  -0.37155  -0.36953  -0.36381
 Alpha  occ. eigenvalues --   -0.36276  -0.35698  -0.35327  -0.35122  -0.34212
 Alpha  occ. eigenvalues --   -0.34061  -0.32729  -0.31973  -0.31934  -0.31842
 Alpha  occ. eigenvalues --   -0.31266  -0.30907  -0.28698  -0.28397  -0.27800
 Alpha  occ. eigenvalues --   -0.27264  -0.26380  -0.25917  -0.25679  -0.24661
 Alpha  occ. eigenvalues --   -0.24532  -0.23432  -0.23133  -0.21471  -0.19478
 Alpha virt. eigenvalues --   -0.11131  -0.07181  -0.06498  -0.01620  -0.01287
 Alpha virt. eigenvalues --   -0.00386   0.00412   0.01661   0.02219   0.02370
 Alpha virt. eigenvalues --    0.03193   0.03260   0.03303   0.04106   0.04698

 Mulliken charges:
               1
     1  O   -0.223713
     2  O   -0.249519
     3  O   -0.136756
     4  O   -0.150567
     5  O   -0.282383
     6  O   -0.216037
     7  N   -0.137285
     8  N   -0.224542
     9  N   -0.098411
    10  N   -0.342620
    11  C   -0.051944
    12  C    0.128711
    13  C   -0.022046
    14  C   -0.077648
    15  C   -0.093078
    16  C   -0.023549
    17  C   -0.140477
    18  C    0.079758
    19  C   -0.076685
    20  C   -0.113937
    21  C    0.133303
    22  C    0.152899
    23  C   -0.008337
    24  C   -0.001402
    25  C    0.046853
    26  C   -0.164188
    27  C   -0.041449
    28  C    0.111946
    29  C    0.051345
    30  C   -0.025346
    31  C   -0.065978
    32  C    0.131939
    33  C   -0.177833
    34  C    0.129630
    35  C    0.175932
    36  C   -0.049685
    37  C    0.155507
    38  C    0.010320
    39  C   -0.161954
    40  C    0.181370
    41  C   -0.010898
    42  C    0.001485
    43  C   -0.115894
    44  H    0.042086
    45  H    0.039711
    46  H    0.006843
    47  H    0.169832
    48  H    0.179984
    49  H   -0.031030
    50  H    0.056893
    51  H    0.013395
    52  H   -0.005146
    53  H    0.039087
    54  H    0.075273
    55  H    0.006049
    56  H    0.061126
    57  H    0.041385
    58  H    0.060375
    59  H    0.046006
    60  H    0.190632
    61  H    0.045189
    62  H    0.029384
    63  H    0.043706
    64  H    0.033579
    65  H    0.043995
    66  H   -0.057244
    67  H    0.073223
    68  H    0.049470
    69  H    0.041918
    70  H    0.049416
    71  H    0.048790
    72  H    0.193104
    73  H    0.001931
    74  H    0.042650
    75  H    0.035706
    76  H    0.046475
    77  H    0.201049
    78  H    0.054176
    79  H    0.024150
 Sum of Mulliken charges =  -0.00000

 Dipole moment (field-independent basis, Debye):
    X=              0.2381    Y=              3.5262    Z=              3.8623  Tot=              5.2353
 Quadrupole moment (field-independent basis, Debye-Ang):
   XX=           -222.6308   YY=           -245.5957   ZZ=           -262.7724
   XY=            -16.5105   XZ=             29.4769   YZ=              7.6749

 Normal termination of Gaussian 16 at Sat Sep 14 11:33:28 2019.
