 Gaussian 16, Revision A.03,
 Gaussian 16:  ES64L-G16RevA.03 25-Dec-2016

 --------------------------
 # td=(NStates=1) B3LYP/SVP
 --------------------------

 --
 TD
 --
 Symbolic Z-matrix:
 Charge =  0 Multiplicity = 1

                         Standard orientation:
 ---------------------------------------------------------------------
 Center     Atomic      Atomic             Coordinates (Angstroms)
 Number     Number       Type             X           Y           Z
 ---------------------------------------------------------------------
      1          8           0       -3.329515   -1.815078   -2.620681
      2          8           0        3.269682    3.530491    2.472998
      3          8           0        3.711910    2.081846    4.132877
      4          8           0        7.742403   -1.826933   -0.400215
      5          8           0        6.742751   -3.216898   -1.842228
      6          8           0       -2.750904    1.940232    1.200133
      7          7           0       -0.455348   -2.207906    1.324306
      8          7           0       -2.635932   -1.344809   -0.453760
      9          7           0        1.034810   -0.247685   -0.796233
     10          7           0       -1.120797    1.318821   -0.444858
     11          6           0       -3.487689   -1.158086    0.790525
     12          6           0       -2.768483   -1.912221    2.093657
     13          6           0       -1.331364   -1.583319    2.182519
     14          6           0       -0.672818   -0.658003    3.050046
     15          6           0        0.668975   -0.688521    2.656373
     16          6           0        0.842427   -1.563123    1.543937
     17          6           0       -4.731838   -1.762991    0.480130
     18          6           0        1.796391    0.099766    3.172673
     19          6           0       -4.741221   -2.092653   -0.805691
     20          6           0        1.967633   -1.846422    0.666935
     21          6           0        2.070336   -1.115755   -0.437105
     22          6           0       -3.474822   -1.722750   -1.444329
     23          6           0        2.970186   -0.983216   -1.591958
     24          6           0       -1.319131    0.235885    4.054146
     25          6           0       -5.847974   -2.020484    1.454841
     26          6           0        2.531158   -0.023411   -2.533483
     27          6           0        2.021360    1.543802    2.467232
     28          6           0        1.408568    0.603516   -1.884100
     29          6           0        4.210048   -1.982783   -1.564578
     30          6           0       -5.876365   -2.721069   -1.691581
     31          6           0        5.429056   -1.346176   -0.901369
     32          6           0        3.058296    0.334132   -3.861119
     33          6           0        0.475740    1.564910   -2.228803
     34          6           0        3.107912    2.352277    3.120106
     35          6           0       -0.620591    1.951080   -1.595104
     36          6           0       -6.971685   -3.292499   -1.321344
     37          6           0        6.681363   -2.143237   -1.162810
     38          6           0       -1.298024    3.320597   -1.702298
     39          6           0       -2.139686    3.333949   -0.645939
     40          6           0       -2.115688    2.125287    0.160307
     41          6           0       -1.088192    4.215208   -2.775886
     42          6           0       -3.103137    4.449626   -0.441522
     43          6           0       -1.643912    5.364450   -2.972557
     44          1           0       -3.419917   -0.177791    1.159495
     45          1           0       -2.976310   -3.006556    1.927291
     46          1           0       -3.192070   -1.832603    2.931247
     47          1           0       -0.675167   -2.701285    0.459565
     48          1           0       -1.949032   -0.647109   -0.708256
     49          1           0        1.731439    0.498038    4.413742
     50          1           0        2.649924   -0.588665    2.995631
     51          1           0        2.837678   -2.506401    0.922083
     52          1           0       -1.838934   -0.527787    4.702998
     53          1           0       -0.445177    0.851531    4.819485
     54          1           0       -2.066518    0.928891    3.502703
     55          1           0       -5.921289   -1.030271    1.990875
     56          1           0       -5.696809   -2.895439    2.022027
     57          1           0       -6.859622   -2.152885    0.818931
     58          1           0        2.336982    1.569651    1.264387
     59          1           0        1.092428    1.995908    2.558694
     60          1           0        0.348982    0.123669   -0.424368
     61          1           0        4.568442   -1.993772   -2.657362
     62          1           0        3.979392   -2.866646   -0.992179
     63          1           0       -5.901242   -2.262863   -2.677177
     64          1           0        5.224508   -1.302698    0.191853
     65          1           0        5.681575   -0.376618   -1.198049
     66          1           0        4.212489    0.054162   -3.831756
     67          1           0        3.254994    1.506546   -4.090789
     68          1           0        2.397642   -0.066199   -4.760635
     69          1           0        0.718636    1.995641   -3.263693
     70          1           0       -7.074593   -3.759164   -0.425418
     71          1           0       -7.627822   -3.573209   -2.158438
     72          1           0        3.973827    3.949168    3.194710
     73          1           0       -0.491610    3.814959   -3.716298
     74          1           0       -3.904444    4.597491   -1.124825
     75          1           0       -3.576114    4.193402    0.405514
     76          1           0       -2.719034    5.469133   -0.163490
     77          1           0        8.264434   -2.590193   -0.705816
     78          1           0       -1.521304    5.808521   -4.023597
     79          1           0       -2.307110    6.056603   -2.299453
 ---------------------------------------------------------------------

 SCF Done:  E(RB3LYP) =  -1947.77010533     A.U. after   21 cycles

 Excitation energies and oscillator strengths:

 Excited State   1:      Singlet-A      0.7871 eV 1575.22 nm  f=0.0042  <S**2>=0.000
     155 ->156         0.70472
 This state for optimization and/or second-order correction.
 Total Energy, E(TD-HF/TD-DFT) =  -1947.74118017
 Copying the excited state density for this state as the 1-particle RhoCI density.

 The electronic state is 1-A.
 Alpha  occ. eigenvalues --  -19.20436 -19.18805 -19.14289 -19.12960 -19.12710
 Alpha  occ. eigenvalues --  -19.07513 -14.36795 -14.35955 -14.32618 -14.30759
 Alpha  occ. eigenvalues --  -10.34232 -10.31791 -10.28344 -10.27150 -10.25940
 Alpha  occ. eigenvalues --  -10.25121 -10.25085 -10.24990 -10.24758 -10.24478
 Alpha  occ. eigenvalues --  -10.23424 -10.23294 -10.23024 -10.21974 -10.21405
 Alpha  occ. eigenvalues --  -10.21235 -10.21222 -10.21198 -10.21122 -10.20953
 Alpha  occ. eigenvalues --  -10.20917 -10.20895 -10.20252 -10.19851 -10.19645
 Alpha  occ. eigenvalues --  -10.18974 -10.18279 -10.18097 -10.17964 -10.17446
 Alpha  occ. eigenvalues --  -10.17278 -10.17170 -10.16509  -1.12145  -1.09292
 Alpha  occ. eigenvalues --   -1.02638  -1.01711  -0.99982  -0.99903  -0.99666
 Alpha  occ. eigenvalues --   -0.94869  -0.92439  -0.92201  -0.84666  -0.83995
 Alpha  occ. eigenvalues --   -0.81996  -0.80918  -0.80704  -0.80266  -0.79071
 Alpha  occ. eigenvalues --   -0.77288  -0.76258  -0.75872  -0.75011  -0.73746
 Alpha  occ. eigenvalues --   -0.71022  -0.70488  -0.70287  -0.69821  -0.67861
 Alpha  occ. eigenvalues --   -0.66485  -0.65781  -0.64185  -0.61666  -0.60991
 Alpha  occ. eigenvalues --   -0.59510  -0.58169  -0.57777  -0.57408  -0.56553
 Alpha  occ. eigenvalues --   -0.55777  -0.55441  -0.55121  -0.53091  -0.52667
 Alpha  occ. eigenvalues --   -0.52286  -0.51851  -0.51477  -0.50976  -0.50807
 Alpha  occ. eigenvalues --   -0.49927  -0.49174  -0.48904  -0.48368  -0.48154
 Alpha  occ. eigenvalues --   -0.48107  -0.47127  -0.46705  -0.46596  -0.46404
 Alpha  occ. eigenvalues --   -0.45832  -0.45250  -0.44951  -0.44739  -0.44483
 Alpha  occ. eigenvalues --   -0.44195  -0.43757  -0.43497  -0.43102  -0.42761
 Alpha  occ. eigenvalues --   -0.42254  -0.41650  -0.41368  -0.41086  -0.40832
 Alpha  occ. eigenvalues --   -0.40718  -0.40418  -0.40143  -0.39879  -0.39556
 Alpha  occ. eigenvalues --   -0.39429  -0.38887  -0.38536  -0.38027  -0.37814
 Alpha  occ. eigenvalues --   -0.37720  -0.37442  -0.37198  -0.36694  -0.36341
 Alpha  occ. eigenvalues --   -0.36289  -0.36203  -0.35759  -0.34254  -0.33975
 Alpha  occ. eigenvalues --   -0.33439  -0.33198  -0.33143  -0.32815  -0.32198
 Alpha  occ. eigenvalues --   -0.32005  -0.29908  -0.29792  -0.29439  -0.29044
 Alpha  occ. eigenvalues --   -0.28491  -0.27619  -0.25766  -0.25415  -0.24282
 Alpha  occ. eigenvalues --   -0.23608  -0.23478  -0.22855  -0.22717  -0.19007
 Alpha virt. eigenvalues --   -0.13608  -0.08017  -0.03504  -0.02552  -0.02131
 Alpha virt. eigenvalues --    0.00088   0.00364   0.01106   0.02682   0.02733
 Alpha virt. eigenvalues --    0.02958   0.03406   0.03757   0.04352   0.04732

 Mulliken charges:
               1
     1  O   -0.206428
     2  O   -0.238273
     3  O   -0.235311
     4  O   -0.154024
     5  O   -0.296307
     6  O   -0.219205
     7  N   -0.098576
     8  N   -0.205524
     9  N    0.012705
    10  N   -0.371863
    11  C    0.086829
    12  C    0.255283
    13  C   -0.101169
    14  C   -0.085480
    15  C   -0.034192
    16  C    0.010966
    17  C   -0.141972
    18  C   -0.009038
    19  C   -0.099488
    20  C   -0.148231
    21  C    0.189713
    22  C    0.094795
    23  C   -0.107176
    24  C   -0.010664
    25  C    0.075774
    26  C   -0.041506
    27  C   -0.015804
    28  C    0.043155
    29  C    0.112892
    30  C    0.021816
    31  C    0.027365
    32  C   -0.036590
    33  C   -0.084685
    34  C    0.152193
    35  C    0.129408
    36  C   -0.005567
    37  C    0.150888
    38  C    0.117844
    39  C   -0.225692
    40  C    0.223869
    41  C   -0.033324
    42  C    0.148594
    43  C   -0.085113
    44  H    0.028342
    45  H   -0.025736
    46  H   -0.091377
    47  H    0.128566
    48  H    0.131011
    49  H    0.052857
    50  H    0.008432
    51  H    0.011846
    52  H    0.029586
    53  H    0.033168
    54  H    0.075509
    55  H    0.030515
    56  H    0.031112
    57  H    0.041519
    58  H    0.056234
    59  H    0.035356
    60  H    0.022732
    61  H    0.039342
    62  H    0.031674
    63  H    0.013599
    64  H    0.048256
    65  H    0.018779
    66  H    0.040947
    67  H    0.053875
    68  H    0.086337
    69  H    0.004010
    70  H   -0.011884
    71  H    0.020677
    72  H    0.215642
    73  H    0.022467
    74  H    0.018804
    75  H   -0.042408
    76  H    0.021915
    77  H    0.174546
    78  H    0.029345
    79  H    0.051518
 Sum of Mulliken charges =  -0.00000

 Dipole moment (field-independent basis, Debye):
    X=              3.9175    Y=              2.8574    Z=             -1.6509  Tot=              5.1222
 Quadrupole moment (field-independent basis, Debye-Ang):
   XX=           -242.3687   YY=           -244.6617   ZZ=           -261.7270
   XY=              1.7510   XZ=            -19.4765   YZ=            -20.4698

 Normal termination of Gaussian 16 at Thu Jul 25 17:42:46 2019.
