 Gaussian 16, Revision A.03,
 Gaussian 16:  ES64L-G16RevA.03 25-Dec-2016

 --------------------------
 # td=(NStates=1) B3LYP/SVP
 --------------------------

 --
 TD
 --
 Symbolic Z-matrix:
 Charge =  0 Multiplicity = 1

                         Standard orientation:
 ---------------------------------------------------------------------
 Center     Atomic      Atomic             Coordinates (Angstroms)
 Number     Number       Type             X           Y           Z
 ---------------------------------------------------------------------
      1          8           0       -3.241357   -1.219863   -2.914913
      2          8           0        2.761146    2.892023    3.335815
      3          8           0        3.874756    0.989435    4.242336
      4          8           0        7.749309   -1.357108   -0.728180
      5          8           0        6.675313   -2.837219   -2.108792
      6          8           0       -2.803809    1.448110    1.516721
      7          7           0       -0.288366   -2.474602    0.606677
      8          7           0       -2.641461   -1.137171   -0.677173
      9          7           0        1.127874    0.072656   -0.829548
     10          7           0       -1.036048    1.460331   -0.159211
     11          6           0       -3.448062   -1.384452    0.586894
     12          6           0       -2.714217   -2.436758    1.394055
     13          6           0       -1.197586   -2.159491    1.494879
     14          6           0       -0.521800   -1.422489    2.605457
     15          6           0        0.851529   -1.410726    2.320658
     16          6           0        0.974533   -1.998153    1.041086
     17          6           0       -4.736314   -1.924926    0.177322
     18          6           0        1.918253   -0.704733    3.066296
     19          6           0       -4.850155   -1.878193   -1.225052
     20          6           0        2.084132   -1.995955    0.009939
     21          6           0        2.117436   -0.894689   -0.795800
     22          6           0       -3.477375   -1.391307   -1.765532
     23          6           0        3.121491   -0.460200   -1.799507
     24          6           0       -1.238036   -0.885009    3.885049
     25          6           0       -5.736313   -2.230965    1.257223
     26          6           0        2.618722    0.611275   -2.366420
     27          6           0        1.869416    0.862426    2.954993
     28          6           0        1.335353    1.033745   -1.761691
     29          6           0        4.250516   -1.348021   -2.055042
     30          6           0       -5.974598   -2.195304   -2.075952
     31          6           0        5.475654   -1.028338   -1.206252
     32          6           0        3.109352    1.378990   -3.464710
     33          6           0        0.563990    2.241318   -1.800373
     34          6           0        2.915064    1.513645    3.519292
     35          6           0       -0.592078    2.383429   -1.002453
     36          6           0       -7.021977   -2.995211   -1.938297
     37          6           0        6.626010   -1.855713   -1.402759
     38          6           0       -1.372834    3.561659   -0.968253
     39          6           0       -2.355462    3.375425    0.036175
     40          6           0       -2.125147    2.055901    0.632791
     41          6           0       -1.141912    4.668465   -1.858257
     42          6           0       -3.433136    4.303918    0.612355
     43          6           0       -1.662039    6.032433   -1.881911
     44          1           0       -3.274456   -0.248207    1.195616
     45          1           0       -2.788994   -3.477488    1.134462
     46          1           0       -3.168978   -2.414006    2.437856
     47          1           0       -0.223367   -2.863294   -0.327103
     48          1           0       -1.869246   -0.371758   -0.592753
     49          1           0        1.668598   -1.055944    4.126706
     50          1           0        3.044895   -1.000596    2.895810
     51          1           0        2.838651   -2.724714    0.139898
     52          1           0       -2.269424   -1.461671    4.180793
     53          1           0       -0.661036   -0.479803    4.578168
     54          1           0       -1.765937    0.140626    3.621791
     55          1           0       -5.844676   -1.361085    1.901361
     56          1           0       -5.497347   -3.267347    1.395116
     57          1           0       -6.873646   -2.359932    0.682520
     58          1           0        1.564685    1.288556    1.856868
     59          1           0        0.871553    1.196268    3.389078
     60          1           0        0.291506    0.257046   -0.188902
     61          1           0        4.546505   -1.068279   -3.068101
     62          1           0        4.084655   -2.511452   -2.375879
     63          1           0       -5.564589   -1.870021   -3.294578
     64          1           0        5.164569   -1.375202   -0.217960
     65          1           0        5.791795    0.017622   -1.207614
     66          1           0        3.664327    0.640319   -4.126728
     67          1           0        3.632191    2.305496   -3.063632
     68          1           0        2.398553    1.836441   -4.246233
     69          1           0        0.625831    2.896126   -2.667554
     70          1           0       -7.186728   -3.447532   -1.046766
     71          1           0       -7.786185   -3.150231   -2.766590
     72          1           0        3.503329    3.222108    3.981297
     73          1           0       -0.347856    4.476611   -2.655064
     74          1           0       -4.207196    4.600779   -0.221379
     75          1           0       -3.786366    3.639255    1.258323
     76          1           0       -2.927481    5.236002    1.084641
     77          1           0        8.611556   -1.818682   -0.771140
     78          1           0       -1.444940    6.901067   -2.537973
     79          1           0       -2.466073    6.369429   -1.170689
 ---------------------------------------------------------------------

 SCF Done:  E(RB3LYP) =  -1947.77362940     A.U. after   22 cycles

 Excitation energies and oscillator strengths:

 Excited State   1:      Singlet-A      0.5912 eV 2097.34 nm  f=0.0012  <S**2>=0.000
     155 ->156         0.70374
 This state for optimization and/or second-order correction.
 Total Energy, E(TD-HF/TD-DFT) =  -1947.75190500
 Copying the excited state density for this state as the 1-particle RhoCI density.

 The electronic state is 1-A.
 Alpha  occ. eigenvalues --  -19.18711 -19.17834 -19.14586 -19.13609 -19.12768
 Alpha  occ. eigenvalues --  -19.07736 -14.38299 -14.37513 -14.31875 -14.31858
 Alpha  occ. eigenvalues --  -10.33134 -10.32176 -10.30199 -10.27492 -10.26023
 Alpha  occ. eigenvalues --  -10.25830 -10.25224 -10.23849 -10.23309 -10.22733
 Alpha  occ. eigenvalues --  -10.22701 -10.22533 -10.22447 -10.22422 -10.22242
 Alpha  occ. eigenvalues --  -10.22217 -10.22006 -10.21915 -10.21539 -10.21293
 Alpha  occ. eigenvalues --  -10.21171 -10.20580 -10.20566 -10.20468 -10.20335
 Alpha  occ. eigenvalues --  -10.19820 -10.19304 -10.19262 -10.18772 -10.18339
 Alpha  occ. eigenvalues --  -10.17854 -10.17816 -10.17293  -1.08420  -1.06628
 Alpha  occ. eigenvalues --   -1.02548  -1.01240  -1.00701  -1.00650  -0.97234
 Alpha  occ. eigenvalues --   -0.96561  -0.94582  -0.89670  -0.85694  -0.82935
 Alpha  occ. eigenvalues --   -0.81338  -0.81146  -0.80656  -0.79331  -0.78466
 Alpha  occ. eigenvalues --   -0.77249  -0.76703  -0.75490  -0.74369  -0.73383
 Alpha  occ. eigenvalues --   -0.71322  -0.70216  -0.70147  -0.68805  -0.68101
 Alpha  occ. eigenvalues --   -0.67517  -0.66153  -0.63173  -0.61933  -0.61323
 Alpha  occ. eigenvalues --   -0.60551  -0.58589  -0.58224  -0.57528  -0.56392
 Alpha  occ. eigenvalues --   -0.56283  -0.55906  -0.53818  -0.53219  -0.53095
 Alpha  occ. eigenvalues --   -0.52492  -0.51861  -0.51002  -0.50289  -0.50034
 Alpha  occ. eigenvalues --   -0.49484  -0.48866  -0.48501  -0.48082  -0.47728
 Alpha  occ. eigenvalues --   -0.47454  -0.47027  -0.46816  -0.46152  -0.45885
 Alpha  occ. eigenvalues --   -0.45628  -0.45340  -0.45163  -0.44809  -0.44311
 Alpha  occ. eigenvalues --   -0.44271  -0.43297  -0.42998  -0.42836  -0.42444
 Alpha  occ. eigenvalues --   -0.42264  -0.41543  -0.41318  -0.41209  -0.41053
 Alpha  occ. eigenvalues --   -0.40730  -0.40517  -0.40279  -0.39591  -0.39424
 Alpha  occ. eigenvalues --   -0.38873  -0.38743  -0.38557  -0.38190  -0.37878
 Alpha  occ. eigenvalues --   -0.37305  -0.36909  -0.36638  -0.36343  -0.36107
 Alpha  occ. eigenvalues --   -0.35942  -0.34962  -0.34904  -0.34429  -0.34261
 Alpha  occ. eigenvalues --   -0.32976  -0.32588  -0.32164  -0.31833  -0.31020
 Alpha  occ. eigenvalues --   -0.30931  -0.30158  -0.29632  -0.29022  -0.28991
 Alpha  occ. eigenvalues --   -0.28358  -0.27773  -0.26919  -0.24254  -0.23835
 Alpha  occ. eigenvalues --   -0.23595  -0.22965  -0.22592  -0.21358  -0.18435
 Alpha virt. eigenvalues --   -0.13929  -0.08901  -0.03728  -0.03338  -0.03239
 Alpha virt. eigenvalues --   -0.00782   0.02448   0.02490   0.02581   0.03319
 Alpha virt. eigenvalues --    0.03495   0.04139   0.04487   0.04742   0.05127

 Mulliken charges:
               1
     1  O   -0.200677
     2  O   -0.243221
     3  O   -0.315931
     4  O   -0.255750
     5  O   -0.209895
     6  O   -0.252150
     7  N   -0.002018
     8  N   -0.292459
     9  N   -0.101522
    10  N   -0.376380
    11  C   -0.051679
    12  C    0.204389
    13  C   -0.118811
    14  C   -0.150738
    15  C   -0.037527
    16  C   -0.111937
    17  C   -0.164813
    18  C    0.057629
    19  C   -0.067379
    20  C   -0.107605
    21  C    0.150199
    22  C    0.153923
    23  C   -0.028612
    24  C    0.101130
    25  C    0.086640
    26  C   -0.098557
    27  C   -0.042533
    28  C    0.102352
    29  C    0.038620
    30  C   -0.062342
    31  C    0.068319
    32  C    0.010908
    33  C   -0.073271
    34  C    0.201319
    35  C    0.106872
    36  C   -0.021698
    37  C    0.128237
    38  C    0.094663
    39  C   -0.225994
    40  C    0.243258
    41  C   -0.066811
    42  C    0.119776
    43  C   -0.059350
    44  H    0.140802
    45  H   -0.023304
    46  H   -0.007559
    47  H    0.121236
    48  H    0.174861
    49  H    0.031220
    50  H    0.030457
    51  H    0.006346
    52  H    0.032891
    53  H   -0.044781
    54  H    0.014563
    55  H    0.054658
    56  H    0.037762
    57  H    0.026975
    58  H    0.063438
    59  H    0.061940
    60  H    0.210876
    61  H   -0.018442
    62  H    0.076703
    63  H    0.044099
    64  H    0.041153
    65  H    0.050297
    66  H    0.038611
    67  H    0.049311
    68  H    0.038323
    69  H   -0.002669
    70  H   -0.023695
    71  H    0.037073
    72  H    0.206755
    73  H    0.018261
    74  H    0.055038
    75  H   -0.010409
    76  H    0.056578
    77  H    0.196967
    78  H    0.050556
    79  H    0.034540
 Sum of Mulliken charges =  -0.00000

 Dipole moment (field-independent basis, Debye):
    X=              3.8127    Y=              4.4254    Z=             -0.7965  Tot=              5.8953
 Quadrupole moment (field-independent basis, Debye-Ang):
   XX=           -246.9431   YY=           -231.3031   ZZ=           -269.0615
   XY=              1.4878   XZ=            -23.8754   YZ=            -11.7256

 Normal termination of Gaussian 16 at Fri Jul 26 00:00:09 2019.
