 Gaussian 16, Revision A.03,
 Gaussian 16:  ES64L-G16RevA.03 25-Dec-2016

 --------------------------
 # td=(NStates=1) B3LYP/SVP
 --------------------------

 --
 TD
 --
 Symbolic Z-matrix:
 Charge =  0 Multiplicity = 1

                         Standard orientation:
 ---------------------------------------------------------------------
 Center     Atomic      Atomic             Coordinates (Angstroms)
 Number     Number       Type             X           Y           Z
 ---------------------------------------------------------------------
      1          8           0        5.447216    0.183218   -3.170581
      2          8           0       -3.101770   -2.992953    3.087068
      3          8           0       -3.388367   -0.812108    2.924984
      4          8           0       -1.641290    7.256687    1.668253
      5          8           0       -0.701474    7.043232   -0.398369
      6          8           0       -1.919358   -4.050904    0.004687
      7          7           0        2.368260    0.813988    0.722264
      8          7           0        4.469022   -0.459717   -1.316861
      9          7           0       -1.615371    0.768194   -0.404236
     10          7           0       -2.580708   -1.870679   -0.454044
     11          6           0        4.819564   -1.197714   -0.055035
     12          6           0        4.282526   -0.523558    1.281886
     13          6           0        2.878435   -0.247974    1.358888
     14          6           0        1.931613   -0.842186    2.043781
     15          6           0        0.698004   -0.150571    1.882263
     16          6           0        1.016545    0.963755    0.976638
     17          6           0        6.294089   -1.334365   -0.240996
     18          6           0       -0.623403   -0.347019    2.537014
     19          6           0        6.657827   -0.765748   -1.405132
     20          6           0        0.243500    1.977439    0.351481
     21          6           0       -0.979592    1.880912   -0.156932
     22          6           0        5.437576   -0.291157   -2.075288
     23          6           0       -1.852506    2.990168   -0.784071
     24          6           0        2.083406   -2.053099    3.085316
     25          6           0        7.072504   -2.115898    0.817795
     26          6           0       -3.023420    2.399247   -1.247810
     27          6           0       -1.211979   -1.827383    2.524162
     28          6           0       -2.994535    0.979010   -1.034482
     29          6           0       -1.520096    4.456164   -0.853956
     30          6           0        8.025443   -0.609855   -1.888861
     31          6           0       -1.851784    5.067211    0.460698
     32          6           0       -4.209237    3.124171   -2.024627
     33          6           0       -3.859903   -0.092702   -1.353247
     34          6           0       -2.727546   -1.746053    2.810552
     35          6           0       -3.629310   -1.465815   -1.169160
     36          6           0        9.285236   -0.741914   -1.479661
     37          6           0       -1.285296    6.572619    0.460597
     38          6           0       -4.604550   -2.486390   -1.505281
     39          6           0       -3.986156   -3.625215   -1.122884
     40          6           0       -2.774274   -3.248511   -0.449516
     41          6           0       -5.840675   -2.328001   -2.287874
     42          6           0       -4.301886   -5.175996   -1.321936
     43          6           0       -6.719935   -3.306749   -2.507663
     44          1           0        4.319772   -2.175162    0.063913
     45          1           0        4.777448    0.440992    1.634562
     46          1           0        4.619059   -1.156270    2.235850
     47          1           0        2.861532    1.347064   -0.040046
     48          1           0        3.527586   -0.349113   -1.651237
     49          1           0       -0.507510   -0.040382    3.575502
     50          1           0       -1.373080    0.365309    2.188470
     51          1           0        0.595579    2.989831    0.360915
     52          1           0        3.247370   -2.418322    3.238142
     53          1           0        1.671888   -1.713260    3.997246
     54          1           0        1.460180   -2.914754    2.742385
     55          1           0        6.386904   -3.137106    1.240657
     56          1           0        7.324657   -1.324466    1.713567
     57          1           0        8.145988   -2.382951    0.547160
     58          1           0       -1.051616   -1.983516    1.419271
     59          1           0       -0.666223   -2.586865    3.126524
     60          1           0       -1.270622   -0.099434   -0.209716
     61          1           0       -1.991025    4.886363   -1.725261
     62          1           0       -0.434713    4.596999   -1.050007
     63          1           0        8.140122   -0.695711   -3.170647
     64          1           0       -1.453412    4.498796    1.239485
     65          1           0       -2.951647    5.298992    0.410646
     66          1           0       -4.237598    4.027177   -2.195560
     67          1           0       -5.173613    2.775743   -1.310546
     68          1           0       -4.296519    2.547483   -3.029505
     69          1           0       -4.827633    0.166376   -1.857967
     70          1           0        9.739302   -0.618016   -0.364430
     71          1           0       10.084488   -0.634010   -2.269157
     72          1           0       -4.003298   -3.308560    3.322689
     73          1           0       -6.150442   -1.400194   -2.822245
     74          1           0       -5.283981   -5.274097   -0.821849
     75          1           0       -4.389906   -5.634459   -2.467348
     76          1           0       -3.514204   -5.905463   -0.879205
     77          1           0       -1.432404    8.056882    1.444316
     78          1           0       -7.682990   -2.954605   -3.039314
     79          1           0       -6.638601   -4.392124   -2.115395
 ---------------------------------------------------------------------

 SCF Done:  E(RB3LYP) =  -1947.79312691     A.U. after   22 cycles

 Excitation energies and oscillator strengths:

 Excited State   1:      Singlet-A      1.8917 eV  655.41 nm  f=0.3422  <S**2>=0.000
     153 ->156        -0.13722
     155 ->156         0.69743
     155 <-156        -0.12043
 This state for optimization and/or second-order correction.
 Total Energy, E(TD-HF/TD-DFT) =  -1947.72360800
 Copying the excited state density for this state as the 1-particle RhoCI density.

 The electronic state is 1-A.
 Alpha  occ. eigenvalues --  -19.17071 -19.15833 -19.15347 -19.10945 -19.10032
 Alpha  occ. eigenvalues --  -19.07862 -14.38056 -14.36079 -14.36053 -14.29117
 Alpha  occ. eigenvalues --  -10.33191 -10.29927 -10.26646 -10.26602 -10.26009
 Alpha  occ. eigenvalues --  -10.25731 -10.23977 -10.23900 -10.23321 -10.22739
 Alpha  occ. eigenvalues --  -10.22450 -10.22427 -10.22387 -10.22155 -10.21815
 Alpha  occ. eigenvalues --  -10.21814 -10.21324 -10.21307 -10.21228 -10.21014
 Alpha  occ. eigenvalues --  -10.20930 -10.20746 -10.20713 -10.20666 -10.20494
 Alpha  occ. eigenvalues --  -10.20413 -10.20359 -10.20335 -10.19998 -10.19209
 Alpha  occ. eigenvalues --  -10.18268 -10.18190 -10.18145  -1.12786  -1.08797
 Alpha  occ. eigenvalues --   -1.04734  -1.04452  -1.00435  -0.99922  -0.99231
 Alpha  occ. eigenvalues --   -0.97452  -0.95696  -0.92911  -0.83494  -0.82907
 Alpha  occ. eigenvalues --   -0.82159  -0.80974  -0.80470  -0.79999  -0.77747
 Alpha  occ. eigenvalues --   -0.77037  -0.75672  -0.74907  -0.74694  -0.72293
 Alpha  occ. eigenvalues --   -0.71445  -0.70390  -0.69724  -0.68732  -0.68381
 Alpha  occ. eigenvalues --   -0.67189  -0.66286  -0.64191  -0.62238  -0.60967
 Alpha  occ. eigenvalues --   -0.60135  -0.59773  -0.58347  -0.57302  -0.56870
 Alpha  occ. eigenvalues --   -0.56451  -0.55840  -0.55586  -0.54267  -0.53862
 Alpha  occ. eigenvalues --   -0.52553  -0.52041  -0.51605  -0.50649  -0.50455
 Alpha  occ. eigenvalues --   -0.50233  -0.49045  -0.48580  -0.48420  -0.48054
 Alpha  occ. eigenvalues --   -0.47334  -0.46922  -0.46586  -0.45843  -0.45292
 Alpha  occ. eigenvalues --   -0.44633  -0.44512  -0.44147  -0.43951  -0.43580
 Alpha  occ. eigenvalues --   -0.43350  -0.43161  -0.42896  -0.42583  -0.42420
 Alpha  occ. eigenvalues --   -0.42172  -0.41361  -0.41295  -0.41028  -0.40800
 Alpha  occ. eigenvalues --   -0.40581  -0.40422  -0.40385  -0.40161  -0.39571
 Alpha  occ. eigenvalues --   -0.39273  -0.38752  -0.38566  -0.38229  -0.37965
 Alpha  occ. eigenvalues --   -0.37793  -0.37625  -0.37156  -0.36649  -0.36435
 Alpha  occ. eigenvalues --   -0.35810  -0.35752  -0.34804  -0.34468  -0.34259
 Alpha  occ. eigenvalues --   -0.34049  -0.33305  -0.32856  -0.32352  -0.31734
 Alpha  occ. eigenvalues --   -0.31279  -0.30353  -0.30280  -0.28909  -0.28158
 Alpha  occ. eigenvalues --   -0.26948  -0.26884  -0.25774  -0.24956  -0.24837
 Alpha  occ. eigenvalues --   -0.24135  -0.24040  -0.23825  -0.22763  -0.19129
 Alpha virt. eigenvalues --   -0.11710  -0.06465  -0.05444  -0.00814   0.00203
 Alpha virt. eigenvalues --    0.01151   0.01531   0.02670   0.02926   0.03802
 Alpha virt. eigenvalues --    0.03865   0.04569   0.04776   0.05295   0.05463

 Mulliken charges:
               1
     1  O   -0.206414
     2  O   -0.214262
     3  O   -0.154211
     4  O   -0.171757
     5  O   -0.129380
     6  O   -0.229460
     7  N   -0.063474
     8  N   -0.066527
     9  N   -0.071516
    10  N   -0.230825
    11  C    0.126791
    12  C    0.067872
    13  C   -0.092310
    14  C   -0.107000
    15  C   -0.112926
    16  C    0.055320
    17  C   -0.119419
    18  C    0.086156
    19  C   -0.023731
    20  C   -0.085476
    21  C    0.055121
    22  C    0.023307
    23  C   -0.127666
    24  C    0.057798
    25  C   -0.022216
    26  C   -0.104400
    27  C   -0.063545
    28  C    0.163922
    29  C    0.098320
    30  C   -0.027506
    31  C    0.035765
    32  C    0.136025
    33  C   -0.101520
    34  C    0.137941
    35  C    0.054787
    36  C   -0.129432
    37  C    0.106393
    38  C    0.051729
    39  C   -0.126119
    40  C    0.126537
    41  C   -0.034294
    42  C   -0.006309
    43  C   -0.072192
    44  H    0.028233
    45  H    0.009616
    46  H    0.019044
    47  H    0.125939
    48  H    0.120419
    49  H   -0.003965
    50  H    0.008143
    51  H   -0.028574
    52  H    0.022780
    53  H    0.016548
    54  H    0.052007
    55  H    0.063056
    56  H    0.053794
    57  H    0.044418
    58  H    0.081839
    59  H    0.034831
    60  H    0.098562
    61  H    0.007420
    62  H    0.016443
    63  H    0.047954
    64  H    0.034871
    65  H    0.045861
    66  H   -0.060590
    67  H    0.052507
    68  H    0.046764
    69  H   -0.016565
    70  H    0.032059
    71  H    0.041796
    72  H    0.183469
    73  H    0.006343
    74  H    0.040181
    75  H    0.052190
    76  H    0.054888
    77  H    0.103862
    78  H    0.036175
    79  H    0.037783
 Sum of Mulliken charges =  -0.00000

 Dipole moment (field-independent basis, Debye):
    X=             -2.0835    Y=              1.7390    Z=              2.0755  Tot=              3.4166
 Quadrupole moment (field-independent basis, Debye-Ang):
   XX=           -225.7233   YY=           -241.9813   ZZ=           -263.4732
   XY=             -8.7085   XZ=             36.4261   YZ=             -3.1951

 Normal termination of Gaussian 16 at Fri Oct  4 18:34:14 2019.
