 Gaussian 16, Revision A.03,
 Gaussian 16:  ES64L-G16RevA.03 25-Dec-2016

 --------------------------
 # td=(NStates=1) B3LYP/SVP
 --------------------------

 --
 TD
 --
 Symbolic Z-matrix:
 Charge =  0 Multiplicity = 1

                         Standard orientation:
 ---------------------------------------------------------------------
 Center     Atomic      Atomic             Coordinates (Angstroms)
 Number     Number       Type             X           Y           Z
 ---------------------------------------------------------------------
      1          8           0       -3.330067   -0.973913   -2.882162
      2          8           0        3.224110    2.999829    3.090924
      3          8           0        3.475101    1.298577    4.551435
      4          8           0        7.743621   -1.465013   -0.867869
      5          8           0        6.586311   -2.964507   -2.091038
      6          8           0       -2.518085    1.648870    1.703797
      7          7           0       -0.239731   -2.465132    0.790136
      8          7           0       -2.709541   -1.125280   -0.645006
      9          7           0        1.108160   -0.001701   -0.767357
     10          7           0       -0.960858    1.450260   -0.045149
     11          6           0       -3.332347   -1.377485    0.654186
     12          6           0       -2.531087   -2.476419    1.541520
     13          6           0       -1.160016   -2.159817    1.668126
     14          6           0       -0.564667   -1.316568    2.705303
     15          6           0        0.860400   -1.278739    2.383862
     16          6           0        0.942335   -1.870981    1.140044
     17          6           0       -4.690092   -1.901333    0.234723
     18          6           0        1.950789   -0.449747    3.068622
     19          6           0       -4.735941   -1.946688   -1.169762
     20          6           0        2.142776   -1.916481    0.154569
     21          6           0        2.114610   -0.809545   -0.753727
     22          6           0       -3.552977   -1.370393   -1.713755
     23          6           0        3.024756   -0.499849   -1.815546
     24          6           0       -1.314193   -0.842204    3.913340
     25          6           0       -5.608572   -2.407216    1.177381
     26          6           0        2.524686    0.573077   -2.522898
     27          6           0        2.001128    0.983596    2.667183
     28          6           0        1.233649    0.888785   -1.777244
     29          6           0        4.248095   -1.282424   -2.127692
     30          6           0       -5.752971   -2.490347   -2.089584
     31          6           0        5.471032   -1.040813   -1.145266
     32          6           0        3.042164    1.299517   -3.667178
     33          6           0        0.395206    2.055435   -1.976537
     34          6           0        2.954334    1.782729    3.553987
     35          6           0       -0.634069    2.384582   -1.051569
     36          6           0       -6.779247   -3.247846   -1.878099
     37          6           0        6.590731   -1.973545   -1.369641
     38          6           0       -1.506644    3.516573   -1.040475
     39          6           0       -2.297141    3.472788    0.061517
     40          6           0       -1.999592    2.150747    0.658768
     41          6           0       -1.414780    4.594334   -2.071066
     42          6           0       -3.551104    4.200440    0.450472
     43          6           0       -2.049430    5.861089   -2.141211
     44          1           0       -3.273917   -0.499954    1.425901
     45          1           0       -2.709042   -3.349924    1.167056
     46          1           0       -3.308092   -2.336190    2.468649
     47          1           0       -0.568342   -2.970873   -0.060886
     48          1           0       -2.070679   -0.293928   -0.844778
     49          1           0        1.631812   -0.488428    3.971929
     50          1           0        2.980819   -0.984638    3.030223
     51          1           0        2.935401   -2.760622    0.295804
     52          1           0       -1.964289   -1.842268    4.224713
     53          1           0       -0.668144   -0.430541    4.671501
     54          1           0       -1.968738   -0.007528    3.628749
     55          1           0       -5.260790   -2.179035    2.387358
     56          1           0       -5.718856   -3.586618    1.213358
     57          1           0       -6.788962   -1.959725    0.958937
     58          1           0        2.377836    0.964866    1.606891
     59          1           0        0.948068    1.337740    2.811363
     60          1           0        0.340191    0.301174   -0.115119
     61          1           0        4.325861   -0.992669   -3.152705
     62          1           0        4.074776   -2.396034   -2.428209
     63          1           0       -5.568858   -2.127576   -3.098316
     64          1           0        5.234396   -1.200840   -0.065289
     65          1           0        5.758693   -0.060045   -1.073292
     66          1           0        3.650008    0.734807   -4.263271
     67          1           0        3.392519    2.292595   -3.269288
     68          1           0        2.245674    1.502711   -4.373109
     69          1           0        0.618761    2.645505   -2.817235
     70          1           0       -6.631535   -3.755226   -0.880708
     71          1           0       -7.649973   -3.398904   -2.603646
     72          1           0        3.758639    3.492903    3.746188
     73          1           0       -0.763438    4.476744   -2.828611
     74          1           0       -4.277959    4.274375   -0.467019
     75          1           0       -4.067311    3.576738    1.255209
     76          1           0       -3.199584    5.303077    0.988168
     77          1           0        8.568381   -1.896763   -1.164855
     78          1           0       -1.641584    6.588303   -2.688771
     79          1           0       -2.706814    6.037511   -1.360072
 ---------------------------------------------------------------------

 SCF Done:  E(RB3LYP) =  -1947.82311470     A.U. after   20 cycles

 Excitation energies and oscillator strengths:

 Excited State   1:      Singlet-A      0.8073 eV 1535.81 nm  f=0.0005  <S**2>=0.000
     155 ->156         0.70397
 This state for optimization and/or second-order correction.
 Total Energy, E(TD-HF/TD-DFT) =  -1947.79344742
 Copying the excited state density for this state as the 1-particle RhoCI density.

 The electronic state is 1-A.
 Alpha  occ. eigenvalues --  -19.18798 -19.18749 -19.13350 -19.11962 -19.11608
 Alpha  occ. eigenvalues --  -19.07612 -14.37674 -14.37148 -14.32530 -14.31093
 Alpha  occ. eigenvalues --  -10.33231 -10.31715 -10.28019 -10.26913 -10.25694
 Alpha  occ. eigenvalues --  -10.25190 -10.25031 -10.23865 -10.22897 -10.22879
 Alpha  occ. eigenvalues --  -10.22815 -10.22286 -10.22225 -10.22050 -10.21987
 Alpha  occ. eigenvalues --  -10.21857 -10.21300 -10.21271 -10.21226 -10.21033
 Alpha  occ. eigenvalues --  -10.20912 -10.20732 -10.19929 -10.19850 -10.19326
 Alpha  occ. eigenvalues --  -10.19033 -10.18644 -10.18228 -10.17900 -10.17746
 Alpha  occ. eigenvalues --  -10.17404 -10.17246 -10.16795  -1.09861  -1.09671
 Alpha  occ. eigenvalues --   -1.02328  -1.00578  -1.00159  -0.99879  -0.98853
 Alpha  occ. eigenvalues --   -0.98074  -0.92099  -0.90869  -0.84472  -0.82080
 Alpha  occ. eigenvalues --   -0.80891  -0.80562  -0.80459  -0.79266  -0.78518
 Alpha  occ. eigenvalues --   -0.76750  -0.75873  -0.75841  -0.74744  -0.74138
 Alpha  occ. eigenvalues --   -0.71242  -0.70560  -0.70223  -0.69476  -0.67494
 Alpha  occ. eigenvalues --   -0.66649  -0.65265  -0.63317  -0.62360  -0.61282
 Alpha  occ. eigenvalues --   -0.60293  -0.59831  -0.58164  -0.57923  -0.57539
 Alpha  occ. eigenvalues --   -0.55751  -0.55018  -0.54670  -0.53300  -0.52760
 Alpha  occ. eigenvalues --   -0.52370  -0.52003  -0.51127  -0.50390  -0.49082
 Alpha  occ. eigenvalues --   -0.48980  -0.48677  -0.48560  -0.48485  -0.48041
 Alpha  occ. eigenvalues --   -0.47874  -0.47590  -0.46856  -0.46406  -0.45987
 Alpha  occ. eigenvalues --   -0.45536  -0.44628  -0.44130  -0.43999  -0.43853
 Alpha  occ. eigenvalues --   -0.43710  -0.43196  -0.42959  -0.42734  -0.42325
 Alpha  occ. eigenvalues --   -0.41829  -0.41357  -0.40809  -0.40674  -0.40384
 Alpha  occ. eigenvalues --   -0.40287  -0.40148  -0.39929  -0.39783  -0.39618
 Alpha  occ. eigenvalues --   -0.39291  -0.38933  -0.38588  -0.38165  -0.37891
 Alpha  occ. eigenvalues --   -0.37607  -0.37047  -0.36728  -0.36555  -0.36060
 Alpha  occ. eigenvalues --   -0.36025  -0.35566  -0.35019  -0.34740  -0.34373
 Alpha  occ. eigenvalues --   -0.33743  -0.32986  -0.32555  -0.32098  -0.31463
 Alpha  occ. eigenvalues --   -0.31124  -0.29822  -0.29500  -0.29086  -0.27958
 Alpha  occ. eigenvalues --   -0.27555  -0.27387  -0.25582  -0.24059  -0.23785
 Alpha  occ. eigenvalues --   -0.23191  -0.23013  -0.22283  -0.21699  -0.18188
 Alpha virt. eigenvalues --   -0.12755  -0.08033  -0.05393  -0.02654  -0.01298
 Alpha virt. eigenvalues --    0.00543   0.02400   0.02750   0.02864   0.03452
 Alpha virt. eigenvalues --    0.03598   0.04008   0.04682   0.04916   0.05055

 Mulliken charges:
               1
     1  O   -0.284747
     2  O   -0.163988
     3  O   -0.241545
     4  O   -0.208549
     5  O   -0.232381
     6  O   -0.256350
     7  N    0.015159
     8  N   -0.223515
     9  N    0.026977
    10  N   -0.374408
    11  C    0.002902
    12  C    0.205229
    13  C   -0.087464
    14  C   -0.160319
    15  C   -0.124906
    16  C   -0.075374
    17  C   -0.070808
    18  C    0.202601
    19  C   -0.038012
    20  C   -0.108971
    21  C    0.074343
    22  C    0.130156
    23  C   -0.107949
    24  C    0.066746
    25  C   -0.106696
    26  C   -0.151854
    27  C   -0.010019
    28  C    0.026805
    29  C    0.105010
    30  C    0.002310
    31  C    0.080072
    32  C    0.170761
    33  C   -0.048063
    34  C    0.127656
    35  C    0.129497
    36  C   -0.045069
    37  C    0.136144
    38  C    0.096420
    39  C   -0.172854
    40  C    0.192823
    41  C   -0.038215
    42  C   -0.014223
    43  C    0.079260
    44  H    0.081333
    45  H   -0.101501
    46  H    0.010311
    47  H    0.128881
    48  H    0.156836
    49  H   -0.068839
    50  H    0.005835
    51  H    0.058317
    52  H    0.039088
    53  H   -0.005414
    54  H    0.035032
    55  H    0.050209
    56  H    0.068054
    57  H    0.076491
    58  H    0.036183
    59  H    0.059930
    60  H    0.205529
    61  H   -0.022730
    62  H    0.047995
    63  H   -0.004444
    64  H    0.042292
    65  H    0.003139
    66  H   -0.006269
    67  H    0.049785
    68  H    0.018003
    69  H   -0.047902
    70  H    0.010656
    71  H    0.042152
    72  H    0.186072
    73  H   -0.052773
    74  H    0.068270
    75  H    0.053657
    76  H    0.061670
    77  H    0.193523
    78  H    0.000689
    79  H   -0.004650
 Sum of Mulliken charges =  -0.00000

 Dipole moment (field-independent basis, Debye):
    X=              4.1732    Y=              3.2663    Z=             -1.6329  Tot=              5.5453
 Quadrupole moment (field-independent basis, Debye-Ang):
   XX=           -230.3118   YY=           -232.8798   ZZ=           -270.8072
   XY=             11.6534   XZ=            -21.6679   YZ=             -9.8367

 Normal termination of Gaussian 16 at Mon Jul 29 19:34:38 2019.
