 Gaussian 16, Revision A.03,
 Gaussian 16:  ES64L-G16RevA.03 25-Dec-2016

 --------------------------
 # td=(NStates=1) B3LYP/SVP
 --------------------------

 --
 TD
 --
 Symbolic Z-matrix:
 Charge =  0 Multiplicity = 1

                         Standard orientation:
 ---------------------------------------------------------------------
 Center     Atomic      Atomic             Coordinates (Angstroms)
 Number     Number       Type             X           Y           Z
 ---------------------------------------------------------------------
      1          8           0        5.313150   -0.145781   -3.233094
      2          8           0       -3.012728   -2.791095    3.236069
      3          8           0       -3.514685   -0.623871    2.781445
      4          8           0       -1.713403    7.053744    1.507092
      5          8           0       -0.532865    6.912660   -0.422596
      6          8           0       -1.670531   -4.027748    0.090244
      7          7           0        2.286728    0.968708    0.543462
      8          7           0        4.357365   -0.709659   -1.115216
      9          7           0       -1.826748    0.668369   -0.459847
     10          7           0       -2.511748   -1.921626   -0.414464
     11          6           0        4.810763   -1.122815    0.195197
     12          6           0        4.400363   -0.183329    1.256531
     13          6           0        2.932291    0.074889    1.330693
     14          6           0        1.954578   -0.567004    2.115153
     15          6           0        0.707199   -0.003604    1.821614
     16          6           0        0.899368    1.029450    0.761243
     17          6           0        6.296336   -1.305329   -0.139533
     18          6           0       -0.648849   -0.142581    2.484121
     19          6           0        6.592863   -0.863605   -1.397643
     20          6           0        0.148158    2.103836    0.067101
     21          6           0       -1.115652    1.968302   -0.320874
     22          6           0        5.336085   -0.421577   -2.032224
     23          6           0       -1.979029    2.897986   -0.958136
     24          6           0        2.206768   -1.541254    3.144912
     25          6           0        7.105175   -1.883691    0.990617
     26          6           0       -3.123532    2.300781   -1.406138
     27          6           0       -1.223288   -1.553474    2.680634
     28          6           0       -2.968512    0.843261   -1.090653
     29          6           0       -1.637679    4.436118   -1.025711
     30          6           0        7.912354   -0.777247   -2.039143
     31          6           0       -1.979399    5.086260    0.252834
     32          6           0       -4.346575    2.820029   -2.123897
     33          6           0       -3.816800   -0.145797   -1.422235
     34          6           0       -2.738474   -1.503273    2.860700
     35          6           0       -3.602955   -1.576922   -1.081962
     36          6           0        9.189897   -0.829241   -1.529674
     37          6           0       -1.354514    6.488989    0.355864
     38          6           0       -4.409929   -2.757541   -1.509479
     39          6           0       -3.744741   -3.847031   -0.986157
     40          6           0       -2.535471   -3.324731   -0.314322
     41          6           0       -5.703057   -2.577035   -2.089042
     42          6           0       -4.050082   -5.333014   -0.875637
     43          6           0       -6.578972   -3.588829   -2.431618
     44          1           0        4.438118   -2.071476    0.362956
     45          1           0        4.936399    0.887870    1.060832
     46          1           0        4.692195   -0.478075    2.272710
     47          1           0        2.862112    1.295667   -0.287783
     48          1           0        3.346192   -0.715813   -1.341985
     49          1           0       -0.544070    0.327587    3.530105
     50          1           0       -1.390564    0.494446    2.093239
     51          1           0        0.456084    3.233786    0.115813
     52          1           0        3.370122   -1.839533    3.189441
     53          1           0        1.677098   -1.203414    4.078488
     54          1           0        1.779307   -2.502819    2.789406
     55          1           0        6.506692   -2.720840    1.444796
     56          1           0        7.277983   -1.070931    1.890073
     57          1           0        8.124951   -2.279179    0.658746
     58          1           0       -1.093884   -2.070146    1.739515
     59          1           0       -0.691576   -2.035963    3.609027
     60          1           0       -1.552706   -0.253289   -0.286416
     61          1           0       -2.135024    4.891389   -1.857484
     62          1           0       -0.529820    4.347416   -1.112100
     63          1           0        7.777833   -0.466753   -3.097260
     64          1           0       -1.366498    4.579305    0.988769
     65          1           0       -3.086514    5.089547    0.648379
     66          1           0       -4.258268    3.828726   -2.415577
     67          1           0       -5.159101    2.906724   -1.310149
     68          1           0       -4.857391    2.224887   -3.107014
     69          1           0       -4.707708    0.041733   -2.135249
     70          1           0        9.288873   -1.238926   -0.378658
     71          1           0       10.007136   -0.670780   -2.285205
     72          1           0       -4.051309   -2.790481    3.280663
     73          1           0       -6.002472   -1.642185   -2.376013
     74          1           0       -5.095865   -5.518319   -0.491318
     75          1           0       -4.354892   -5.709206   -1.957551
     76          1           0       -3.205020   -5.891885   -0.258426
     77          1           0       -1.256570    7.901239    1.451060
     78          1           0       -7.346724   -3.394874   -3.051036
     79          1           0       -6.553941   -4.755092   -2.264444
 ---------------------------------------------------------------------

 SCF Done:  E(RB3LYP) =  -1947.91964661     A.U. after   16 cycles

 Excitation energies and oscillator strengths:

 Excited State   1:      Singlet-A      2.0988 eV  590.73 nm  f=0.3172  <S**2>=0.000
     155 ->156         0.69793
 This state for optimization and/or second-order correction.
 Total Energy, E(TD-HF/TD-DFT) =  -1947.84251611
 Copying the excited state density for this state as the 1-particle RhoCI density.

 The electronic state is 1-A.
 Alpha  occ. eigenvalues --  -19.19906 -19.16905 -19.13754 -19.12703 -19.11221
 Alpha  occ. eigenvalues --  -19.09991 -14.38304 -14.36032 -14.35523 -14.29213
 Alpha  occ. eigenvalues --  -10.32833 -10.30626 -10.28700 -10.26456 -10.24288
 Alpha  occ. eigenvalues --  -10.24208 -10.23988 -10.23931 -10.23395 -10.22617
 Alpha  occ. eigenvalues --  -10.22585 -10.22390 -10.22191 -10.21990 -10.21953
 Alpha  occ. eigenvalues --  -10.21641 -10.21515 -10.21303 -10.21068 -10.20972
 Alpha  occ. eigenvalues --  -10.20879 -10.20419 -10.20367 -10.20178 -10.20139
 Alpha  occ. eigenvalues --  -10.20115 -10.20082 -10.20069 -10.19744 -10.19160
 Alpha  occ. eigenvalues --  -10.18864 -10.18443 -10.18315  -1.11938  -1.08591
 Alpha  occ. eigenvalues --   -1.03940  -1.02322  -1.01886  -1.00330  -0.97984
 Alpha  occ. eigenvalues --   -0.97562  -0.94899  -0.92663  -0.83852  -0.81550
 Alpha  occ. eigenvalues --   -0.81363  -0.80964  -0.80570  -0.79820  -0.78843
 Alpha  occ. eigenvalues --   -0.76935  -0.76098  -0.75229  -0.74296  -0.72256
 Alpha  occ. eigenvalues --   -0.71173  -0.70691  -0.69430  -0.68702  -0.68619
 Alpha  occ. eigenvalues --   -0.66198  -0.65872  -0.64306  -0.61095  -0.60943
 Alpha  occ. eigenvalues --   -0.60066  -0.58750  -0.57472  -0.57152  -0.56806
 Alpha  occ. eigenvalues --   -0.56057  -0.55187  -0.54806  -0.53725  -0.53090
 Alpha  occ. eigenvalues --   -0.52152  -0.51516  -0.51236  -0.50297  -0.50068
 Alpha  occ. eigenvalues --   -0.49872  -0.48769  -0.48597  -0.48124  -0.47745
 Alpha  occ. eigenvalues --   -0.47504  -0.47227  -0.46885  -0.46609  -0.45665
 Alpha  occ. eigenvalues --   -0.44761  -0.44378  -0.44236  -0.43988  -0.43515
 Alpha  occ. eigenvalues --   -0.43366  -0.42899  -0.42818  -0.42475  -0.42149
 Alpha  occ. eigenvalues --   -0.41980  -0.41635  -0.41539  -0.41387  -0.41140
 Alpha  occ. eigenvalues --   -0.40963  -0.40534  -0.40382  -0.40302  -0.40111
 Alpha  occ. eigenvalues --   -0.39757  -0.39383  -0.38850  -0.38570  -0.38157
 Alpha  occ. eigenvalues --   -0.37986  -0.37700  -0.37589  -0.37187  -0.37083
 Alpha  occ. eigenvalues --   -0.36780  -0.36263  -0.35543  -0.35244  -0.34784
 Alpha  occ. eigenvalues --   -0.34342  -0.33894  -0.33229  -0.32977  -0.31824
 Alpha  occ. eigenvalues --   -0.31634  -0.31092  -0.29310  -0.29069  -0.28368
 Alpha  occ. eigenvalues --   -0.27856  -0.26916  -0.26142  -0.25400  -0.24592
 Alpha  occ. eigenvalues --   -0.24086  -0.23711  -0.23086  -0.22171  -0.19341
 Alpha virt. eigenvalues --   -0.10586  -0.06572  -0.05926  -0.01339  -0.00265
 Alpha virt. eigenvalues --    0.00408   0.00792   0.02160   0.02605   0.03176
 Alpha virt. eigenvalues --    0.04051   0.04222   0.04426   0.04979   0.05080

 Mulliken charges:
               1
     1  O   -0.240288
     2  O   -0.232669
     3  O   -0.181564
     4  O   -0.147153
     5  O   -0.222776
     6  O   -0.164006
     7  N   -0.087728
     8  N   -0.240728
     9  N   -0.058153
    10  N   -0.285244
    11  C    0.160040
    12  C    0.173838
    13  C   -0.144684
    14  C   -0.126902
    15  C   -0.070146
    16  C    0.038569
    17  C   -0.167176
    18  C    0.075917
    19  C   -0.039644
    20  C   -0.108569
    21  C    0.122116
    22  C    0.178543
    23  C   -0.115655
    24  C    0.063004
    25  C    0.011243
    26  C   -0.092739
    27  C   -0.023089
    28  C    0.105169
    29  C    0.141506
    30  C   -0.030273
    31  C   -0.008659
    32  C    0.056809
    33  C   -0.139933
    34  C    0.131287
    35  C    0.038119
    36  C   -0.056853
    37  C    0.113328
    38  C    0.079637
    39  C   -0.179356
    40  C    0.131026
    41  C    0.007512
    42  C    0.032850
    43  C   -0.033938
    44  H   -0.013060
    45  H    0.016166
    46  H    0.006682
    47  H    0.132966
    48  H    0.139415
    49  H    0.001338
    50  H   -0.011995
    51  H    0.038789
    52  H    0.007997
    53  H    0.039568
    54  H    0.036323
    55  H    0.029218
    56  H    0.061112
    57  H    0.047590
    58  H    0.061224
    59  H    0.051736
    60  H    0.107653
    61  H    0.008816
    62  H    0.022950
    63  H    0.014652
    64  H    0.026050
    65  H    0.057737
    66  H   -0.009302
    67  H    0.039806
    68  H    0.065369
    69  H   -0.004251
    70  H    0.040878
    71  H    0.046707
    72  H    0.188194
    73  H   -0.042936
    74  H    0.025385
    75  H    0.031882
    76  H    0.076263
    77  H    0.169141
    78  H   -0.007610
    79  H    0.034958
 Sum of Mulliken charges =  -0.00000

 Dipole moment (field-independent basis, Debye):
    X=             -1.7799    Y=              2.0987    Z=              3.0519  Tot=              4.1093
 Quadrupole moment (field-independent basis, Debye-Ang):
   XX=           -226.0730   YY=           -241.6466   ZZ=           -262.4521
   XY=             -8.6545   XZ=             34.6188   YZ=              4.2693

 Normal termination of Gaussian 16 at Thu Oct  3 17:00:53 2019.
