 Gaussian 16, Revision A.03,
 Gaussian 16:  ES64L-G16RevA.03 25-Dec-2016

 --------------------------
 # td=(NStates=1) B3LYP/SVP
 --------------------------

 --
 TD
 --
 Symbolic Z-matrix:
 Charge =  0 Multiplicity = 1

                         Standard orientation:
 ---------------------------------------------------------------------
 Center     Atomic      Atomic             Coordinates (Angstroms)
 Number     Number       Type             X           Y           Z
 ---------------------------------------------------------------------
      1          8           0        5.334905    0.251154   -3.257911
      2          8           0       -2.958580   -3.009287    3.250823
      3          8           0       -3.178375   -0.739737    3.128982
      4          8           0       -1.816702    7.122145    1.605914
      5          8           0       -1.373900    7.244470   -0.676112
      6          8           0       -1.669272   -4.023207    0.320094
      7          7           0        2.321715    1.012388    0.676375
      8          7           0        4.405562   -0.309971   -1.255203
      9          7           0       -1.820786    0.628096   -0.409576
     10          7           0       -2.469731   -1.953186   -0.454291
     11          6           0        4.782980   -1.058120    0.022570
     12          6           0        4.442238   -0.229084    1.301557
     13          6           0        2.939007    0.038363    1.444603
     14          6           0        1.999286   -0.610884    2.174224
     15          6           0        0.723030   -0.000634    1.856871
     16          6           0        0.986407    1.089083    0.883123
     17          6           0        6.332440   -1.269974   -0.168105
     18          6           0       -0.577057   -0.268007    2.562890
     19          6           0        6.683045   -0.731453   -1.395541
     20          6           0        0.122496    1.969173    0.210653
     21          6           0       -1.121576    1.836343   -0.281130
     22          6           0        5.420715   -0.177504   -2.137346
     23          6           0       -2.024266    2.928961   -0.903790
     24          6           0        2.261979   -1.723935    3.131954
     25          6           0        7.258905   -1.893994    0.799650
     26          6           0       -3.147321    2.266313   -1.294488
     27          6           0       -1.179981   -1.668802    2.458434
     28          6           0       -3.048495    0.757148   -1.058624
     29          6           0       -1.638326    4.312573   -0.913078
     30          6           0        7.867084   -0.688473   -2.017428
     31          6           0       -1.930506    5.075892    0.443912
     32          6           0       -4.366674    2.886760   -1.952057
     33          6           0       -3.842673   -0.181719   -1.329261
     34          6           0       -2.589540   -1.669906    3.010870
     35          6           0       -3.695131   -1.689257   -1.106782
     36          6           0        9.150100   -0.765565   -1.586222
     37          6           0       -1.629450    6.540802    0.308473
     38          6           0       -4.455410   -2.862195   -1.529926
     39          6           0       -3.702413   -3.946666   -1.029968
     40          6           0       -2.587581   -3.387177   -0.359992
     41          6           0       -5.597489   -2.735375   -2.291718
     42          6           0       -4.104553   -5.396651   -1.232965
     43          6           0       -6.582572   -3.555345   -2.765632
     44          1           0        4.232570   -2.097268    0.066988
     45          1           0        4.948395    0.608390    1.157294
     46          1           0        4.776038   -0.865287    2.137790
     47          1           0        3.181955    1.637198    0.436676
     48          1           0        3.392705    0.029648   -1.621932
     49          1           0       -0.449782   -0.102986    3.754121
     50          1           0       -1.265376    0.721690    2.256306
     51          1           0        0.797347    3.050812    0.125439
     52          1           0        3.273525   -1.918921    3.361173
     53          1           0        1.903902   -1.391893    4.074325
     54          1           0        1.813100   -2.610336    2.676735
     55          1           0        6.664189   -2.457710    1.421007
     56          1           0        7.885824   -1.174548    1.313037
     57          1           0        7.946922   -2.612960    0.100401
     58          1           0       -1.316551   -2.338984    1.623179
     59          1           0       -0.627608   -2.305574    3.149949
     60          1           0       -1.384065   -0.306401   -0.259925
     61          1           0       -2.173728    4.881919   -1.610361
     62          1           0       -0.554409    4.325459   -1.154616
     63          1           0        7.867857   -0.401639   -3.183972
     64          1           0       -1.275508    4.902587    1.138189
     65          1           0       -2.922387    4.805030    0.742844
     66          1           0       -4.280834    4.068847   -1.945777
     67          1           0       -5.406796    2.561800   -1.530131
     68          1           0       -4.501785    2.621311   -3.076362
     69          1           0       -4.850277    0.286021   -1.739777
     70          1           0        9.467103   -1.107196   -0.470943
     71          1           0       10.143465   -0.615547   -2.227903
     72          1           0       -3.960732   -3.065134    3.712304
     73          1           0       -5.778110   -1.594384   -2.468608
     74          1           0       -5.077245   -5.573180   -0.729222
     75          1           0       -4.277964   -5.769062   -2.134674
     76          1           0       -3.305635   -5.944824   -0.696922
     77          1           0       -1.753422    8.199860    1.260475
     78          1           0       -7.449019   -3.292890   -3.422857
     79          1           0       -6.337781   -4.703590   -2.644089
 ---------------------------------------------------------------------

 SCF Done:  E(RB3LYP) =  -1947.76125515     A.U. after   19 cycles

 Excitation energies and oscillator strengths:

 Excited State   1:      Singlet-A      1.5520 eV  798.85 nm  f=0.2656  <S**2>=0.000
     155 ->156         0.70531
     155 <-156        -0.13021
 This state for optimization and/or second-order correction.
 Total Energy, E(TD-HF/TD-DFT) =  -1947.70421872
 Copying the excited state density for this state as the 1-particle RhoCI density.

 The electronic state is 1-A.
 Alpha  occ. eigenvalues --  -19.18939 -19.15406 -19.14970 -19.11490 -19.11221
 Alpha  occ. eigenvalues --  -19.09655 -14.38222 -14.36131 -14.35896 -14.30793
 Alpha  occ. eigenvalues --  -10.33555 -10.28630 -10.27916 -10.27328 -10.26514
 Alpha  occ. eigenvalues --  -10.25542 -10.24571 -10.24037 -10.23338 -10.22312
 Alpha  occ. eigenvalues --  -10.22221 -10.22179 -10.22164 -10.21856 -10.21803
 Alpha  occ. eigenvalues --  -10.21766 -10.21709 -10.21616 -10.21610 -10.21495
 Alpha  occ. eigenvalues --  -10.21212 -10.21096 -10.21005 -10.20764 -10.20534
 Alpha  occ. eigenvalues --  -10.20159 -10.19817 -10.19520 -10.19452 -10.19121
 Alpha  occ. eigenvalues --  -10.18279 -10.18145 -10.16477  -1.09659  -1.07213
 Alpha  occ. eigenvalues --   -1.02625  -0.98823  -0.98403  -0.98258  -0.98193
 Alpha  occ. eigenvalues --   -0.96434  -0.92065  -0.90833  -0.83571  -0.82420
 Alpha  occ. eigenvalues --   -0.82077  -0.81373  -0.80395  -0.79689  -0.78488
 Alpha  occ. eigenvalues --   -0.77428  -0.76508  -0.75400  -0.75166  -0.72158
 Alpha  occ. eigenvalues --   -0.71229  -0.70938  -0.70334  -0.68973  -0.68030
 Alpha  occ. eigenvalues --   -0.66877  -0.65659  -0.64893  -0.61132  -0.60004
 Alpha  occ. eigenvalues --   -0.58971  -0.57198  -0.56926  -0.56489  -0.56292
 Alpha  occ. eigenvalues --   -0.55620  -0.55060  -0.53783  -0.53186  -0.52306
 Alpha  occ. eigenvalues --   -0.52214  -0.51444  -0.50971  -0.49903  -0.49067
 Alpha  occ. eigenvalues --   -0.48581  -0.48039  -0.47735  -0.47417  -0.47082
 Alpha  occ. eigenvalues --   -0.46640  -0.46501  -0.46361  -0.45986  -0.45788
 Alpha  occ. eigenvalues --   -0.45400  -0.45087  -0.44519  -0.44295  -0.43852
 Alpha  occ. eigenvalues --   -0.43567  -0.43218  -0.43119  -0.42826  -0.42368
 Alpha  occ. eigenvalues --   -0.42258  -0.41960  -0.41801  -0.41025  -0.40930
 Alpha  occ. eigenvalues --   -0.40688  -0.40187  -0.39844  -0.39780  -0.39526
 Alpha  occ. eigenvalues --   -0.39244  -0.39095  -0.38871  -0.38406  -0.38310
 Alpha  occ. eigenvalues --   -0.38197  -0.37734  -0.37351  -0.37190  -0.36742
 Alpha  occ. eigenvalues --   -0.36440  -0.35772  -0.35067  -0.34738  -0.33617
 Alpha  occ. eigenvalues --   -0.33559  -0.32867  -0.32614  -0.32283  -0.31544
 Alpha  occ. eigenvalues --   -0.31145  -0.30259  -0.29694  -0.29181  -0.28413
 Alpha  occ. eigenvalues --   -0.26402  -0.26229  -0.25979  -0.25368  -0.24570
 Alpha  occ. eigenvalues --   -0.24508  -0.23826  -0.23115  -0.22754  -0.18800
 Alpha virt. eigenvalues --   -0.12688  -0.06685  -0.06096  -0.02368  -0.02282
 Alpha virt. eigenvalues --    0.00210   0.01474   0.02281   0.02841   0.03112
 Alpha virt. eigenvalues --    0.03589   0.03823   0.04289   0.04702   0.05045

 Mulliken charges:
               1
     1  O   -0.205454
     2  O   -0.313130
     3  O   -0.102638
     4  O   -0.310920
     5  O   -0.239231
     6  O   -0.270811
     7  N   -0.091943
     8  N   -0.266783
     9  N   -0.115182
    10  N   -0.314395
    11  C    0.062186
    12  C    0.294462
    13  C   -0.155722
    14  C   -0.137083
    15  C   -0.081381
    16  C    0.026409
    17  C   -0.189960
    18  C   -0.024026
    19  C    0.006653
    20  C   -0.129824
    21  C    0.120510
    22  C    0.150179
    23  C   -0.071524
    24  C    0.170194
    25  C    0.099834
    26  C   -0.079231
    27  C    0.025433
    28  C    0.135864
    29  C    0.111007
    30  C   -0.071829
    31  C    0.112341
    32  C   -0.018702
    33  C   -0.126600
    34  C    0.088043
    35  C    0.081272
    36  C   -0.141425
    37  C    0.170729
    38  C    0.125110
    39  C   -0.159006
    40  C    0.191616
    41  C   -0.097756
    42  C    0.145269
    43  C   -0.057745
    44  H    0.047624
    45  H   -0.066920
    46  H   -0.000356
    47  H    0.152762
    48  H    0.176221
    49  H    0.021454
    50  H    0.048515
    51  H    0.026730
    52  H   -0.033620
    53  H    0.006145
    54  H    0.050712
    55  H   -0.004403
    56  H    0.050529
    57  H    0.064153
    58  H    0.049624
    59  H    0.003145
    60  H    0.165998
    61  H   -0.004286
    62  H    0.022160
    63  H    0.043267
    64  H   -0.018220
    65  H    0.053408
    66  H    0.034330
    67  H    0.047694
    68  H    0.043550
    69  H   -0.004784
    70  H    0.027002
    71  H    0.052512
    72  H    0.212102
    73  H    0.012974
    74  H    0.023648
    75  H    0.000408
    76  H    0.032386
    77  H    0.236078
    78  H    0.050859
    79  H    0.031794
 Sum of Mulliken charges =  -0.00000

 Dipole moment (field-independent basis, Debye):
    X=             -1.5317    Y=              0.7945    Z=              2.4899  Tot=              3.0293
 Quadrupole moment (field-independent basis, Debye-Ang):
   XX=           -214.5103   YY=           -248.1458   ZZ=           -263.4146
   XY=             -0.7683   XZ=             37.1026   YZ=              7.6436

 Normal termination of Gaussian 16 at Fri Sep 13 10:38:30 2019.
