 Gaussian 16, Revision A.03,
 Gaussian 16:  ES64L-G16RevA.03 25-Dec-2016

 --------------------------
 # td=(NStates=1) B3LYP/SVP
 --------------------------

 --
 TD
 --
 Symbolic Z-matrix:
 Charge =  0 Multiplicity = 1

                         Standard orientation:
 ---------------------------------------------------------------------
 Center     Atomic      Atomic             Coordinates (Angstroms)
 Number     Number       Type             X           Y           Z
 ---------------------------------------------------------------------
      1          8           0        5.204176   -0.037320   -3.235617
      2          8           0       -3.097045   -2.963896    3.095601
      3          8           0       -3.363781   -0.747804    2.804617
      4          8           0       -1.366007    7.251015    1.376086
      5          8           0       -0.203072    6.886257   -0.499139
      6          8           0       -1.918162   -4.101243   -0.110000
      7          7           0        2.316527    0.808494    0.633636
      8          7           0        4.235002   -0.739763   -1.235935
      9          7           0       -1.867717    0.710225   -0.290172
     10          7           0       -2.527825   -1.908928   -0.600377
     11          6           0        4.704948   -1.395924    0.039233
     12          6           0        4.293717   -0.528270    1.312016
     13          6           0        2.914200   -0.171518    1.352053
     14          6           0        1.928014   -0.818135    2.117431
     15          6           0        0.671681   -0.016502    1.912810
     16          6           0        1.044144    0.949763    0.977058
     17          6           0        6.207021   -1.524451   -0.250943
     18          6           0       -0.625954   -0.249755    2.652027
     19          6           0        6.507333   -0.913110   -1.392971
     20          6           0        0.336278    1.975012    0.265612
     21          6           0       -1.032734    1.940098   -0.259740
     22          6           0        5.189714   -0.506608   -2.117619
     23          6           0       -1.843250    2.945654   -0.831711
     24          6           0        2.064562   -1.901015    3.125853
     25          6           0        7.192338   -2.039078    0.749317
     26          6           0       -3.087711    2.396591   -1.137039
     27          6           0       -1.119614   -1.678042    2.679805
     28          6           0       -3.006143    1.050878   -1.011402
     29          6           0       -1.473312    4.442100   -0.812727
     30          6           0        7.862560   -0.688052   -2.036959
     31          6           0       -1.521991    5.113788    0.567404
     32          6           0       -4.250139    3.108172   -1.699645
     33          6           0       -3.977835    0.039920   -1.411575
     34          6           0       -2.732643   -1.758352    2.858005
     35          6           0       -3.661660   -1.366483   -1.148181
     36          6           0        9.110401   -0.903088   -1.580809
     37          6           0       -0.931127    6.576738    0.373267
     38          6           0       -4.550093   -2.391419   -1.501074
     39          6           0       -4.048246   -3.601604   -1.066319
     40          6           0       -2.686889   -3.234599   -0.621532
     41          6           0       -5.913858   -2.181602   -2.144903
     42          6           0       -4.377409   -5.073461   -1.164656
     43          6           0       -6.788373   -3.141080   -2.640898
     44          1           0        4.100141   -2.256479    0.153954
     45          1           0        4.802058    0.324204    0.903966
     46          1           0        4.719534   -0.939079    2.300723
     47          1           0        3.089484    1.346897    0.062967
     48          1           0        3.170044   -0.608522   -1.654824
     49          1           0       -0.599755    0.367520    3.504868
     50          1           0       -1.448679    0.172107    2.192310
     51          1           0        0.527151    2.938201   -0.043132
     52          1           0        3.103556   -2.032702    3.466527
     53          1           0        1.844717   -1.681075    4.128412
     54          1           0        1.635126   -2.986996    2.733429
     55          1           0        6.764274   -2.880131    1.316249
     56          1           0        7.346888   -1.366932    1.702750
     57          1           0        8.292581   -2.415968    0.589547
     58          1           0       -0.908156   -2.218783    1.662894
     59          1           0       -0.642085   -2.271731    3.596128
     60          1           0       -1.442726   -0.284262   -0.365473
     61          1           0       -2.142197    4.978894   -1.459818
     62          1           0       -0.376370    4.526945   -1.319984
     63          1           0        7.642460   -0.186325   -2.979026
     64          1           0       -0.942872    4.452099    1.385695
     65          1           0       -2.495801    5.225436    0.829170
     66          1           0       -3.892524    4.117272   -1.525404
     67          1           0       -5.183548    2.729131   -1.195195
     68          1           0       -4.290394    2.797987   -2.727046
     69          1           0       -4.786052    0.435886   -2.072242
     70          1           0        9.440500   -1.358338   -0.618465
     71          1           0        9.981127   -0.445570   -2.273028
     72          1           0       -4.002325   -3.060582    3.321480
     73          1           0       -6.326330   -1.065534   -2.100675
     74          1           0       -5.408153   -5.231026   -0.596663
     75          1           0       -4.261956   -5.582920   -1.976180
     76          1           0       -3.819006   -5.569351   -0.499790
     77          1           0       -0.865760    7.997258    1.280224
     78          1           0       -7.789091   -2.866235   -2.882185
     79          1           0       -6.364210   -4.226971   -2.751731
 ---------------------------------------------------------------------

 SCF Done:  E(RB3LYP) =  -1947.79769894     A.U. after   20 cycles

 Excitation energies and oscillator strengths:

 Excited State   1:      Singlet-A      1.9886 eV  623.49 nm  f=0.3136  <S**2>=0.000
     152 ->156        -0.10296
     154 ->156         0.28796
     155 ->156         0.63305
     155 <-156        -0.11234
 This state for optimization and/or second-order correction.
 Total Energy, E(TD-HF/TD-DFT) =  -1947.72462094
 Copying the excited state density for this state as the 1-particle RhoCI density.

 The electronic state is 1-A.
 Alpha  occ. eigenvalues --  -19.21035 -19.18262 -19.14754 -19.10868 -19.10034
 Alpha  occ. eigenvalues --  -19.08668 -14.39262 -14.37494 -14.35532 -14.28127
 Alpha  occ. eigenvalues --  -10.33446 -10.30489 -10.28501 -10.26190 -10.24557
 Alpha  occ. eigenvalues --  -10.24422 -10.23741 -10.23721 -10.23176 -10.22784
 Alpha  occ. eigenvalues --  -10.22616 -10.22298 -10.22061 -10.21977 -10.21946
 Alpha  occ. eigenvalues --  -10.21510 -10.21463 -10.20794 -10.20575 -10.20266
 Alpha  occ. eigenvalues --  -10.20149 -10.20066 -10.19934 -10.19892 -10.19882
 Alpha  occ. eigenvalues --  -10.19813 -10.19471 -10.19390 -10.19229 -10.19181
 Alpha  occ. eigenvalues --  -10.18708 -10.16900 -10.16582  -1.16158  -1.11140
 Alpha  occ. eigenvalues --   -1.05455  -1.02863  -1.01033  -1.00517  -0.98429
 Alpha  occ. eigenvalues --   -0.95914  -0.94554  -0.91374  -0.82657  -0.82524
 Alpha  occ. eigenvalues --   -0.81648  -0.80507  -0.80090  -0.78408  -0.77928
 Alpha  occ. eigenvalues --   -0.76360  -0.75301  -0.74914  -0.73856  -0.72411
 Alpha  occ. eigenvalues --   -0.71289  -0.70645  -0.69802  -0.69438  -0.69203
 Alpha  occ. eigenvalues --   -0.67811  -0.66586  -0.64575  -0.61743  -0.61303
 Alpha  occ. eigenvalues --   -0.60021  -0.59633  -0.57794  -0.57518  -0.56518
 Alpha  occ. eigenvalues --   -0.55808  -0.55517  -0.54846  -0.53669  -0.52495
 Alpha  occ. eigenvalues --   -0.52301  -0.52157  -0.51287  -0.51134  -0.50940
 Alpha  occ. eigenvalues --   -0.50104  -0.48865  -0.48263  -0.47788  -0.47004
 Alpha  occ. eigenvalues --   -0.46870  -0.46763  -0.46620  -0.45848  -0.45693
 Alpha  occ. eigenvalues --   -0.45115  -0.44716  -0.44558  -0.44322  -0.44020
 Alpha  occ. eigenvalues --   -0.43558  -0.43188  -0.42939  -0.42910  -0.42502
 Alpha  occ. eigenvalues --   -0.42028  -0.41705  -0.41649  -0.41449  -0.40729
 Alpha  occ. eigenvalues --   -0.40458  -0.40307  -0.40099  -0.39949  -0.39719
 Alpha  occ. eigenvalues --   -0.39370  -0.39157  -0.38484  -0.38432  -0.38154
 Alpha  occ. eigenvalues --   -0.38105  -0.37452  -0.37041  -0.36832  -0.36570
 Alpha  occ. eigenvalues --   -0.36139  -0.35693  -0.35491  -0.35306  -0.33703
 Alpha  occ. eigenvalues --   -0.33190  -0.32935  -0.32371  -0.31827  -0.31439
 Alpha  occ. eigenvalues --   -0.30784  -0.30340  -0.29593  -0.27558  -0.27081
 Alpha  occ. eigenvalues --   -0.25989  -0.25940  -0.25511  -0.25398  -0.24565
 Alpha  occ. eigenvalues --   -0.24196  -0.23342  -0.22649  -0.21578  -0.19306
 Alpha virt. eigenvalues --   -0.11515  -0.06837  -0.05310  -0.00679  -0.00229
 Alpha virt. eigenvalues --    0.00528   0.01731   0.02154   0.02650   0.03196
 Alpha virt. eigenvalues --    0.03591   0.03868   0.04061   0.05247   0.05713

 Mulliken charges:
               1
     1  O   -0.222991
     2  O   -0.091205
     3  O   -0.217269
     4  O   -0.049398
     5  O   -0.185843
     6  O   -0.263167
     7  N   -0.048975
     8  N   -0.264533
     9  N   -0.164928
    10  N   -0.241926
    11  C    0.146266
    12  C    0.190651
    13  C   -0.128787
    14  C   -0.130788
    15  C   -0.126326
    16  C    0.147563
    17  C   -0.109956
    18  C    0.222552
    19  C   -0.095680
    20  C    0.018247
    21  C   -0.048214
    22  C    0.136842
    23  C   -0.048918
    24  C    0.070519
    25  C    0.000534
    26  C   -0.187150
    27  C   -0.135625
    28  C    0.117480
    29  C    0.006468
    30  C    0.046026
    31  C    0.005075
    32  C    0.148279
    33  C   -0.138516
    34  C    0.129307
    35  C    0.133927
    36  C   -0.069886
    37  C    0.088111
    38  C    0.006684
    39  C   -0.210138
    40  C    0.120390
    41  C   -0.062516
    42  C    0.212859
    43  C   -0.030905
    44  H    0.007052
    45  H   -0.040149
    46  H    0.043505
    47  H    0.163477
    48  H    0.187970
    49  H   -0.013179
    50  H   -0.026098
    51  H   -0.066052
    52  H   -0.034352
    53  H    0.004392
    54  H    0.072564
    55  H    0.003127
    56  H    0.032422
    57  H    0.055985
    58  H    0.089619
    59  H    0.033894
    60  H    0.182977
    61  H    0.003001
    62  H    0.057933
    63  H    0.011565
    64  H    0.070589
    65  H   -0.002698
    66  H    0.009777
    67  H    0.039352
    68  H    0.031100
    69  H    0.000126
    70  H    0.026731
    71  H    0.046997
    72  H    0.161823
    73  H    0.017336
    74  H    0.009989
    75  H   -0.007526
    76  H   -0.036051
    77  H    0.125791
    78  H    0.017046
    79  H    0.045826
 Sum of Mulliken charges =  -0.00000

 Dipole moment (field-independent basis, Debye):
    X=              0.5145    Y=              4.3592    Z=              4.8078  Tot=              6.5102
 Quadrupole moment (field-independent basis, Debye-Ang):
   XX=           -229.9436   YY=           -236.3840   ZZ=           -259.2474
   XY=            -11.8532   XZ=             30.0920   YZ=             -0.3099

 Normal termination of Gaussian 16 at Mon Oct  7 05:03:40 2019.
