 Gaussian 16, Revision A.03,
 Gaussian 16:  ES64L-G16RevA.03 25-Dec-2016

 --------------------------
 # td=(NStates=1) B3LYP/SVP
 --------------------------

 --
 TD
 --
 Symbolic Z-matrix:
 Charge =  0 Multiplicity = 1

                         Standard orientation:
 ---------------------------------------------------------------------
 Center     Atomic      Atomic             Coordinates (Angstroms)
 Number     Number       Type             X           Y           Z
 ---------------------------------------------------------------------
      1          8           0       -3.375369   -1.253267   -2.915354
      2          8           0        3.119945    3.086538    3.438426
      3          8           0        3.761290    1.194628    4.431472
      4          8           0        7.748241   -1.661536   -1.085504
      5          8           0        6.551845   -3.024010   -2.334513
      6          8           0       -2.642202    1.644233    1.536400
      7          7           0       -0.317704   -2.376735    0.819032
      8          7           0       -2.656417   -1.188474   -0.682287
      9          7           0        1.020749    0.143421   -0.710902
     10          7           0       -1.009097    1.505321   -0.154998
     11          6           0       -3.387276   -1.308209    0.570722
     12          6           0       -2.700526   -2.382029    1.562382
     13          6           0       -1.322901   -2.099498    1.808316
     14          6           0       -0.545554   -1.331632    2.809659
     15          6           0        0.769882   -1.252614    2.495608
     16          6           0        0.916579   -1.995430    1.234106
     17          6           0       -4.815190   -1.805583    0.197006
     18          6           0        1.985947   -0.594318    3.099915
     19          6           0       -4.834295   -1.989713   -1.203472
     20          6           0        2.029834   -1.912119    0.218271
     21          6           0        2.031896   -0.840874   -0.675553
     22          6           0       -3.633415   -1.444703   -1.735709
     23          6           0        3.013508   -0.593647   -1.760802
     24          6           0       -1.131330   -0.622722    3.973832
     25          6           0       -5.790730   -2.277212    1.283332
     26          6           0        2.650376    0.594169   -2.298744
     27          6           0        2.006498    0.938552    2.864226
     28          6           0        1.326742    0.996822   -1.694968
     29          6           0        4.163179   -1.391548   -2.077011
     30          6           0       -5.920937   -2.419972   -2.132279
     31          6           0        5.397107   -1.214007   -1.076631
     32          6           0        3.377806    1.298389   -3.522888
     33          6           0        0.600439    2.114292   -1.856392
     34          6           0        3.084180    1.738447    3.666916
     35          6           0       -0.593330    2.342748   -1.155768
     36          6           0       -6.948768   -3.211653   -1.794929
     37          6           0        6.622180   -2.092422   -1.563623
     38          6           0       -1.369325    3.660563   -1.179264
     39          6           0       -2.389966    3.372213   -0.174202
     40          6           0       -2.095794    2.144782    0.438896
     41          6           0       -1.175563    4.772136   -2.161394
     42          6           0       -3.395778    4.246849    0.412708
     43          6           0       -1.875266    5.913613   -2.326620
     44          1           0       -3.462706   -0.508256    1.140388
     45          1           0       -2.699044   -3.372276    1.194512
     46          1           0       -3.186326   -2.190002    2.537156
     47          1           0       -0.492090   -2.864578   -0.133193
     48          1           0       -1.838556   -0.537439   -0.748295
     49          1           0        1.896376   -0.817213    4.235902
     50          1           0        2.863038   -1.009898    2.798594
     51          1           0        2.529055   -2.890004    0.062359
     52          1           0       -1.824272   -1.358446    4.326799
     53          1           0       -0.551333   -0.401299    4.779161
     54          1           0       -1.751843    0.298262    3.657977
     55          1           0       -5.675428   -1.594936    2.201528
     56          1           0       -5.717836   -3.410340    1.397613
     57          1           0       -6.905771   -2.060785    0.828518
     58          1           0        2.356319    1.001791    1.857331
     59          1           0        0.944384    1.349916    3.051141
     60          1           0        0.190389    0.247348   -0.103582
     61          1           0        4.622996   -1.386234   -3.053764
     62          1           0        3.832642   -2.488917   -2.072836
     63          1           0       -5.807048   -1.943211   -3.163077
     64          1           0        5.054225   -1.438036   -0.096298
     65          1           0        5.823038   -0.121379   -0.963642
     66          1           0        4.138624    0.869395   -4.130635
     67          1           0        3.711087    2.366018   -3.311983
     68          1           0        2.653609    1.611233   -4.236733
     69          1           0        0.837961    2.984099   -2.541796
     70          1           0       -7.342926   -3.454866   -0.767431
     71          1           0       -7.706787   -3.621647   -2.411047
     72          1           0        3.788436    3.341278    4.011956
     73          1           0       -0.212614    4.509693   -2.718027
     74          1           0       -4.186963    4.730132   -0.367473
     75          1           0       -4.157888    3.790063    1.162940
     76          1           0       -2.857876    5.230201    0.993854
     77          1           0        8.536377   -2.242501   -1.485251
     78          1           0       -1.507317    6.555009   -3.024720
     79          1           0       -2.767886    6.228377   -1.845142
 ---------------------------------------------------------------------

 SCF Done:  E(RB3LYP) =  -1947.86822527     A.U. after   19 cycles

 Excitation energies and oscillator strengths:

 Excited State   1:      Singlet-A      0.7174 eV 1728.28 nm  f=0.0079  <S**2>=0.000
     155 ->156         0.70374
 This state for optimization and/or second-order correction.
 Total Energy, E(TD-HF/TD-DFT) =  -1947.84186185
 Copying the excited state density for this state as the 1-particle RhoCI density.

 The electronic state is 1-A.
 Alpha  occ. eigenvalues --  -19.20569 -19.17356 -19.13265 -19.12594 -19.11216
 Alpha  occ. eigenvalues --  -19.07976 -14.37870 -14.37332 -14.32493 -14.30884
 Alpha  occ. eigenvalues --  -10.33241 -10.31161 -10.27423 -10.26674 -10.26397
 Alpha  occ. eigenvalues --  -10.26171 -10.25150 -10.23455 -10.23080 -10.22978
 Alpha  occ. eigenvalues --  -10.22820 -10.22562 -10.22534 -10.21908 -10.21907
 Alpha  occ. eigenvalues --  -10.21761 -10.21703 -10.21463 -10.21440 -10.21086
 Alpha  occ. eigenvalues --  -10.20681 -10.20617 -10.20388 -10.20222 -10.19922
 Alpha  occ. eigenvalues --  -10.19687 -10.19055 -10.18896 -10.18440 -10.18412
 Alpha  occ. eigenvalues --  -10.17042 -10.16780 -10.16045  -1.11943  -1.11100
 Alpha  occ. eigenvalues --   -1.02591  -1.01339  -1.00280  -0.99920  -0.98270
 Alpha  occ. eigenvalues --   -0.94950  -0.91666  -0.90001  -0.84447  -0.81645
 Alpha  occ. eigenvalues --   -0.80568  -0.79764  -0.79508  -0.78477  -0.77945
 Alpha  occ. eigenvalues --   -0.76771  -0.75636  -0.75314  -0.74036  -0.72573
 Alpha  occ. eigenvalues --   -0.70583  -0.70057  -0.69694  -0.69450  -0.66793
 Alpha  occ. eigenvalues --   -0.65889  -0.65495  -0.63262  -0.61888  -0.61233
 Alpha  occ. eigenvalues --   -0.59510  -0.59138  -0.58853  -0.58426  -0.57184
 Alpha  occ. eigenvalues --   -0.55728  -0.55078  -0.54961  -0.53068  -0.52162
 Alpha  occ. eigenvalues --   -0.51581  -0.51201  -0.50424  -0.49376  -0.49338
 Alpha  occ. eigenvalues --   -0.49029  -0.48743  -0.48511  -0.48294  -0.48223
 Alpha  occ. eigenvalues --   -0.47994  -0.47289  -0.46350  -0.46174  -0.45912
 Alpha  occ. eigenvalues --   -0.45699  -0.45303  -0.44704  -0.43732  -0.43502
 Alpha  occ. eigenvalues --   -0.43209  -0.43040  -0.42462  -0.42289  -0.42117
 Alpha  occ. eigenvalues --   -0.41792  -0.41706  -0.41093  -0.40935  -0.40590
 Alpha  occ. eigenvalues --   -0.40091  -0.40047  -0.39531  -0.39305  -0.39243
 Alpha  occ. eigenvalues --   -0.38878  -0.38630  -0.38517  -0.38224  -0.38071
 Alpha  occ. eigenvalues --   -0.37895  -0.37542  -0.37311  -0.36597  -0.36400
 Alpha  occ. eigenvalues --   -0.35583  -0.35360  -0.34923  -0.34716  -0.34333
 Alpha  occ. eigenvalues --   -0.34001  -0.33419  -0.33059  -0.32329  -0.32282
 Alpha  occ. eigenvalues --   -0.31709  -0.29262  -0.29128  -0.28884  -0.28408
 Alpha  occ. eigenvalues --   -0.27813  -0.27464  -0.25258  -0.24425  -0.23529
 Alpha  occ. eigenvalues --   -0.23360  -0.22859  -0.22683  -0.22127  -0.17875
 Alpha virt. eigenvalues --   -0.13082  -0.07915  -0.04916  -0.02069  -0.00233
 Alpha virt. eigenvalues --    0.01043   0.01309   0.01715   0.02331   0.03242
 Alpha virt. eigenvalues --    0.03551   0.04031   0.04579   0.05031   0.05170

 Mulliken charges:
               1
     1  O   -0.238545
     2  O   -0.160523
     3  O   -0.169596
     4  O   -0.174775
     5  O   -0.236532
     6  O   -0.293492
     7  N   -0.133694
     8  N   -0.268569
     9  N   -0.075686
    10  N   -0.322167
    11  C    0.174685
    12  C    0.238133
    13  C   -0.101807
    14  C   -0.144717
    15  C   -0.103702
    16  C   -0.060372
    17  C   -0.167065
    18  C    0.156286
    19  C   -0.046648
    20  C   -0.117349
    21  C    0.131451
    22  C    0.146479
    23  C   -0.012204
    24  C    0.117372
    25  C    0.002568
    26  C   -0.101878
    27  C   -0.015256
    28  C    0.165863
    29  C    0.067971
    30  C    0.021316
    31  C   -0.040045
    32  C    0.107558
    33  C   -0.127089
    34  C    0.097655
    35  C    0.077696
    36  C   -0.054675
    37  C    0.128055
    38  C    0.001100
    39  C   -0.097461
    40  C    0.195245
    41  C   -0.012206
    42  C   -0.059082
    43  C    0.048443
    44  H   -0.034831
    45  H   -0.029385
    46  H   -0.012103
    47  H    0.147107
    48  H    0.142107
    49  H    0.012776
    50  H   -0.040001
    51  H    0.031947
    52  H   -0.013293
    53  H   -0.030984
    54  H    0.054619
    55  H    0.049795
    56  H    0.068056
    57  H    0.055534
    58  H    0.014990
    59  H    0.072636
    60  H    0.195245
    61  H    0.009054
    62  H    0.032071
    63  H    0.038535
    64  H    0.034003
    65  H    0.051378
    66  H    0.022509
    67  H    0.014282
    68  H    0.001679
    69  H   -0.004529
    70  H    0.011608
    71  H    0.006560
    72  H    0.137952
    73  H    0.009060
    74  H    0.040781
    75  H    0.054239
    76  H    0.061559
    77  H    0.226972
    78  H    0.004036
    79  H    0.021292
 Sum of Mulliken charges =  -0.00000

 Dipole moment (field-independent basis, Debye):
    X=              3.8595    Y=              2.8389    Z=             -1.3449  Tot=              4.9763
 Quadrupole moment (field-independent basis, Debye-Ang):
   XX=           -219.6426   YY=           -234.0345   ZZ=           -268.0859
   XY=              4.7690   XZ=            -22.9184   YZ=            -14.7414

 Normal termination of Gaussian 16 at Fri Jul 26 23:04:31 2019.
