 Gaussian 16, Revision A.03,
 Gaussian 16:  ES64L-G16RevA.03 25-Dec-2016

 --------------------------
 # td=(NStates=1) B3LYP/SVP
 --------------------------

 --
 TD
 --
 Symbolic Z-matrix:
 Charge =  0 Multiplicity = 1

                         Standard orientation:
 ---------------------------------------------------------------------
 Center     Atomic      Atomic             Coordinates (Angstroms)
 Number     Number       Type             X           Y           Z
 ---------------------------------------------------------------------
      1          8           0       -3.261253   -1.777339   -2.714439
      2          8           0        3.149776    3.446527    2.676629
      3          8           0        3.677999    1.801331    4.158105
      4          8           0        7.647271   -1.569473   -0.559803
      5          8           0        6.539342   -3.247713   -1.543923
      6          8           0       -2.559380    1.842940    1.369475
      7          7           0       -0.347511   -2.222999    1.176924
      8          7           0       -2.663452   -1.183563   -0.504258
      9          7           0        1.049664   -0.104939   -0.783233
     10          7           0       -0.845589    1.436383   -0.188627
     11          6           0       -3.291570   -1.104538    0.795727
     12          6           0       -2.687419   -1.991993    1.931948
     13          6           0       -1.145612   -1.739105    2.084407
     14          6           0       -0.587575   -0.835244    2.930990
     15          6           0        0.741661   -0.802030    2.534847
     16          6           0        0.980936   -1.627337    1.454905
     17          6           0       -4.727770   -1.791247    0.400755
     18          6           0        1.833749   -0.003759    3.106106
     19          6           0       -4.852738   -2.076429   -0.916360
     20          6           0        2.120914   -1.807168    0.559955
     21          6           0        2.024181   -1.015718   -0.598051
     22          6           0       -3.512109   -1.718150   -1.484584
     23          6           0        3.014257   -0.956698   -1.660073
     24          6           0       -1.296533   -0.086247    3.912349
     25          6           0       -5.878333   -1.859744    1.440858
     26          6           0        2.544189    0.068760   -2.567185
     27          6           0        1.905159    1.421522    2.500145
     28          6           0        1.331924    0.560224   -1.947773
     29          6           0        4.146225   -1.859472   -1.712903
     30          6           0       -5.807745   -2.823274   -1.736072
     31          6           0        5.321169   -1.195901   -1.014975
     32          6           0        3.057934    0.485571   -3.882724
     33          6           0        0.474496    1.666049   -2.245004
     34          6           0        3.010519    2.253300    3.208209
     35          6           0       -0.514385    2.123759   -1.406764
     36          6           0       -7.052727   -3.379908   -1.279117
     37          6           0        6.616252   -2.162834   -1.159657
     38          6           0       -1.377515    3.361408   -1.602062
     39          6           0       -2.297783    3.394353   -0.496943
     40          6           0       -1.948329    2.172487    0.271502
     41          6           0       -1.188796    4.198338   -2.718858
     42          6           0       -3.355283    4.386543   -0.126642
     43          6           0       -1.800024    5.411868   -2.937765
     44          1           0       -3.295174   -0.105234    1.275583
     45          1           0       -2.767739   -2.969891    1.594561
     46          1           0       -3.015520   -1.734078    3.084579
     47          1           0       -0.530074   -2.988087    0.502527
     48          1           0       -1.862061   -0.547197   -0.704387
     49          1           0        1.644470    0.092693    4.119127
     50          1           0        2.871087   -0.255604    3.057153
     51          1           0        2.673585   -2.764865    0.631898
     52          1           0       -2.015841   -0.685927    4.644706
     53          1           0       -0.565468    0.533997    4.392655
     54          1           0       -1.721427    0.712378    3.300153
     55          1           0       -5.609780   -0.799461    1.995991
     56          1           0       -5.645090   -2.621960    2.114300
     57          1           0       -6.937729   -1.870335    1.067947
     58          1           0        1.879917    1.361477    1.472957
     59          1           0        1.131724    1.888742    2.864287
     60          1           0        0.216203    0.291898   -0.362593
     61          1           0        4.433107   -2.057454   -2.709120
     62          1           0        4.045794   -2.823044   -1.123778
     63          1           0       -5.478794   -2.779507   -2.784724
     64          1           0        5.140699   -0.974844   -0.043198
     65          1           0        5.787509   -0.328918   -1.511713
     66          1           0        3.851396   -0.177656   -4.292313
     67          1           0        3.467258    1.545468   -4.000906
     68          1           0        2.064731    0.464125   -4.574371
     69          1           0        0.689604    2.165447   -3.127870
     70          1           0       -7.169968   -3.136666   -0.243040
     71          1           0       -7.726816   -3.945945   -1.825089
     72          1           0        4.083312    3.686890    3.018149
     73          1           0       -0.239373    3.906189   -3.385289
     74          1           0       -3.944663    4.467027   -1.280230
     75          1           0       -3.978119    3.955035    0.625161
     76          1           0       -2.848475    5.328292    0.324547
     77          1           0        8.608859   -1.996056   -0.898054
     78          1           0       -1.664368    5.886361   -3.919471
     79          1           0       -2.282489    5.828046   -2.129263
 ---------------------------------------------------------------------

 SCF Done:  E(RB3LYP) =  -1947.81615124     A.U. after   24 cycles

 Excitation energies and oscillator strengths:

 Excited State   1:      Singlet-A      0.7011 eV 1768.38 nm  f=0.0031  <S**2>=0.000
     155 ->156         0.70259
 This state for optimization and/or second-order correction.
 Total Energy, E(TD-HF/TD-DFT) =  -1947.79038571
 Copying the excited state density for this state as the 1-particle RhoCI density.

 The electronic state is 1-A.
 Alpha  occ. eigenvalues --  -19.20390 -19.19568 -19.14737 -19.12078 -19.10797
 Alpha  occ. eigenvalues --  -19.07816 -14.36882 -14.36012 -14.33354 -14.31591
 Alpha  occ. eigenvalues --  -10.33100 -10.31712 -10.28022 -10.26752 -10.26722
 Alpha  occ. eigenvalues --  -10.25854 -10.25416 -10.23656 -10.23567 -10.23265
 Alpha  occ. eigenvalues --  -10.23146 -10.22449 -10.22150 -10.22123 -10.22111
 Alpha  occ. eigenvalues --  -10.22028 -10.21678 -10.21346 -10.20692 -10.20684
 Alpha  occ. eigenvalues --  -10.20571 -10.19835 -10.19646 -10.19544 -10.19326
 Alpha  occ. eigenvalues --  -10.18859 -10.18320 -10.18211 -10.17253 -10.16618
 Alpha  occ. eigenvalues --  -10.16262 -10.16194 -10.14592  -1.11903  -1.10373
 Alpha  occ. eigenvalues --   -1.03634  -1.00926  -0.99096  -0.98681  -0.98368
 Alpha  occ. eigenvalues --   -0.96003  -0.90993  -0.90438  -0.84889  -0.82544
 Alpha  occ. eigenvalues --   -0.81489  -0.80956  -0.79428  -0.79305  -0.78111
 Alpha  occ. eigenvalues --   -0.76914  -0.75920  -0.75042  -0.73513  -0.72319
 Alpha  occ. eigenvalues --   -0.70745  -0.70334  -0.69355  -0.69112  -0.67185
 Alpha  occ. eigenvalues --   -0.66695  -0.64670  -0.62824  -0.61324  -0.60757
 Alpha  occ. eigenvalues --   -0.60020  -0.59594  -0.59085  -0.57681  -0.56956
 Alpha  occ. eigenvalues --   -0.55406  -0.54995  -0.54752  -0.53440  -0.52389
 Alpha  occ. eigenvalues --   -0.52254  -0.51217  -0.50855  -0.50457  -0.50060
 Alpha  occ. eigenvalues --   -0.49699  -0.49065  -0.48795  -0.48399  -0.48280
 Alpha  occ. eigenvalues --   -0.47891  -0.47421  -0.47116  -0.46722  -0.46112
 Alpha  occ. eigenvalues --   -0.45304  -0.44791  -0.44517  -0.44148  -0.43904
 Alpha  occ. eigenvalues --   -0.43489  -0.43082  -0.42730  -0.42591  -0.42223
 Alpha  occ. eigenvalues --   -0.41743  -0.41547  -0.41306  -0.41132  -0.40820
 Alpha  occ. eigenvalues --   -0.40538  -0.40248  -0.39992  -0.39629  -0.39316
 Alpha  occ. eigenvalues --   -0.39149  -0.38945  -0.38496  -0.38158  -0.38094
 Alpha  occ. eigenvalues --   -0.37639  -0.37346  -0.36924  -0.36714  -0.36365
 Alpha  occ. eigenvalues --   -0.35951  -0.35385  -0.34948  -0.34568  -0.34321
 Alpha  occ. eigenvalues --   -0.33749  -0.33094  -0.32964  -0.31934  -0.31679
 Alpha  occ. eigenvalues --   -0.30825  -0.29877  -0.29745  -0.29285  -0.27964
 Alpha  occ. eigenvalues --   -0.27449  -0.26601  -0.25197  -0.23919  -0.23211
 Alpha  occ. eigenvalues --   -0.23073  -0.22776  -0.22121  -0.21641  -0.18479
 Alpha virt. eigenvalues --   -0.13233  -0.08700  -0.04481  -0.02741  -0.01016
 Alpha virt. eigenvalues --    0.00512   0.00545   0.01682   0.02268   0.02730
 Alpha virt. eigenvalues --    0.03272   0.04110   0.04164   0.04617   0.05314

 Mulliken charges:
               1
     1  O   -0.283841
     2  O   -0.163224
     3  O   -0.270295
     4  O   -0.241313
     5  O   -0.152043
     6  O   -0.296173
     7  N   -0.078734
     8  N   -0.214632
     9  N   -0.023280
    10  N   -0.347661
    11  C    0.049425
    12  C    0.217957
    13  C   -0.168295
    14  C   -0.123199
    15  C   -0.066240
    16  C   -0.028940
    17  C   -0.201111
    18  C    0.123751
    19  C   -0.017269
    20  C   -0.076750
    21  C    0.102733
    22  C    0.156165
    23  C   -0.066556
    24  C    0.150755
    25  C    0.058052
    26  C   -0.081815
    27  C    0.106233
    28  C    0.046531
    29  C    0.159153
    30  C   -0.029593
    31  C   -0.040442
    32  C    0.016202
    33  C   -0.049876
    34  C    0.116746
    35  C    0.118198
    36  C    0.021420
    37  C    0.117134
    38  C    0.086161
    39  C   -0.168177
    40  C    0.208312
    41  C   -0.113068
    42  C    0.036582
    43  C    0.016480
    44  H    0.061102
    45  H   -0.067229
    46  H    0.030448
    47  H    0.126955
    48  H    0.143222
    49  H   -0.028052
    50  H   -0.019676
    51  H    0.031186
    52  H    0.043851
    53  H   -0.043576
    54  H    0.018769
    55  H    0.045166
    56  H    0.016516
    57  H    0.059758
    58  H    0.002096
    59  H   -0.028628
    60  H    0.162741
    61  H   -0.005702
    62  H    0.036049
    63  H    0.011325
    64  H    0.017184
    65  H    0.025576
    66  H    0.029529
    67  H    0.047084
    68  H    0.060386
    69  H   -0.069557
    70  H   -0.006487
    71  H    0.013568
    72  H    0.197560
    73  H    0.030807
    74  H    0.071148
    75  H    0.029327
    76  H    0.067209
    77  H    0.238951
    78  H    0.038028
    79  H    0.007900
 Sum of Mulliken charges =  -0.00000

 Dipole moment (field-independent basis, Debye):
    X=              6.2665    Y=              2.9822    Z=             -3.1279  Tot=              7.6123
 Quadrupole moment (field-independent basis, Debye-Ang):
   XX=           -219.5145   YY=           -239.9421   ZZ=           -266.7816
   XY=             -0.2660   XZ=            -30.6202   YZ=            -15.6876

 Normal termination of Gaussian 16 at Mon Jul 29 15:27:37 2019.
