 Gaussian 16, Revision A.03,
 Gaussian 16:  ES64L-G16RevA.03 25-Dec-2016

 --------------------------
 # td=(NStates=1) B3LYP/SVP
 --------------------------

 --
 TD
 --
 Symbolic Z-matrix:
 Charge =  0 Multiplicity = 1

                         Standard orientation:
 ---------------------------------------------------------------------
 Center     Atomic      Atomic             Coordinates (Angstroms)
 Number     Number       Type             X           Y           Z
 ---------------------------------------------------------------------
      1          8           0        5.267898   -0.435014   -3.346158
      2          8           0       -3.125627   -2.854540    3.129653
      3          8           0       -3.390548   -0.708730    2.710846
      4          8           0       -1.282013    7.165110    1.531039
      5          8           0       -0.439266    6.895424   -0.594017
      6          8           0       -1.803551   -3.979701    0.027434
      7          7           0        2.358497    0.863914    0.566878
      8          7           0        4.362055   -0.734365   -1.249755
      9          7           0       -1.904323    0.776940   -0.334884
     10          7           0       -2.602128   -1.832409   -0.388032
     11          6           0        4.797154   -1.293538    0.072919
     12          6           0        4.376921   -0.326254    1.196408
     13          6           0        2.937477   -0.090432    1.287597
     14          6           0        2.041427   -0.594219    2.167354
     15          6           0        0.673931    0.073713    1.879414
     16          6           0        0.991053    0.993689    0.815169
     17          6           0        6.357990   -1.460427   -0.106232
     18          6           0       -0.536096   -0.156997    2.613243
     19          6           0        6.638057   -1.064505   -1.400978
     20          6           0        0.157406    1.960941    0.038771
     21          6           0       -1.182529    1.930911   -0.376508
     22          6           0        5.391816   -0.642950   -2.117255
     23          6           0       -1.920631    2.920980   -0.904599
     24          6           0        2.145296   -1.780622    3.156894
     25          6           0        7.202483   -1.786056    0.980631
     26          6           0       -3.124233    2.385830   -1.342981
     27          6           0       -1.220050   -1.532614    2.615229
     28          6           0       -3.092687    0.941867   -1.021367
     29          6           0       -1.446618    4.349348   -0.906280
     30          6           0        7.911175   -0.898623   -2.060256
     31          6           0       -1.592391    5.122797    0.465404
     32          6           0       -4.261963    3.089633   -1.941456
     33          6           0       -3.960479   -0.005588   -1.332997
     34          6           0       -2.636888   -1.612527    2.882546
     35          6           0       -3.744021   -1.474932   -1.077503
     36          6           0        9.110438   -0.830773   -1.479185
     37          6           0       -1.148808    6.475651    0.353340
     38          6           0       -4.611875   -2.602298   -1.497861
     39          6           0       -3.982659   -3.693357   -1.004049
     40          6           0       -2.664769   -3.172097   -0.440157
     41          6           0       -5.944349   -2.433244   -2.070592
     42          6           0       -4.365980   -5.123185   -1.107400
     43          6           0       -6.945923   -3.379772   -2.234557
     44          1           0        4.141076   -2.155160    0.208054
     45          1           0        5.049679    0.556526    0.976835
     46          1           0        4.791667   -0.612761    2.142964
     47          1           0        2.992156    1.430947   -0.100852
     48          1           0        3.398241   -0.748933   -1.595994
     49          1           0       -0.238065    0.200765    3.719814
     50          1           0       -1.275190    0.511167    2.366898
     51          1           0        0.846849    2.808815   -0.501514
     52          1           0        3.202455   -2.225352    3.459429
     53          1           0        1.724312   -1.199500    4.086854
     54          1           0        1.722431   -2.829462    2.926466
     55          1           0        6.537254   -2.304405    1.876515
     56          1           0        7.725075   -0.794360    1.516558
     57          1           0        8.045312   -2.512364    0.612114
     58          1           0       -0.884745   -2.117848    1.767209
     59          1           0       -0.662126   -2.057630    3.256057
     60          1           0       -1.684074   -0.272348   -0.220885
     61          1           0       -2.000065    4.954685   -1.718258
     62          1           0       -0.404662    4.469881   -1.151927
     63          1           0        7.858212   -0.932192   -3.171654
     64          1           0       -0.977611    4.439984    1.150334
     65          1           0       -2.670071    5.302672    0.813585
     66          1           0       -4.168113    4.166958   -2.088677
     67          1           0       -5.462311    2.637056   -1.522181
     68          1           0       -4.321846    2.799057   -3.204312
     69          1           0       -4.866686    0.372382   -1.970860
     70          1           0        9.203135   -0.960067   -0.375964
     71          1           0       10.005970   -0.594915   -2.168616
     72          1           0       -3.951847   -2.673389    3.373805
     73          1           0       -6.157455   -1.366672   -2.193764
     74          1           0       -5.240746   -5.538015   -0.568249
     75          1           0       -4.397654   -5.481659   -2.131663
     76          1           0       -3.536223   -5.794199   -0.581851
     77          1           0       -0.992462    8.065200    1.224141
     78          1           0       -7.940185   -2.982267   -2.616371
     79          1           0       -6.823596   -4.483660   -2.040088
 ---------------------------------------------------------------------

 SCF Done:  E(RB3LYP) =  -1947.85693619     A.U. after   19 cycles

 Excitation energies and oscillator strengths:

 Excited State   1:      Singlet-A      2.0566 eV  602.85 nm  f=0.4583  <S**2>=0.000
     155 ->156         0.70292
     155 <-156        -0.13077
 This state for optimization and/or second-order correction.
 Total Energy, E(TD-HF/TD-DFT) =  -1947.78135581
 Copying the excited state density for this state as the 1-particle RhoCI density.

 The electronic state is 1-A.
 Alpha  occ. eigenvalues --  -19.19522 -19.15903 -19.13553 -19.11232 -19.09819
 Alpha  occ. eigenvalues --  -19.09163 -14.38786 -14.35769 -14.35662 -14.30615
 Alpha  occ. eigenvalues --  -10.32858 -10.30380 -10.28203 -10.26490 -10.25579
 Alpha  occ. eigenvalues --  -10.25474 -10.24515 -10.24064 -10.23892 -10.23867
 Alpha  occ. eigenvalues --  -10.23668 -10.23599 -10.22853 -10.22642 -10.22130
 Alpha  occ. eigenvalues --  -10.21846 -10.21595 -10.21428 -10.21359 -10.21015
 Alpha  occ. eigenvalues --  -10.20955 -10.20850 -10.20657 -10.20415 -10.20366
 Alpha  occ. eigenvalues --  -10.20294 -10.20231 -10.20223 -10.19960 -10.19791
 Alpha  occ. eigenvalues --  -10.19316 -10.19250 -10.17506  -1.10384  -1.09601
 Alpha  occ. eigenvalues --   -1.00844  -1.00528  -0.99793  -0.99452  -0.99075
 Alpha  occ. eigenvalues --   -0.98609  -0.93025  -0.92259  -0.83199  -0.83014
 Alpha  occ. eigenvalues --   -0.81920  -0.81040  -0.80856  -0.80291  -0.78719
 Alpha  occ. eigenvalues --   -0.77350  -0.76775  -0.75442  -0.74573  -0.72859
 Alpha  occ. eigenvalues --   -0.71636  -0.70930  -0.70079  -0.68657  -0.68387
 Alpha  occ. eigenvalues --   -0.67986  -0.65677  -0.64132  -0.61086  -0.60762
 Alpha  occ. eigenvalues --   -0.60197  -0.59231  -0.58835  -0.57691  -0.56187
 Alpha  occ. eigenvalues --   -0.55674  -0.55409  -0.54811  -0.53875  -0.53230
 Alpha  occ. eigenvalues --   -0.52014  -0.51803  -0.51393  -0.50947  -0.50410
 Alpha  occ. eigenvalues --   -0.49592  -0.49318  -0.48893  -0.48469  -0.47658
 Alpha  occ. eigenvalues --   -0.47309  -0.47012  -0.46526  -0.46169  -0.45994
 Alpha  occ. eigenvalues --   -0.45394  -0.44824  -0.44301  -0.43929  -0.43599
 Alpha  occ. eigenvalues --   -0.43513  -0.43290  -0.42826  -0.42440  -0.42267
 Alpha  occ. eigenvalues --   -0.41765  -0.41567  -0.41278  -0.41097  -0.41010
 Alpha  occ. eigenvalues --   -0.40635  -0.40169  -0.40087  -0.39798  -0.39550
 Alpha  occ. eigenvalues --   -0.39320  -0.39087  -0.38669  -0.38482  -0.38160
 Alpha  occ. eigenvalues --   -0.37881  -0.37603  -0.37514  -0.37186  -0.36657
 Alpha  occ. eigenvalues --   -0.36321  -0.36057  -0.35251  -0.34885  -0.34279
 Alpha  occ. eigenvalues --   -0.33964  -0.33593  -0.32686  -0.31926  -0.31557
 Alpha  occ. eigenvalues --   -0.31300  -0.31215  -0.29130  -0.28797  -0.28249
 Alpha  occ. eigenvalues --   -0.27273  -0.26209  -0.25648  -0.24970  -0.24769
 Alpha  occ. eigenvalues --   -0.24236  -0.24037  -0.23600  -0.23046  -0.19128
 Alpha virt. eigenvalues --   -0.11404  -0.07296  -0.06587  -0.03033  -0.02093
 Alpha virt. eigenvalues --    0.00952   0.01176   0.01234   0.01998   0.02360
 Alpha virt. eigenvalues --    0.03066   0.03618   0.04375   0.04464   0.04718

 Mulliken charges:
               1
     1  O   -0.267151
     2  O   -0.122886
     3  O   -0.213346
     4  O   -0.195519
     5  O   -0.272871
     6  O   -0.255889
     7  N   -0.069813
     8  N   -0.199904
     9  N   -0.093764
    10  N   -0.247872
    11  C    0.083309
    12  C    0.147681
    13  C   -0.052080
    14  C   -0.121659
    15  C   -0.120318
    16  C    0.058520
    17  C   -0.091809
    18  C    0.082271
    19  C   -0.032302
    20  C   -0.113469
    21  C    0.089173
    22  C    0.149559
    23  C   -0.025013
    24  C   -0.028525
    25  C   -0.063558
    26  C   -0.063773
    27  C    0.112582
    28  C    0.105347
    29  C    0.069660
    30  C   -0.025551
    31  C   -0.012425
    32  C   -0.052252
    33  C   -0.131877
    34  C    0.114311
    35  C    0.065881
    36  C   -0.048040
    37  C    0.157815
    38  C    0.056513
    39  C   -0.166965
    40  C    0.153784
    41  C   -0.016032
    42  C    0.026353
    43  C   -0.044421
    44  H    0.016770
    45  H   -0.005899
    46  H   -0.005300
    47  H    0.146600
    48  H    0.137138
    49  H    0.024806
    50  H   -0.027042
    51  H    0.029489
    52  H    0.009394
    53  H    0.047776
    54  H    0.066020
    55  H    0.049290
    56  H    0.074673
    57  H    0.073787
    58  H    0.046736
    59  H   -0.042402
    60  H    0.174422
    61  H    0.017083
    62  H    0.011427
    63  H    0.024055
    64  H    0.078576
    65  H    0.048984
    66  H    0.022795
    67  H    0.067088
    68  H    0.042095
    69  H    0.006196
    70  H    0.015502
    71  H    0.047420
    72  H    0.116365
    73  H   -0.009414
    74  H    0.034813
    75  H    0.032922
    76  H    0.036555
    77  H    0.188671
    78  H    0.039472
    79  H    0.039463
 Sum of Mulliken charges =  -0.00000

 Dipole moment (field-independent basis, Debye):
    X=              0.2249    Y=              2.2563    Z=              3.5340  Tot=              4.1989
 Quadrupole moment (field-independent basis, Debye-Ang):
   XX=           -217.4853   YY=           -247.2251   ZZ=           -265.2304
   XY=             -7.9158   XZ=             33.3153   YZ=              0.6559

 Normal termination of Gaussian 16 at Mon Sep 30 17:13:45 2019.
