 Gaussian 16, Revision A.03,
 Gaussian 16:  ES64L-G16RevA.03 25-Dec-2016

 --------------------------
 # td=(NStates=1) B3LYP/SVP
 --------------------------

 --
 TD
 --
 Symbolic Z-matrix:
 Charge =  0 Multiplicity = 1

                         Standard orientation:
 ---------------------------------------------------------------------
 Center     Atomic      Atomic             Coordinates (Angstroms)
 Number     Number       Type             X           Y           Z
 ---------------------------------------------------------------------
      1          8           0       -3.202032   -0.978454   -2.958369
      2          8           0        2.940441    2.749183    3.416613
      3          8           0        3.848077    0.897487    4.516156
      4          8           0        7.739595   -1.308119   -1.013073
      5          8           0        6.715898   -2.520831   -2.579565
      6          8           0       -2.704280    1.465690    1.569144
      7          7           0       -0.223191   -2.459264    0.694698
      8          7           0       -2.660028   -1.098965   -0.664977
      9          7           0        1.144300    0.224545   -0.668624
     10          7           0       -1.025089    1.515914   -0.024703
     11          6           0       -3.440825   -1.497681    0.537555
     12          6           0       -2.587108   -2.566147    1.350068
     13          6           0       -1.190833   -2.271636    1.576798
     14          6           0       -0.521358   -1.644387    2.662500
     15          6           0        0.900403   -1.531115    2.358476
     16          6           0        1.046787   -2.055029    1.025678
     17          6           0       -4.760077   -1.908245    0.020065
     18          6           0        1.995142   -0.933316    3.222240
     19          6           0       -4.730620   -1.808740   -1.305897
     20          6           0        2.118890   -1.877964    0.049845
     21          6           0        2.123838   -0.755021   -0.671874
     22          6           0       -3.402347   -1.299478   -1.798356
     23          6           0        3.025597   -0.359034   -1.838238
     24          6           0       -1.307484   -1.090315    3.750620
     25          6           0       -5.797925   -2.379522    0.933813
     26          6           0        2.492132    0.802121   -2.410798
     27          6           0        1.964301    0.547518    2.912730
     28          6           0        1.236625    1.214009   -1.734306
     29          6           0        4.247386   -1.269659   -2.211442
     30          6           0       -5.612400   -2.346714   -2.381578
     31          6           0        5.451955   -0.929134   -1.193338
     32          6           0        3.098314    1.612410   -3.443420
     33          6           0        0.485013    2.320350   -1.791361
     34          6           0        2.997366    1.397075    3.703523
     35          6           0       -0.593664    2.446560   -0.909269
     36          6           0       -6.718342   -3.105268   -2.081238
     37          6           0        6.585116   -1.666511   -1.672533
     38          6           0       -1.543765    3.552879   -0.877852
     39          6           0       -2.355631    3.485427    0.212408
     40          6           0       -2.059170    2.099265    0.775723
     41          6           0       -1.415100    4.740957   -1.635325
     42          6           0       -3.428603    4.301043    0.786841
     43          6           0       -2.217403    5.905689   -1.767467
     44          1           0       -3.579749   -0.859783    1.234691
     45          1           0       -2.744020   -3.494760    0.940236
     46          1           0       -3.147892   -2.653275    2.330161
     47          1           0       -0.482374   -2.966596   -0.175162
     48          1           0       -1.873300   -0.277319   -0.638708
     49          1           0        1.829706   -0.893274    4.491089
     50          1           0        2.714229   -1.495946    3.037409
     51          1           0        3.046749   -2.623393   -0.133234
     52          1           0       -2.272192   -1.707407    3.904145
     53          1           0       -0.806441   -1.146580    4.937876
     54          1           0       -1.671319    0.088567    3.744635
     55          1           0       -5.706107   -1.844835    1.919064
     56          1           0       -5.829535   -3.341996    1.194169
     57          1           0       -6.875641   -2.220235    0.591359
     58          1           0        2.136481    0.878437    1.911656
     59          1           0        1.038621    0.854584    3.166286
     60          1           0        0.526299    0.216679    0.103607
     61          1           0        4.323557   -1.193086   -3.323077
     62          1           0        4.128133   -2.329754   -2.139453
     63          1           0       -5.464521   -2.081169   -3.465165
     64          1           0        5.046481   -1.419663   -0.253338
     65          1           0        5.563889    0.117688   -1.347005
     66          1           0        3.834374    1.199268   -3.933690
     67          1           0        3.301564    2.447625   -3.001527
     68          1           0        2.264717    2.007680   -3.964163
     69          1           0        0.367635    2.973524   -2.808814
     70          1           0       -7.048784   -3.556773   -1.211780
     71          1           0       -7.322942   -3.568235   -2.849883
     72          1           0        3.544884    3.136482    3.975512
     73          1           0       -0.588601    4.806808   -2.294162
     74          1           0       -4.439892    4.268259    0.220920
     75          1           0       -3.812376    3.789340    1.864785
     76          1           0       -3.184522    5.310746    0.854251
     77          1           0        8.371713   -1.910882   -1.314587
     78          1           0       -1.903732    6.889386   -2.230989
     79          1           0       -3.155879    6.102292   -1.226649
 ---------------------------------------------------------------------

 SCF Done:  E(RB3LYP) =  -1947.76911959     A.U. after   16 cycles

 Excitation energies and oscillator strengths:

 Excited State   1:      Singlet-A      1.2880 eV  962.65 nm  f=0.0007  <S**2>=0.000
     155 ->156         0.70372
 This state for optimization and/or second-order correction.
 Total Energy, E(TD-HF/TD-DFT) =  -1947.72178827
 Copying the excited state density for this state as the 1-particle RhoCI density.

 The electronic state is 1-A.
 Alpha  occ. eigenvalues --  -19.18491 -19.18073 -19.13889 -19.13700 -19.12655
 Alpha  occ. eigenvalues --  -19.07926 -14.37461 -14.37198 -14.33197 -14.31458
 Alpha  occ. eigenvalues --  -10.33467 -10.32580 -10.29004 -10.27866 -10.25969
 Alpha  occ. eigenvalues --  -10.25915 -10.25001 -10.23302 -10.23183 -10.23099
 Alpha  occ. eigenvalues --  -10.22746 -10.22448 -10.22335 -10.21936 -10.21778
 Alpha  occ. eigenvalues --  -10.21702 -10.21671 -10.21537 -10.21366 -10.21158
 Alpha  occ. eigenvalues --  -10.20521 -10.20070 -10.19638 -10.19559 -10.19487
 Alpha  occ. eigenvalues --  -10.19485 -10.19225 -10.18964 -10.18633 -10.18601
 Alpha  occ. eigenvalues --  -10.17923 -10.17574 -10.17205  -1.10193  -1.08897
 Alpha  occ. eigenvalues --   -1.04965  -1.00007  -0.99732  -0.98474  -0.98125
 Alpha  occ. eigenvalues --   -0.97519  -0.93954  -0.91445  -0.84406  -0.83394
 Alpha  occ. eigenvalues --   -0.82016  -0.81218  -0.80610  -0.80340  -0.79481
 Alpha  occ. eigenvalues --   -0.77385  -0.76102  -0.75752  -0.75098  -0.74299
 Alpha  occ. eigenvalues --   -0.71478  -0.70819  -0.70056  -0.69928  -0.68289
 Alpha  occ. eigenvalues --   -0.67083  -0.66059  -0.64396  -0.62060  -0.60579
 Alpha  occ. eigenvalues --   -0.60420  -0.59700  -0.59137  -0.58186  -0.57058
 Alpha  occ. eigenvalues --   -0.56064  -0.55683  -0.55376  -0.53845  -0.53171
 Alpha  occ. eigenvalues --   -0.52770  -0.52585  -0.52350  -0.51267  -0.50361
 Alpha  occ. eigenvalues --   -0.50055  -0.49362  -0.49054  -0.48680  -0.48500
 Alpha  occ. eigenvalues --   -0.47699  -0.47106  -0.46827  -0.46329  -0.45918
 Alpha  occ. eigenvalues --   -0.45777  -0.45452  -0.45222  -0.44545  -0.44090
 Alpha  occ. eigenvalues --   -0.43831  -0.43558  -0.43352  -0.42882  -0.42516
 Alpha  occ. eigenvalues --   -0.42431  -0.42292  -0.41437  -0.41322  -0.41153
 Alpha  occ. eigenvalues --   -0.40936  -0.40528  -0.40407  -0.40160  -0.40151
 Alpha  occ. eigenvalues --   -0.39742  -0.39073  -0.39036  -0.38963  -0.38580
 Alpha  occ. eigenvalues --   -0.38240  -0.37918  -0.37482  -0.37125  -0.36643
 Alpha  occ. eigenvalues --   -0.36125  -0.35879  -0.35541  -0.35277  -0.34915
 Alpha  occ. eigenvalues --   -0.33416  -0.33148  -0.32641  -0.32578  -0.31879
 Alpha  occ. eigenvalues --   -0.31601  -0.29928  -0.29784  -0.29215  -0.29037
 Alpha  occ. eigenvalues --   -0.27531  -0.26719  -0.26233  -0.24588  -0.23828
 Alpha  occ. eigenvalues --   -0.23230  -0.23024  -0.22776  -0.22403  -0.19999
 Alpha virt. eigenvalues --   -0.12967  -0.07897  -0.04081  -0.02963  -0.02587
 Alpha virt. eigenvalues --   -0.00979   0.00983   0.02406   0.02727   0.02943
 Alpha virt. eigenvalues --    0.03614   0.03774   0.04610   0.05057   0.05699

 Mulliken charges:
               1
     1  O   -0.248031
     2  O   -0.159948
     3  O   -0.284250
     4  O   -0.169144
     5  O   -0.262760
     6  O   -0.161320
     7  N   -0.012873
     8  N   -0.282671
     9  N   -0.143954
    10  N   -0.329939
    11  C    0.197252
    12  C    0.209980
    13  C   -0.091670
    14  C   -0.059603
    15  C   -0.149134
    16  C   -0.014870
    17  C   -0.113993
    18  C    0.194595
    19  C   -0.081820
    20  C   -0.135590
    21  C    0.101059
    22  C    0.152637
    23  C   -0.081840
    24  C   -0.078473
    25  C    0.114062
    26  C   -0.227586
    27  C    0.066266
    28  C    0.234527
    29  C    0.021171
    30  C    0.003791
    31  C    0.081566
    32  C    0.377080
    33  C   -0.177150
    34  C    0.157011
    35  C    0.102875
    36  C   -0.030466
    37  C    0.121658
    38  C    0.081364
    39  C   -0.163505
    40  C    0.177717
    41  C   -0.043306
    42  C    0.030197
    43  C   -0.069101
    44  H   -0.056269
    45  H   -0.054004
    46  H   -0.013755
    47  H    0.118481
    48  H    0.195833
    49  H    0.041056
    50  H   -0.071136
    51  H    0.036716
    52  H    0.011629
    53  H    0.008966
    54  H    0.058476
    55  H    0.009533
    56  H   -0.007174
    57  H    0.032636
    58  H    0.020786
    59  H    0.007357
    60  H    0.158432
    61  H    0.035086
    62  H    0.016066
    63  H    0.030561
    64  H    0.076375
    65  H    0.050499
    66  H   -0.020205
    67  H   -0.046099
    68  H   -0.021934
    69  H    0.066645
    70  H   -0.018039
    71  H    0.003613
    72  H    0.147660
    73  H   -0.021457
    74  H    0.056195
    75  H    0.056677
    76  H    0.022781
    77  H    0.153705
    78  H    0.043338
    79  H    0.019161
 Sum of Mulliken charges =  -0.00000

 Dipole moment (field-independent basis, Debye):
    X=              1.4589    Y=              3.3924    Z=             -0.5847  Tot=              3.7388
 Quadrupole moment (field-independent basis, Debye-Ang):
   XX=           -245.7967   YY=           -227.2832   ZZ=           -275.1927
   XY=              7.8512   XZ=            -23.3562   YZ=             -9.8252

 Normal termination of Gaussian 16 at Thu Jul 25 02:46:22 2019.
