 Gaussian 16, Revision A.03,
 Gaussian 16:  ES64L-G16RevA.03 25-Dec-2016

 --------------------------
 # td=(NStates=1) B3LYP/SVP
 --------------------------

 --
 TD
 --
 Symbolic Z-matrix:
 Charge =  0 Multiplicity = 1

                         Standard orientation:
 ---------------------------------------------------------------------
 Center     Atomic      Atomic             Coordinates (Angstroms)
 Number     Number       Type             X           Y           Z
 ---------------------------------------------------------------------
      1          8           0       -3.275731   -1.317904   -2.941641
      2          8           0        3.017870    3.139088    3.297515
      3          8           0        3.949230    1.290830    4.236510
      4          8           0        7.690962   -1.598315   -0.734622
      5          8           0        6.690076   -3.006363   -2.042413
      6          8           0       -2.665295    1.692977    1.378769
      7          7           0       -0.303712   -2.531937    1.011836
      8          7           0       -2.701184   -1.134219   -0.575763
      9          7           0        1.038389    0.052151   -0.795820
     10          7           0       -1.097951    1.443520   -0.255711
     11          6           0       -3.407032   -1.353009    0.609069
     12          6           0       -2.568933   -2.360188    1.680606
     13          6           0       -1.177217   -2.100740    1.848627
     14          6           0       -0.523263   -1.233897    2.780967
     15          6           0        0.731070   -1.116310    2.437890
     16          6           0        0.941070   -1.857885    1.268351
     17          6           0       -4.698570   -1.915246    0.198617
     18          6           0        1.911705   -0.462520    3.200515
     19          6           0       -4.834326   -2.008913   -1.128081
     20          6           0        2.047617   -1.760285    0.263274
     21          6           0        1.975149   -0.933185   -0.825820
     22          6           0       -3.454826   -1.495829   -1.711975
     23          6           0        2.926025   -0.666656   -1.868264
     24          6           0       -1.196643   -0.463921    3.916907
     25          6           0       -5.791314   -2.265833    1.290720
     26          6           0        2.430765    0.408353   -2.567260
     27          6           0        1.958756    1.038715    2.789352
     28          6           0        1.312461    0.926961   -1.970912
     29          6           0        4.142860   -1.458719   -1.976787
     30          6           0       -5.788093   -2.534111   -1.971573
     31          6           0        5.393294   -1.129040   -1.144485
     32          6           0        3.050958    1.071408   -3.859175
     33          6           0        0.516972    2.038912   -1.997524
     34          6           0        3.087142    1.810220    3.538311
     35          6           0       -0.629783    2.348994   -1.150379
     36          6           0       -6.856144   -3.148379   -1.609255
     37          6           0        6.636127   -1.990602   -1.409236
     38          6           0       -1.411402    3.570993   -1.178683
     39          6           0       -2.382635    3.519398   -0.164665
     40          6           0       -2.077724    2.076861    0.405358
     41          6           0       -1.177447    4.749970   -2.046731
     42          6           0       -3.416495    4.327680    0.377633
     43          6           0       -1.707239    5.871287   -2.183254
     44          1           0       -3.588511   -0.491650    1.453660
     45          1           0       -2.757239   -3.358759    1.122299
     46          1           0       -3.203198   -2.293579    2.744089
     47          1           0       -0.570422   -2.887861   -0.009926
     48          1           0       -2.036606   -0.505919   -0.797469
     49          1           0        1.912353   -0.499268    4.393038
     50          1           0        2.797707   -1.129415    2.903432
     51          1           0        2.766852   -2.652806    0.408483
     52          1           0       -2.049168   -1.044008    4.205888
     53          1           0       -0.546282   -0.460516    4.843023
     54          1           0       -1.938366    0.299688    3.462893
     55          1           0       -5.293343   -1.818969    2.340539
     56          1           0       -5.702625   -3.558143    1.406845
     57          1           0       -6.911831   -1.806843    0.998970
     58          1           0        2.050255    1.045626    1.761869
     59          1           0        1.085342    1.491358    2.901016
     60          1           0        0.193929    0.346985   -0.303468
     61          1           0        4.381386   -1.561863   -3.045949
     62          1           0        3.964713   -2.530083   -1.775030
     63          1           0       -5.515243   -2.411848   -3.165359
     64          1           0        5.153981   -0.935040    0.014087
     65          1           0        5.759418    0.010168   -1.260768
     66          1           0        4.029224    0.599533   -4.061800
     67          1           0        3.426496    2.019754   -3.787064
     68          1           0        2.474778    0.999744   -4.722836
     69          1           0        0.818943    2.724891   -2.770310
     70          1           0       -7.145506   -3.354078   -0.565065
     71          1           0       -7.664231   -3.813045   -2.383189
     72          1           0        3.722542    3.429907    3.911058
     73          1           0       -0.389124    4.404302   -2.867368
     74          1           0       -4.264222    4.728505   -0.495427
     75          1           0       -4.082808    3.652614    1.272896
     76          1           0       -2.947675    5.214345    0.778869
     77          1           0        8.423524   -2.287448   -0.976150
     78          1           0       -1.415529    6.648742   -2.809032
     79          1           0       -2.522522    6.348970   -1.424308
 ---------------------------------------------------------------------

 SCF Done:  E(RB3LYP) =  -1947.73638420     A.U. after   19 cycles

 Excitation energies and oscillator strengths:

 Excited State   1:      Singlet-A      0.6055 eV 2047.77 nm  f=0.0001  <S**2>=0.000
     155 ->156         0.70462
 This state for optimization and/or second-order correction.
 Total Energy, E(TD-HF/TD-DFT) =  -1947.71413402
 Copying the excited state density for this state as the 1-particle RhoCI density.

 The electronic state is 1-A.
 Alpha  occ. eigenvalues --  -19.19624 -19.18758 -19.13405 -19.12899 -19.12516
 Alpha  occ. eigenvalues --  -19.10040 -14.37709 -14.35623 -14.34432 -14.31795
 Alpha  occ. eigenvalues --  -10.33266 -10.32101 -10.28272 -10.28220 -10.26789
 Alpha  occ. eigenvalues --  -10.25986 -10.25127 -10.24432 -10.23944 -10.23886
 Alpha  occ. eigenvalues --  -10.23512 -10.23277 -10.22699 -10.22633 -10.22175
 Alpha  occ. eigenvalues --  -10.21981 -10.21934 -10.21377 -10.21333 -10.20957
 Alpha  occ. eigenvalues --  -10.20624 -10.20226 -10.20216 -10.20213 -10.19718
 Alpha  occ. eigenvalues --  -10.19669 -10.19121 -10.18585 -10.18525 -10.18110
 Alpha  occ. eigenvalues --  -10.17762 -10.16537 -10.15759  -1.12163  -1.09907
 Alpha  occ. eigenvalues --   -1.04807  -1.01460  -1.00192  -1.00055  -0.98565
 Alpha  occ. eigenvalues --   -0.97801  -0.95041  -0.93780  -0.84181  -0.82824
 Alpha  occ. eigenvalues --   -0.82277  -0.81710  -0.80703  -0.78873  -0.77688
 Alpha  occ. eigenvalues --   -0.77312  -0.76422  -0.76050  -0.74521  -0.73286
 Alpha  occ. eigenvalues --   -0.71778  -0.70703  -0.69721  -0.68087  -0.67120
 Alpha  occ. eigenvalues --   -0.66119  -0.65771  -0.63768  -0.61266  -0.60623
 Alpha  occ. eigenvalues --   -0.59966  -0.59216  -0.58646  -0.57853  -0.56871
 Alpha  occ. eigenvalues --   -0.56126  -0.55923  -0.53912  -0.53509  -0.53271
 Alpha  occ. eigenvalues --   -0.52491  -0.51942  -0.51210  -0.49749  -0.49682
 Alpha  occ. eigenvalues --   -0.49258  -0.48924  -0.48800  -0.48543  -0.48207
 Alpha  occ. eigenvalues --   -0.47709  -0.47094  -0.46885  -0.46786  -0.45838
 Alpha  occ. eigenvalues --   -0.45519  -0.45298  -0.44891  -0.44648  -0.44027
 Alpha  occ. eigenvalues --   -0.43621  -0.43537  -0.43316  -0.42539  -0.41929
 Alpha  occ. eigenvalues --   -0.41540  -0.41382  -0.41151  -0.41085  -0.40994
 Alpha  occ. eigenvalues --   -0.40821  -0.40651  -0.40504  -0.39802  -0.39620
 Alpha  occ. eigenvalues --   -0.39390  -0.39071  -0.38549  -0.38268  -0.37868
 Alpha  occ. eigenvalues --   -0.37486  -0.37036  -0.36846  -0.36361  -0.36077
 Alpha  occ. eigenvalues --   -0.35772  -0.35216  -0.34210  -0.33594  -0.33367
 Alpha  occ. eigenvalues --   -0.33327  -0.32835  -0.32669  -0.32383  -0.32305
 Alpha  occ. eigenvalues --   -0.31995  -0.31196  -0.30920  -0.30350  -0.29459
 Alpha  occ. eigenvalues --   -0.28419  -0.27488  -0.25964  -0.25388  -0.24693
 Alpha  occ. eigenvalues --   -0.24343  -0.24259  -0.22686  -0.22181  -0.17939
 Alpha virt. eigenvalues --   -0.13154  -0.07753  -0.04305  -0.01077  -0.01003
 Alpha virt. eigenvalues --    0.00227   0.00944   0.01862   0.02076   0.03182
 Alpha virt. eigenvalues --    0.03464   0.03754   0.04286   0.04319   0.05074

 Mulliken charges:
               1
     1  O   -0.264029
     2  O   -0.171687
     3  O   -0.243478
     4  O   -0.179306
     5  O   -0.222855
     6  O   -0.178786
     7  N   -0.051951
     8  N   -0.130965
     9  N   -0.172956
    10  N   -0.266777
    11  C    0.039568
    12  C    0.030641
    13  C   -0.052226
    14  C   -0.171940
    15  C   -0.066608
    16  C   -0.085974
    17  C   -0.128481
    18  C    0.035897
    19  C   -0.019941
    20  C   -0.124722
    21  C    0.169785
    22  C    0.149055
    23  C   -0.042665
    24  C    0.156496
    25  C   -0.071652
    26  C   -0.122587
    27  C    0.103781
    28  C    0.131675
    29  C    0.113558
    30  C   -0.005788
    31  C   -0.091225
    32  C    0.156708
    33  C   -0.096083
    34  C    0.145162
    35  C    0.130683
    36  C   -0.122799
    37  C    0.137077
    38  C    0.028996
    39  C   -0.150836
    40  C    0.130921
    41  C    0.048375
    42  C   -0.061768
    43  C   -0.078885
    44  H    0.075397
    45  H   -0.013178
    46  H    0.028399
    47  H    0.160013
    48  H    0.095222
    49  H    0.031417
    50  H    0.019058
    51  H    0.041368
    52  H   -0.055677
    53  H    0.027296
    54  H    0.035542
    55  H    0.043133
    56  H    0.068008
    57  H    0.088365
    58  H    0.000155
    59  H   -0.009374
    60  H    0.167281
    61  H    0.017119
    62  H    0.021033
    63  H    0.044195
    64  H    0.073632
    65  H    0.043187
    66  H   -0.004454
    67  H   -0.000505
    68  H    0.026049
    69  H   -0.032465
    70  H    0.013678
    71  H    0.039825
    72  H    0.170738
    73  H    0.006561
    74  H    0.071346
    75  H    0.081481
    76  H    0.050612
    77  H    0.213261
    78  H    0.006989
    79  H    0.023884
 Sum of Mulliken charges =  -0.00000

 Dipole moment (field-independent basis, Debye):
    X=              3.4364    Y=              3.3923    Z=             -0.8751  Tot=              4.9074
 Quadrupole moment (field-independent basis, Debye-Ang):
   XX=           -240.2866   YY=           -238.4559   ZZ=           -266.5193
   XY=              2.4054   XZ=            -23.8456   YZ=            -10.2185

 Normal termination of Gaussian 16 at Tue Jul 30 06:00:07 2019.
