 Gaussian 16, Revision A.03,
 Gaussian 16:  ES64L-G16RevA.03 25-Dec-2016

 --------------------------
 # td=(NStates=1) B3LYP/SVP
 --------------------------

 --
 TD
 --
 Symbolic Z-matrix:
 Charge =  0 Multiplicity = 1

                         Standard orientation:
 ---------------------------------------------------------------------
 Center     Atomic      Atomic             Coordinates (Angstroms)
 Number     Number       Type             X           Y           Z
 ---------------------------------------------------------------------
      1          8           0        5.383168    0.140890   -3.241274
      2          8           0       -2.894205   -3.187327    3.169423
      3          8           0       -3.241270   -0.902455    3.222062
      4          8           0       -2.026537    7.273411    1.422250
      5          8           0       -0.845293    7.220480   -0.453993
      6          8           0       -1.777894   -3.989500    0.181343
      7          7           0        2.328137    0.944026    0.591867
      8          7           0        4.333713   -0.389858   -1.228123
      9          7           0       -1.854312    0.669250   -0.343297
     10          7           0       -2.507475   -1.967315   -0.589265
     11          6           0        4.747502   -0.997453   -0.007375
     12          6           0        4.416885   -0.192079    1.264110
     13          6           0        3.033206    0.111672    1.504762
     14          6           0        2.060070   -0.545434    2.299759
     15          6           0        0.774900   -0.029096    1.978904
     16          6           0        0.949304    1.016342    0.991621
     17          6           0        6.223578   -1.304435   -0.181107
     18          6           0       -0.532673   -0.272332    2.632436
     19          6           0        6.539473   -0.785245   -1.415304
     20          6           0        0.131858    1.987809    0.251245
     21          6           0       -1.077662    1.794861   -0.250391
     22          6           0        5.418936   -0.197609   -2.073179
     23          6           0       -1.884318    2.825555   -0.843554
     24          6           0        2.357840   -1.609300    3.167789
     25          6           0        7.018792   -2.000057    0.809215
     26          6           0       -3.100571    2.306561   -1.313396
     27          6           0       -1.111935   -1.784520    2.541634
     28          6           0       -3.035431    0.919376   -0.994993
     29          6           0       -1.514153    4.342035   -0.916550
     30          6           0        7.850743   -0.834989   -2.238956
     31          6           0       -2.002233    5.120299    0.505456
     32          6           0       -4.372887    2.915716   -1.909305
     33          6           0       -3.864864   -0.223839   -1.424317
     34          6           0       -2.536139   -1.866080    3.007823
     35          6           0       -3.646308   -1.530937   -1.199213
     36          6           0        9.108096   -0.713135   -1.659946
     37          6           0       -1.568865    6.644566    0.310210
     38          6           0       -4.436832   -2.683153   -1.616439
     39          6           0       -3.827194   -3.806206   -1.124767
     40          6           0       -2.608091   -3.354216   -0.437182
     41          6           0       -5.733411   -2.534378   -2.324992
     42          6           0       -4.221645   -5.268087   -1.086089
     43          6           0       -6.436591   -3.558337   -2.873872
     44          1           0        4.372155   -2.160613    0.221118
     45          1           0        5.092799    0.743713    1.112976
     46          1           0        4.634577   -0.823722    2.042746
     47          1           0        2.721930    1.674180   -0.215179
     48          1           0        3.391193   -0.298474   -1.719628
     49          1           0       -0.356360   -0.094298    3.763395
     50          1           0       -1.367295    0.424145    2.414091
     51          1           0        0.527775    2.747210   -0.139167
     52          1           0        3.323038   -1.690450    3.800558
     53          1           0        1.579046   -2.097977    4.018836
     54          1           0        2.461641   -2.818911    2.733211
     55          1           0        6.683486   -2.770973    1.292809
     56          1           0        7.189109   -1.221170    1.523845
     57          1           0        8.059362   -2.514111    0.348087
     58          1           0       -1.006155   -2.252250    1.614749
     59          1           0       -0.390398   -2.337486    3.353600
     60          1           0       -1.904967   -0.484111   -0.089273
     61          1           0       -2.098145    4.896590   -1.766586
     62          1           0       -0.419893    4.664016   -1.226241
     63          1           0        7.683705   -0.839156   -3.320617
     64          1           0       -1.437116    4.811976    1.336101
     65          1           0       -3.053365    5.006848    0.694766
     66          1           0       -3.947109    4.034798   -2.294206
     67          1           0       -5.103762    3.000407   -1.178064
     68          1           0       -4.898965    2.310197   -2.787935
     69          1           0       -4.522624    0.065652   -2.024275
     70          1           0        8.978795   -0.759221   -0.466320
     71          1           0        9.936543   -0.596975   -2.209682
     72          1           0       -3.898320   -3.178136    3.406487
     73          1           0       -6.200437   -1.548967   -2.255659
     74          1           0       -5.149471   -5.139587   -0.554406
     75          1           0       -4.429687   -5.750979   -1.964578
     76          1           0       -3.497553   -5.759627   -0.417624
     77          1           0       -1.375132    8.125394    1.444480
     78          1           0       -7.349235   -3.317823   -3.267969
     79          1           0       -5.829644   -4.650082   -2.885435
 ---------------------------------------------------------------------

 SCF Done:  E(RB3LYP) =  -1947.76231405     A.U. after   18 cycles

 Excitation energies and oscillator strengths:

 Excited State   1:      Singlet-A      2.0017 eV  619.39 nm  f=0.3672  <S**2>=0.000
     154 ->156         0.16393
     155 ->156         0.68159
     155 <-156        -0.10903
 This state for optimization and/or second-order correction.
 Total Energy, E(TD-HF/TD-DFT) =  -1947.68875261
 Copying the excited state density for this state as the 1-particle RhoCI density.

 The electronic state is 1-A.
 Alpha  occ. eigenvalues --  -19.18887 -19.17247 -19.14571 -19.11931 -19.09950
 Alpha  occ. eigenvalues --  -19.09586 -14.39463 -14.35983 -14.35486 -14.28310
 Alpha  occ. eigenvalues --  -10.33236 -10.30876 -10.27827 -10.26358 -10.25544
 Alpha  occ. eigenvalues --  -10.24563 -10.24026 -10.23992 -10.23986 -10.23781
 Alpha  occ. eigenvalues --  -10.22792 -10.22586 -10.22576 -10.22450 -10.22282
 Alpha  occ. eigenvalues --  -10.22068 -10.21662 -10.21367 -10.21176 -10.21021
 Alpha  occ. eigenvalues --  -10.20675 -10.20586 -10.20325 -10.20210 -10.20112
 Alpha  occ. eigenvalues --  -10.20025 -10.19805 -10.19758 -10.19727 -10.19548
 Alpha  occ. eigenvalues --  -10.19201 -10.18060 -10.17655  -1.10329  -1.06898
 Alpha  occ. eigenvalues --   -1.02830  -1.01101  -1.00925  -0.99064  -0.97898
 Alpha  occ. eigenvalues --   -0.96181  -0.94556  -0.91537  -0.83185  -0.82403
 Alpha  occ. eigenvalues --   -0.81197  -0.80960  -0.80247  -0.79699  -0.77470
 Alpha  occ. eigenvalues --   -0.76652  -0.76357  -0.75417  -0.74765  -0.72473
 Alpha  occ. eigenvalues --   -0.72270  -0.71067  -0.69816  -0.68747  -0.67284
 Alpha  occ. eigenvalues --   -0.66275  -0.66034  -0.64171  -0.61467  -0.59931
 Alpha  occ. eigenvalues --   -0.58752  -0.58726  -0.58171  -0.57680  -0.56789
 Alpha  occ. eigenvalues --   -0.56030  -0.55406  -0.54479  -0.53929  -0.53476
 Alpha  occ. eigenvalues --   -0.52010  -0.51357  -0.50762  -0.50203  -0.49707
 Alpha  occ. eigenvalues --   -0.49045  -0.48747  -0.48443  -0.47958  -0.47901
 Alpha  occ. eigenvalues --   -0.47448  -0.47381  -0.46753  -0.46554  -0.45528
 Alpha  occ. eigenvalues --   -0.45502  -0.45294  -0.44863  -0.44365  -0.43974
 Alpha  occ. eigenvalues --   -0.43940  -0.43453  -0.43033  -0.42647  -0.42293
 Alpha  occ. eigenvalues --   -0.41918  -0.41881  -0.41696  -0.41343  -0.41312
 Alpha  occ. eigenvalues --   -0.40826  -0.40488  -0.40228  -0.40097  -0.39664
 Alpha  occ. eigenvalues --   -0.39545  -0.39309  -0.38884  -0.38538  -0.38262
 Alpha  occ. eigenvalues --   -0.37856  -0.37349  -0.37213  -0.36822  -0.36709
 Alpha  occ. eigenvalues --   -0.36077  -0.35823  -0.35343  -0.35099  -0.34924
 Alpha  occ. eigenvalues --   -0.34145  -0.33395  -0.33106  -0.31626  -0.31266
 Alpha  occ. eigenvalues --   -0.30999  -0.29852  -0.29806  -0.28691  -0.27226
 Alpha  occ. eigenvalues --   -0.27134  -0.26744  -0.25783  -0.25527  -0.24467
 Alpha  occ. eigenvalues --   -0.24152  -0.24015  -0.23314  -0.21952  -0.19406
 Alpha virt. eigenvalues --   -0.11396  -0.06506  -0.05362  -0.01303  -0.01140
 Alpha virt. eigenvalues --   -0.00131  -0.00016   0.00714   0.01099   0.01804
 Alpha virt. eigenvalues --    0.02746   0.03095   0.03508   0.04513   0.04890

 Mulliken charges:
               1
     1  O   -0.225373
     2  O   -0.226914
     3  O   -0.231838
     4  O   -0.240376
     5  O   -0.213127
     6  O   -0.204002
     7  N   -0.225127
     8  N   -0.208929
     9  N   -0.157980
    10  N   -0.335854
    11  C    0.012522
    12  C    0.250728
    13  C   -0.017695
    14  C    0.044120
    15  C   -0.033042
    16  C    0.105985
    17  C   -0.140389
    18  C    0.010530
    19  C   -0.089018
    20  C   -0.013634
    21  C    0.174790
    22  C    0.129969
    23  C   -0.065324
    24  C   -0.158774
    25  C    0.122846
    26  C   -0.094078
    27  C   -0.031378
    28  C    0.031802
    29  C   -0.046956
    30  C   -0.014705
    31  C    0.026964
    32  C    0.037439
    33  C    0.018485
    34  C    0.162959
    35  C    0.145565
    36  C   -0.001196
    37  C    0.143009
    38  C    0.048322
    39  C   -0.234768
    40  C    0.146059
    41  C   -0.050648
    42  C    0.152445
    43  C   -0.005823
    44  H    0.044124
    45  H    0.009508
    46  H   -0.049309
    47  H    0.180417
    48  H    0.156734
    49  H    0.016303
    50  H    0.027724
    51  H   -0.124657
    52  H    0.034719
    53  H    0.040416
    54  H    0.031411
    55  H   -0.028433
    56  H    0.034206
    57  H    0.060472
    58  H    0.059130
    59  H    0.046464
    60  H    0.230737
    61  H    0.038169
    62  H    0.055833
    63  H    0.021703
    64  H    0.039662
    65  H    0.046551
    66  H    0.042426
    67  H    0.027967
    68  H    0.058656
    69  H   -0.161123
    70  H    0.041623
    71  H   -0.003364
    72  H    0.199842
    73  H   -0.002668
    74  H    0.016236
    75  H    0.019350
    76  H    0.029871
    77  H    0.213275
    78  H   -0.003777
    79  H    0.052212
 Sum of Mulliken charges =  -0.00000

 Dipole moment (field-independent basis, Debye):
    X=              0.1760    Y=              2.0618    Z=              3.0142  Tot=              3.6561
 Quadrupole moment (field-independent basis, Debye-Ang):
   XX=           -224.2375   YY=           -249.2826   ZZ=           -263.5200
   XY=             -8.0535   XZ=             31.8868   YZ=              3.2470

 Normal termination of Gaussian 16 at Mon Sep 30 13:51:13 2019.
