 Gaussian 16, Revision A.03,
 Gaussian 16:  ES64L-G16RevA.03 25-Dec-2016

 --------------------------
 # td=(NStates=1) B3LYP/SVP
 --------------------------

 --
 TD
 --
 Symbolic Z-matrix:
 Charge =  0 Multiplicity = 1

                         Standard orientation:
 ---------------------------------------------------------------------
 Center     Atomic      Atomic             Coordinates (Angstroms)
 Number     Number       Type             X           Y           Z
 ---------------------------------------------------------------------
      1          8           0       -3.382757   -1.109865   -2.992858
      2          8           0        3.391066    2.867371    3.077035
      3          8           0        3.656252    1.152081    4.481036
      4          8           0        7.700057   -1.395156   -0.717203
      5          8           0        6.714358   -2.983150   -2.150762
      6          8           0       -2.574016    1.658555    1.516642
      7          7           0       -0.443887   -2.592754    0.932588
      8          7           0       -2.718383   -1.089772   -0.747911
      9          7           0        1.115756   -0.073396   -0.827728
     10          7           0       -0.956883    1.474742   -0.153472
     11          6           0       -3.457863   -1.267046    0.576314
     12          6           0       -2.808347   -2.360762    1.495074
     13          6           0       -1.328068   -2.065266    1.726412
     14          6           0       -0.745605   -1.334622    2.746020
     15          6           0        0.654579   -1.256155    2.484954
     16          6           0        0.791410   -1.965121    1.290765
     17          6           0       -4.799731   -1.727152    0.126756
     18          6           0        1.734878   -0.513379    3.238632
     19          6           0       -4.811431   -1.881786   -1.236890
     20          6           0        1.958940   -2.002598    0.255892
     21          6           0        2.048265   -1.079886   -0.677070
     22          6           0       -3.556472   -1.266574   -1.769628
     23          6           0        2.954444   -0.662123   -1.776610
     24          6           0       -1.444231   -0.767868    3.949555
     25          6           0       -5.768737   -2.098576    1.150391
     26          6           0        2.542331    0.399836   -2.439068
     27          6           0        1.825987    1.014230    2.836765
     28          6           0        1.411189    0.890170   -1.775125
     29          6           0        4.256079   -1.568254   -2.046563
     30          6           0       -5.931071   -2.315126   -2.126252
     31          6           0        5.425737   -1.162938   -1.152204
     32          6           0        3.248580    1.156566   -3.601285
     33          6           0        0.494770    2.037099   -1.942711
     34          6           0        2.970357    1.693398    3.550467
     35          6           0       -0.595138    2.297661   -1.161981
     36          6           0       -6.922820   -3.002464   -1.816592
     37          6           0        6.677449   -1.957394   -1.466583
     38          6           0       -1.299614    3.571839   -1.149857
     39          6           0       -2.165813    3.501469   -0.079642
     40          6           0       -2.035598    2.098485    0.546372
     41          6           0       -0.928862    4.776423   -1.958442
     42          6           0       -3.168599    4.503741    0.525201
     43          6           0       -1.604053    5.932819   -2.116044
     44          1           0       -3.423940   -0.296202    1.059235
     45          1           0       -2.911523   -3.110103    0.927009
     46          1           0       -3.201035   -2.447230    2.283348
     47          1           0       -0.607341   -3.036646    0.016259
     48          1           0       -2.148078   -0.406433   -0.890571
     49          1           0        1.805134   -0.626730    4.355949
     50          1           0        2.680605   -0.941204    3.231559
     51          1           0        2.687813   -2.829662    0.266419
     52          1           0       -2.295508   -1.517761    4.275716
     53          1           0       -0.641602   -0.483875    4.707842
     54          1           0       -1.899105    0.138271    3.598299
     55          1           0       -5.649112   -1.466619    1.982276
     56          1           0       -5.703813   -3.266731    1.502780
     57          1           0       -6.858624   -1.995810    0.779601
     58          1           0        1.868774    1.000147    1.491239
     59          1           0        0.913223    1.647397    2.880209
     60          1           0        0.269239    0.303073   -0.325985
     61          1           0        4.683968   -1.595972   -3.074818
     62          1           0        4.249955   -2.488318   -1.696105
     63          1           0       -5.680351   -2.024115   -3.137624
     64          1           0        5.025349   -1.541246   -0.135732
     65          1           0        5.621479   -0.053639   -1.391893
     66          1           0        4.232764    0.431821   -3.858326
     67          1           0        3.396869    2.117227   -3.254269
     68          1           0        2.544029    1.019183   -4.619497
     69          1           0        0.794875    2.653025   -2.747445
     70          1           0       -7.142544   -3.383438   -0.799772
     71          1           0       -7.912599   -3.605542   -2.485975
     72          1           0        4.029750    3.131549    3.714716
     73          1           0        0.042901    4.417644   -2.485191
     74          1           0       -3.842926    4.880003   -0.293013
     75          1           0       -3.895768    4.049462    1.251221
     76          1           0       -2.630673    5.385430    0.957646
     77          1           0        8.554493   -2.036516   -0.865573
     78          1           0       -1.239703    6.457616   -3.061773
     79          1           0       -2.470528    6.259664   -1.535354
 ---------------------------------------------------------------------

 SCF Done:  E(RB3LYP) =  -1947.74942211     A.U. after   19 cycles

 Excitation energies and oscillator strengths:

 Excited State   1:      Singlet-A      1.1515 eV 1076.71 nm  f=0.0045  <S**2>=0.000
     155 ->156         0.70445
 This state for optimization and/or second-order correction.
 Total Energy, E(TD-HF/TD-DFT) =  -1947.70710472
 Copying the excited state density for this state as the 1-particle RhoCI density.

 The electronic state is 1-A.
 Alpha  occ. eigenvalues --  -19.20476 -19.18701 -19.15083 -19.12747 -19.12105
 Alpha  occ. eigenvalues --  -19.07890 -14.37296 -14.36483 -14.32875 -14.30395
 Alpha  occ. eigenvalues --  -10.33998 -10.32602 -10.28473 -10.26864 -10.26349
 Alpha  occ. eigenvalues --  -10.25578 -10.24516 -10.23900 -10.23518 -10.23331
 Alpha  occ. eigenvalues --  -10.22800 -10.22795 -10.22682 -10.22256 -10.22049
 Alpha  occ. eigenvalues --  -10.21808 -10.21417 -10.21149 -10.21022 -10.20860
 Alpha  occ. eigenvalues --  -10.20788 -10.20682 -10.20447 -10.20145 -10.19984
 Alpha  occ. eigenvalues --  -10.19440 -10.19167 -10.18605 -10.18232 -10.18100
 Alpha  occ. eigenvalues --  -10.17901 -10.16921 -10.16334  -1.10575  -1.08656
 Alpha  occ. eigenvalues --   -1.04642  -1.01186  -1.00136  -1.00034  -0.97890
 Alpha  occ. eigenvalues --   -0.97703  -0.93259  -0.92597  -0.83607  -0.82975
 Alpha  occ. eigenvalues --   -0.82165  -0.80625  -0.80243  -0.79634  -0.79254
 Alpha  occ. eigenvalues --   -0.77364  -0.76316  -0.75677  -0.74883  -0.72659
 Alpha  occ. eigenvalues --   -0.70900  -0.70671  -0.70278  -0.68612  -0.67744
 Alpha  occ. eigenvalues --   -0.67333  -0.66351  -0.64218  -0.61758  -0.60323
 Alpha  occ. eigenvalues --   -0.59697  -0.59229  -0.58986  -0.57118  -0.56735
 Alpha  occ. eigenvalues --   -0.56571  -0.55946  -0.54571  -0.54489  -0.53096
 Alpha  occ. eigenvalues --   -0.52717  -0.51425  -0.51308  -0.50899  -0.50359
 Alpha  occ. eigenvalues --   -0.49347  -0.49043  -0.48876  -0.48426  -0.48193
 Alpha  occ. eigenvalues --   -0.47491  -0.46770  -0.46479  -0.46314  -0.46173
 Alpha  occ. eigenvalues --   -0.45663  -0.45010  -0.44702  -0.44307  -0.43802
 Alpha  occ. eigenvalues --   -0.43609  -0.43273  -0.43025  -0.42912  -0.42531
 Alpha  occ. eigenvalues --   -0.42387  -0.41939  -0.41678  -0.41439  -0.41296
 Alpha  occ. eigenvalues --   -0.40972  -0.40207  -0.39994  -0.39448  -0.39352
 Alpha  occ. eigenvalues --   -0.38912  -0.38692  -0.38470  -0.38302  -0.38119
 Alpha  occ. eigenvalues --   -0.37998  -0.37751  -0.37628  -0.37118  -0.36724
 Alpha  occ. eigenvalues --   -0.36546  -0.36454  -0.35861  -0.35368  -0.35263
 Alpha  occ. eigenvalues --   -0.34315  -0.33895  -0.31855  -0.31349  -0.31155
 Alpha  occ. eigenvalues --   -0.30844  -0.30383  -0.29948  -0.29768  -0.29636
 Alpha  occ. eigenvalues --   -0.27770  -0.27548  -0.25706  -0.25522  -0.24141
 Alpha  occ. eigenvalues --   -0.23858  -0.23353  -0.23243  -0.22442  -0.19278
 Alpha virt. eigenvalues --   -0.12550  -0.07280  -0.03870  -0.02462  -0.02216
 Alpha virt. eigenvalues --   -0.01580   0.01335   0.01641   0.02163   0.03464
 Alpha virt. eigenvalues --    0.03925   0.04235   0.04754   0.05320   0.05530

 Mulliken charges:
               1
     1  O   -0.274229
     2  O   -0.131409
     3  O   -0.306891
     4  O   -0.251020
     5  O   -0.234435
     6  O   -0.173724
     7  N   -0.024706
     8  N   -0.100495
     9  N   -0.120782
    10  N   -0.357148
    11  C    0.035924
    12  C    0.568521
    13  C   -0.184538
    14  C   -0.166445
    15  C   -0.015289
    16  C   -0.043902
    17  C   -0.184413
    18  C    0.114929
    19  C   -0.064221
    20  C   -0.158427
    21  C    0.227332
    22  C    0.101845
    23  C   -0.049185
    24  C    0.090869
    25  C    0.051497
    26  C   -0.109973
    27  C   -0.104578
    28  C    0.018231
    29  C    0.139770
    30  C    0.089312
    31  C   -0.061320
    32  C    0.035091
    33  C   -0.074728
    34  C    0.179308
    35  C    0.170607
    36  C   -0.110174
    37  C    0.172469
    38  C    0.007056
    39  C   -0.221830
    40  C    0.182614
    41  C   -0.011181
    42  C    0.054584
    43  C   -0.022755
    44  H    0.045575
    45  H   -0.122026
    46  H   -0.147495
    47  H    0.131145
    48  H    0.064746
    49  H    0.015780
    50  H   -0.030383
    51  H    0.013394
    52  H    0.023050
    53  H    0.018463
    54  H    0.022276
    55  H    0.008904
    56  H    0.056135
    57  H    0.043758
    58  H    0.069530
    59  H    0.059572
    60  H    0.178917
    61  H    0.024935
    62  H   -0.046422
    63  H    0.000236
    64  H    0.064672
    65  H    0.054866
    66  H    0.051042
    67  H    0.040102
    68  H    0.070283
    69  H   -0.040423
    70  H    0.008389
    71  H    0.040369
    72  H    0.162832
    73  H    0.010956
    74  H    0.036379
    75  H    0.036897
    76  H    0.044110
    77  H    0.228414
    78  H    0.046524
    79  H    0.032336
 Sum of Mulliken charges =  -0.00000

 Dipole moment (field-independent basis, Debye):
    X=              3.5331    Y=              2.1645    Z=             -0.1632  Tot=              4.1466
 Quadrupole moment (field-independent basis, Debye-Ang):
   XX=           -231.9990   YY=           -235.7283   ZZ=           -274.9753
   XY=              3.0910   XZ=            -24.6931   YZ=            -12.1630

 Normal termination of Gaussian 16 at Sat Jul 27 14:33:59 2019.
