 Gaussian 16, Revision A.03,
 Gaussian 16:  ES64L-G16RevA.03 25-Dec-2016

 --------------------------
 # td=(NStates=1) B3LYP/SVP
 --------------------------

 --
 TD
 --
 Symbolic Z-matrix:
 Charge =  0 Multiplicity = 1

                         Standard orientation:
 ---------------------------------------------------------------------
 Center     Atomic      Atomic             Coordinates (Angstroms)
 Number     Number       Type             X           Y           Z
 ---------------------------------------------------------------------
      1          8           0       -3.263584   -1.167983   -3.044527
      2          8           0        2.856527    2.738727    3.430856
      3          8           0        3.665829    0.891517    4.339007
      4          8           0        7.776355   -1.561853   -0.933292
      5          8           0        6.475178   -2.910974   -2.185941
      6          8           0       -2.638328    1.378612    1.655707
      7          7           0       -0.288977   -2.476454    0.601005
      8          7           0       -2.694364   -1.144682   -0.723031
      9          7           0        1.130090    0.120478   -0.691446
     10          7           0       -0.982991    1.470002   -0.122186
     11          6           0       -3.392486   -1.385002    0.448173
     12          6           0       -2.653637   -2.417111    1.376684
     13          6           0       -1.140021   -2.234187    1.631558
     14          6           0       -0.462634   -1.702717    2.626889
     15          6           0        0.913362   -1.439300    2.234576
     16          6           0        0.962387   -1.995400    0.895239
     17          6           0       -4.721460   -1.858782   -0.012248
     18          6           0        1.878235   -0.765686    3.073140
     19          6           0       -4.779295   -1.866240   -1.287521
     20          6           0        2.121980   -1.866511    0.115490
     21          6           0        2.119938   -0.797613   -0.726930
     22          6           0       -3.606783   -1.385769   -1.844413
     23          6           0        3.111678   -0.387465   -1.836433
     24          6           0       -1.108585   -1.108678    3.926601
     25          6           0       -5.884250   -2.185779    0.969821
     26          6           0        2.615209    0.866107   -2.347406
     27          6           0        1.903022    0.633806    2.667725
     28          6           0        1.342363    1.239972   -1.501273
     29          6           0        4.317427   -1.016087   -2.195931
     30          6           0       -5.809079   -2.246348   -2.197877
     31          6           0        5.601026   -0.784586   -1.339985
     32          6           0        3.199383    1.676800   -3.438610
     33          6           0        0.557048    2.286543   -1.740132
     34          6           0        2.908169    1.386529    3.545484
     35          6           0       -0.573496    2.466179   -0.864212
     36          6           0       -6.942627   -2.940773   -2.001271
     37          6           0        6.579422   -1.839621   -1.557369
     38          6           0       -1.417366    3.632750   -0.800581
     39          6           0       -2.396026    3.288153    0.164643
     40          6           0       -2.070916    2.002048    0.723586
     41          6           0       -1.259289    4.752177   -1.549277
     42          6           0       -3.457928    4.141217    0.734518
     43          6           0       -1.979509    5.909886   -1.684716
     44          1           0       -3.576500   -0.448232    1.255997
     45          1           0       -2.808487   -3.389442    1.106375
     46          1           0       -3.168156   -2.387771    2.300994
     47          1           0       -0.514558   -2.993399   -0.306951
     48          1           0       -2.092493   -0.381999   -0.676821
     49          1           0        1.832468   -0.995771    4.173156
     50          1           0        2.912069   -1.264608    2.845964
     51          1           0        2.822976   -2.445704    0.160358
     52          1           0       -1.632628   -1.922748    4.459862
     53          1           0       -0.409802   -0.690745    4.657626
     54          1           0       -1.801385   -0.304083    3.521554
     55          1           0       -5.568701   -1.631740    1.867201
     56          1           0       -6.010325   -3.291949    1.123979
     57          1           0       -6.701787   -1.554006    0.606165
     58          1           0        2.262753    0.681738    1.658921
     59          1           0        0.952748    1.354609    2.587853
     60          1           0        0.185492    0.196872   -0.096627
     61          1           0        4.396832   -0.905474   -3.207193
     62          1           0        4.010714   -2.070799   -2.203591
     63          1           0       -5.656550   -1.792532   -3.230383
     64          1           0        5.194833   -1.141562   -0.208124
     65          1           0        5.895500    0.283761   -1.261863
     66          1           0        3.953459    1.121030   -4.099317
     67          1           0        3.330724    2.848800   -2.984747
     68          1           0        2.484893    1.983600   -4.214739
     69          1           0        0.705931    3.270043   -2.315511
     70          1           0       -7.420086   -3.380707   -1.040171
     71          1           0       -7.440149   -3.340712   -2.838241
     72          1           0        3.410021    3.037876    4.037995
     73          1           0       -0.208117    4.937149   -2.254737
     74          1           0       -4.214770    4.328498   -0.105073
     75          1           0       -4.129345    3.328730    1.452268
     76          1           0       -3.003169    5.068467    1.264691
     77          1           0        8.570511   -2.041045   -1.115242
     78          1           0       -1.467506    6.743115   -2.312119
     79          1           0       -3.071091    6.109906   -1.402020
 ---------------------------------------------------------------------

 SCF Done:  E(RB3LYP) =  -1947.77312837     A.U. after   19 cycles

 Excitation energies and oscillator strengths:

 Excited State   1:      Singlet-A      0.9706 eV 1277.36 nm  f=0.0020  <S**2>=0.000
     155 ->156         0.70285
 This state for optimization and/or second-order correction.
 Total Energy, E(TD-HF/TD-DFT) =  -1947.73745853
 Copying the excited state density for this state as the 1-particle RhoCI density.

 The electronic state is 1-A.
 Alpha  occ. eigenvalues --  -19.17289 -19.16618 -19.14178 -19.12979 -19.11999
 Alpha  occ. eigenvalues --  -19.08956 -14.36922 -14.36520 -14.31909 -14.31577
 Alpha  occ. eigenvalues --  -10.33568 -10.31050 -10.29609 -10.26948 -10.26455
 Alpha  occ. eigenvalues --  -10.24896 -10.24687 -10.24198 -10.23499 -10.23066
 Alpha  occ. eigenvalues --  -10.22882 -10.22818 -10.22254 -10.22239 -10.22221
 Alpha  occ. eigenvalues --  -10.22161 -10.21966 -10.20910 -10.20241 -10.20233
 Alpha  occ. eigenvalues --  -10.20151 -10.20090 -10.20013 -10.19108 -10.19103
 Alpha  occ. eigenvalues --  -10.18932 -10.18792 -10.18652 -10.18185 -10.17361
 Alpha  occ. eigenvalues --  -10.17273 -10.16442 -10.15581  -1.10597  -1.08156
 Alpha  occ. eigenvalues --   -1.02704  -1.00616  -0.99175  -0.99173  -0.98035
 Alpha  occ. eigenvalues --   -0.96223  -0.94693  -0.92866  -0.83987  -0.83184
 Alpha  occ. eigenvalues --   -0.82486  -0.82396  -0.81068  -0.78878  -0.78448
 Alpha  occ. eigenvalues --   -0.76914  -0.76083  -0.75534  -0.74217  -0.73599
 Alpha  occ. eigenvalues --   -0.71896  -0.71422  -0.69528  -0.68613  -0.67188
 Alpha  occ. eigenvalues --   -0.66433  -0.65833  -0.63851  -0.62391  -0.62145
 Alpha  occ. eigenvalues --   -0.60318  -0.59828  -0.59608  -0.57704  -0.56695
 Alpha  occ. eigenvalues --   -0.56071  -0.55739  -0.53920  -0.53305  -0.53239
 Alpha  occ. eigenvalues --   -0.52239  -0.51641  -0.51058  -0.50354  -0.50273
 Alpha  occ. eigenvalues --   -0.49340  -0.48895  -0.48750  -0.47746  -0.47263
 Alpha  occ. eigenvalues --   -0.47125  -0.46722  -0.46544  -0.46306  -0.46188
 Alpha  occ. eigenvalues --   -0.45672  -0.44919  -0.44602  -0.44065  -0.43916
 Alpha  occ. eigenvalues --   -0.43499  -0.43366  -0.42862  -0.42540  -0.42074
 Alpha  occ. eigenvalues --   -0.41952  -0.41562  -0.41279  -0.40711  -0.40667
 Alpha  occ. eigenvalues --   -0.40502  -0.40268  -0.40080  -0.39659  -0.39078
 Alpha  occ. eigenvalues --   -0.38954  -0.38773  -0.38093  -0.37829  -0.37753
 Alpha  occ. eigenvalues --   -0.37628  -0.37416  -0.37198  -0.36682  -0.36224
 Alpha  occ. eigenvalues --   -0.36025  -0.35812  -0.34997  -0.34556  -0.34276
 Alpha  occ. eigenvalues --   -0.33750  -0.33218  -0.32701  -0.32026  -0.32019
 Alpha  occ. eigenvalues --   -0.30934  -0.30387  -0.30030  -0.28703  -0.28271
 Alpha  occ. eigenvalues --   -0.27752  -0.26673  -0.25268  -0.24676  -0.23939
 Alpha  occ. eigenvalues --   -0.23873  -0.23480  -0.22129  -0.21666  -0.19272
 Alpha virt. eigenvalues --   -0.13476  -0.07721  -0.04766  -0.02585  -0.02264
 Alpha virt. eigenvalues --    0.00992   0.01096   0.01148   0.02164   0.03183
 Alpha virt. eigenvalues --    0.03409   0.04216   0.04394   0.05033   0.05336

 Mulliken charges:
               1
     1  O   -0.268473
     2  O   -0.125467
     3  O   -0.224349
     4  O   -0.217070
     5  O   -0.242820
     6  O   -0.222430
     7  N   -0.062174
     8  N   -0.177362
     9  N   -0.144192
    10  N   -0.358242
    11  C   -0.036922
    12  C    0.302803
    13  C   -0.106712
    14  C   -0.127914
    15  C   -0.119317
    16  C    0.009338
    17  C   -0.205207
    18  C    0.103890
    19  C    0.026825
    20  C   -0.027027
    21  C    0.119269
    22  C    0.149327
    23  C   -0.119326
    24  C    0.062685
    25  C    0.117275
    26  C   -0.115512
    27  C   -0.011983
    28  C    0.200543
    29  C    0.165141
    30  C   -0.019836
    31  C   -0.009281
    32  C    0.040735
    33  C   -0.106283
    34  C    0.102992
    35  C    0.030535
    36  C   -0.060100
    37  C    0.167821
    38  C    0.185518
    39  C   -0.191174
    40  C    0.228324
    41  C   -0.149490
    42  C   -0.007520
    43  C   -0.091517
    44  H    0.083483
    45  H   -0.064628
    46  H   -0.048508
    47  H    0.142190
    48  H    0.112783
    49  H    0.027399
    50  H    0.003998
    51  H   -0.135293
    52  H    0.008450
    53  H   -0.002138
    54  H    0.049586
    55  H    0.005493
    56  H    0.060208
    57  H    0.033263
    58  H    0.024280
    59  H    0.063686
    60  H    0.248266
    61  H   -0.027739
    62  H    0.011083
    63  H    0.028299
    64  H    0.082574
    65  H    0.060013
    66  H    0.043175
    67  H    0.044531
    68  H    0.022755
    69  H    0.000168
    70  H    0.025532
    71  H    0.009833
    72  H    0.115356
    73  H    0.046769
    74  H    0.047159
    75  H    0.057497
    76  H    0.072965
    77  H    0.180073
    78  H    0.050081
    79  H    0.052034
 Sum of Mulliken charges =  -0.00000

 Dipole moment (field-independent basis, Debye):
    X=              1.5153    Y=              4.7254    Z=             -0.9832  Tot=              5.0589
 Quadrupole moment (field-independent basis, Debye-Ang):
   XX=           -229.9639   YY=           -231.3353   ZZ=           -271.6989
   XY=              7.6084   XZ=            -20.8797   YZ=            -13.7335

 Normal termination of Gaussian 16 at Sun Jul 28 17:19:46 2019.
