 Gaussian 16, Revision A.03,
 Gaussian 16:  ES64L-G16RevA.03 25-Dec-2016

 --------------------------
 # td=(NStates=1) B3LYP/SVP
 --------------------------

 --
 TD
 --
 Symbolic Z-matrix:
 Charge =  0 Multiplicity = 1

                         Standard orientation:
 ---------------------------------------------------------------------
 Center     Atomic      Atomic             Coordinates (Angstroms)
 Number     Number       Type             X           Y           Z
 ---------------------------------------------------------------------
      1          8           0       -3.222446   -1.507929   -2.852209
      2          8           0        3.142883    3.147977    3.143011
      3          8           0        3.713534    1.304596    4.358010
      4          8           0        7.648222   -1.526372   -0.658572
      5          8           0        6.661362   -2.934920   -2.087129
      6          8           0       -2.724247    1.628049    1.504868
      7          7           0       -0.197007   -2.446135    0.825378
      8          7           0       -2.618596   -1.260986   -0.789658
      9          7           0        1.314213    0.179581   -0.671939
     10          7           0       -1.030635    1.531594   -0.142859
     11          6           0       -3.274689   -1.415485    0.595528
     12          6           0       -2.569812   -2.460009    1.595984
     13          6           0       -1.163673   -2.134228    1.688418
     14          6           0       -0.550351   -1.313339    2.704553
     15          6           0        0.781525   -1.195375    2.369434
     16          6           0        1.049470   -1.905915    1.079686
     17          6           0       -4.640089   -1.872796    0.232206
     18          6           0        1.863432   -0.400891    3.200078
     19          6           0       -4.706344   -2.111820   -1.053389
     20          6           0        2.142050   -1.888712    0.233358
     21          6           0        2.171047   -0.871901   -0.747462
     22          6           0       -3.502794   -1.543979   -1.731135
     23          6           0        3.006425   -0.540251   -1.885488
     24          6           0       -1.245903   -0.681190    3.864029
     25          6           0       -5.692252   -2.221745    1.328695
     26          6           0        2.555603    0.588846   -2.462772
     27          6           0        2.015934    1.034419    2.740859
     28          6           0        1.397408    1.098390   -1.766117
     29          6           0        4.155390   -1.376269   -2.068454
     30          6           0       -5.838753   -2.543364   -1.918241
     31          6           0        5.432485   -1.062837   -1.143189
     32          6           0        3.074138    1.241869   -3.756244
     33          6           0        0.413149    2.070624   -1.942217
     34          6           0        3.032208    1.870919    3.524042
     35          6           0       -0.660253    2.340746   -1.153991
     36          6           0       -6.963646   -3.219220   -1.523595
     37          6           0        6.708171   -1.978119   -1.400008
     38          6           0       -1.554503    3.555205   -1.157748
     39          6           0       -2.442985    3.375912   -0.131512
     40          6           0       -2.069140    2.053987    0.510660
     41          6           0       -1.288469    4.623080   -2.070950
     42          6           0       -3.642835    4.276924    0.351316
     43          6           0       -2.263481    5.653664   -2.150475
     44          1           0       -3.482194   -0.470857    1.111368
     45          1           0       -2.623688   -3.411680    1.018752
     46          1           0       -3.173064   -2.390974    2.368461
     47          1           0       -0.463319   -2.922684   -0.069144
     48          1           0       -2.038083   -0.314485   -0.674382
     49          1           0        1.506318   -0.327572    4.169650
     50          1           0        2.972169   -0.854183    3.133998
     51          1           0        2.853428   -2.749318    0.119691
     52          1           0       -1.905610   -1.118544    4.392500
     53          1           0       -0.532174   -0.269074    4.434826
     54          1           0       -1.785827    0.188240    3.337773
     55          1           0       -5.687859   -1.453684    2.219947
     56          1           0       -5.565109   -3.195233    1.712935
     57          1           0       -6.754551   -2.062009    0.904310
     58          1           0        2.478844    1.260211    1.699133
     59          1           0        1.020158    1.340889    2.742758
     60          1           0        0.664309    0.515040   -0.026719
     61          1           0        4.626288   -1.146818   -3.040450
     62          1           0        4.080485   -2.466063   -1.993401
     63          1           0       -5.606889   -2.228862   -2.940830
     64          1           0        4.920376   -1.243412   -0.195884
     65          1           0        5.822217   -0.018065   -1.322868
     66          1           0        4.390990    1.130124   -3.630305
     67          1           0        2.737874    2.535532   -3.845218
     68          1           0        2.642049    0.587363   -4.720721
     69          1           0        0.658114    2.853591   -2.815745
     70          1           0       -7.115159   -3.684694   -0.533800
     71          1           0       -7.716148   -3.396633   -2.291093
     72          1           0        3.819952    3.791082    3.601420
     73          1           0       -0.483793    4.639180   -2.807828
     74          1           0       -4.456285    4.364051   -0.477594
     75          1           0       -4.257139    3.723970    1.009640
     76          1           0       -3.318205    5.338251    0.735026
     77          1           0        8.508748   -2.131464   -0.541270
     78          1           0       -2.089340    6.486597   -2.811365
     79          1           0       -3.048939    5.899764   -1.519009
 ---------------------------------------------------------------------

 SCF Done:  E(RB3LYP) =  -1947.79182295     A.U. after   20 cycles

 Excitation energies and oscillator strengths:

 Excited State   1:      Singlet-A      0.6206 eV 1997.70 nm  f=0.0050  <S**2>=0.000
     155 ->156         0.70376
 This state for optimization and/or second-order correction.
 Total Energy, E(TD-HF/TD-DFT) =  -1947.76901503
 Copying the excited state density for this state as the 1-particle RhoCI density.

 The electronic state is 1-A.
 Alpha  occ. eigenvalues --  -19.21212 -19.18502 -19.13678 -19.11361 -19.11204
 Alpha  occ. eigenvalues --  -19.07574 -14.37585 -14.36811 -14.32046 -14.30678
 Alpha  occ. eigenvalues --  -10.33339 -10.31394 -10.27692 -10.27281 -10.26404
 Alpha  occ. eigenvalues --  -10.25606 -10.25241 -10.25061 -10.22995 -10.22969
 Alpha  occ. eigenvalues --  -10.22409 -10.22182 -10.22020 -10.21906 -10.21148
 Alpha  occ. eigenvalues --  -10.21044 -10.21004 -10.20852 -10.20615 -10.20462
 Alpha  occ. eigenvalues --  -10.20206 -10.20083 -10.19899 -10.19261 -10.19184
 Alpha  occ. eigenvalues --  -10.19105 -10.18789 -10.18777 -10.18266 -10.17637
 Alpha  occ. eigenvalues --  -10.17022 -10.16397 -10.15171  -1.12746  -1.07975
 Alpha  occ. eigenvalues --   -1.03805  -1.03785  -1.00831  -0.99689  -0.99422
 Alpha  occ. eigenvalues --   -0.96976  -0.94047  -0.91200  -0.84221  -0.82874
 Alpha  occ. eigenvalues --   -0.81057  -0.79827  -0.79572  -0.79177  -0.78181
 Alpha  occ. eigenvalues --   -0.76684  -0.75859  -0.74350  -0.73529  -0.72496
 Alpha  occ. eigenvalues --   -0.70076  -0.69785  -0.69134  -0.68803  -0.67839
 Alpha  occ. eigenvalues --   -0.66761  -0.66109  -0.63714  -0.63000  -0.61746
 Alpha  occ. eigenvalues --   -0.60548  -0.59637  -0.58799  -0.57534  -0.56745
 Alpha  occ. eigenvalues --   -0.55080  -0.54831  -0.54541  -0.53778  -0.53139
 Alpha  occ. eigenvalues --   -0.52539  -0.51491  -0.50919  -0.50672  -0.49986
 Alpha  occ. eigenvalues --   -0.49567  -0.49147  -0.48745  -0.48067  -0.47439
 Alpha  occ. eigenvalues --   -0.46888  -0.46266  -0.46113  -0.45967  -0.45784
 Alpha  occ. eigenvalues --   -0.45157  -0.44807  -0.44598  -0.44328  -0.43713
 Alpha  occ. eigenvalues --   -0.43298  -0.43111  -0.42635  -0.42129  -0.42012
 Alpha  occ. eigenvalues --   -0.41918  -0.41548  -0.41177  -0.40897  -0.40603
 Alpha  occ. eigenvalues --   -0.40183  -0.39862  -0.39793  -0.39062  -0.38970
 Alpha  occ. eigenvalues --   -0.38473  -0.38418  -0.38345  -0.37894  -0.37698
 Alpha  occ. eigenvalues --   -0.37354  -0.37211  -0.36702  -0.36508  -0.35851
 Alpha  occ. eigenvalues --   -0.35685  -0.35506  -0.35397  -0.34968  -0.34787
 Alpha  occ. eigenvalues --   -0.34569  -0.33152  -0.32991  -0.31868  -0.31712
 Alpha  occ. eigenvalues --   -0.31348  -0.29918  -0.29074  -0.28790  -0.28438
 Alpha  occ. eigenvalues --   -0.26753  -0.26389  -0.25118  -0.24896  -0.23711
 Alpha  occ. eigenvalues --   -0.23280  -0.22723  -0.22486  -0.22441  -0.18258
 Alpha virt. eigenvalues --   -0.13374  -0.07845  -0.03242  -0.02760  -0.00291
 Alpha virt. eigenvalues --    0.00141   0.01191   0.01564   0.01688   0.02501
 Alpha virt. eigenvalues --    0.02841   0.03238   0.03635   0.04393   0.05446

 Mulliken charges:
               1
     1  O   -0.164801
     2  O   -0.228246
     3  O   -0.235554
     4  O   -0.172898
     5  O   -0.186709
     6  O   -0.254911
     7  N   -0.013157
     8  N   -0.230310
     9  N   -0.083136
    10  N   -0.268386
    11  C    0.010368
    12  C    0.347839
    13  C   -0.143849
    14  C   -0.148016
    15  C   -0.143672
    16  C    0.044803
    17  C   -0.192230
    18  C    0.142496
    19  C   -0.101447
    20  C   -0.112205
    21  C    0.085182
    22  C    0.091231
    23  C    0.007382
    24  C    0.253935
    25  C    0.034218
    26  C   -0.072458
    27  C   -0.049788
    28  C    0.082517
    29  C    0.050986
    30  C    0.006568
    31  C   -0.074994
    32  C   -0.109017
    33  C   -0.075106
    34  C    0.155318
    35  C    0.074021
    36  C   -0.033697
    37  C    0.127548
    38  C    0.103413
    39  C   -0.195692
    40  C    0.166142
    41  C   -0.050944
    42  C    0.068478
    43  C    0.007179
    44  H    0.045538
    45  H   -0.027286
    46  H   -0.068836
    47  H    0.125177
    48  H    0.185991
    49  H   -0.014740
    50  H    0.019350
    51  H    0.015786
    52  H   -0.053686
    53  H   -0.059587
    54  H    0.036773
    55  H    0.028092
    56  H    0.034599
    57  H    0.043509
    58  H    0.036568
    59  H    0.023913
    60  H    0.137100
    61  H   -0.002164
    62  H    0.033159
    63  H    0.007230
    64  H    0.041507
    65  H    0.040340
    66  H    0.062337
    67  H    0.068521
    68  H    0.093122
    69  H    0.013388
    70  H    0.026427
    71  H    0.019747
    72  H    0.225048
    73  H    0.001745
    74  H    0.034207
    75  H    0.005019
    76  H    0.060201
    77  H    0.232710
    78  H    0.009357
    79  H    0.001434
 Sum of Mulliken charges =  -0.00000

 Dipole moment (field-independent basis, Debye):
    X=              4.9122    Y=              3.5752    Z=             -0.6030  Tot=              6.1053
 Quadrupole moment (field-independent basis, Debye-Ang):
   XX=           -218.2060   YY=           -232.1385   ZZ=           -271.7955
   XY=              3.1894   XZ=            -18.2567   YZ=            -12.9131

 Normal termination of Gaussian 16 at Sat Jul 27 12:19:15 2019.
