 Gaussian 16, Revision A.03,
 Gaussian 16:  ES64L-G16RevA.03 25-Dec-2016

 --------------------------
 # td=(NStates=1) B3LYP/SVP
 --------------------------

 --
 TD
 --
 Symbolic Z-matrix:
 Charge =  0 Multiplicity = 1

                         Standard orientation:
 ---------------------------------------------------------------------
 Center     Atomic      Atomic             Coordinates (Angstroms)
 Number     Number       Type             X           Y           Z
 ---------------------------------------------------------------------
      1          8           0        5.492997   -0.064991   -3.294484
      2          8           0       -3.212297   -2.815710    3.148344
      3          8           0       -3.467075   -0.579642    2.994102
      4          8           0       -1.677732    7.120803    1.434075
      5          8           0       -0.429604    7.075789   -0.494251
      6          8           0       -1.758960   -4.018679    0.002055
      7          7           0        2.348903    0.849813    0.691905
      8          7           0        4.493952   -0.593342   -1.260787
      9          7           0       -1.833929    0.800360   -0.356284
     10          7           0       -2.584864   -1.895315   -0.601345
     11          6           0        4.853947   -1.265988   -0.062252
     12          6           0        4.314872   -0.479839    1.184125
     13          6           0        2.915741   -0.133860    1.335693
     14          6           0        1.880689   -0.712354    2.118017
     15          6           0        0.655216   -0.050966    1.834495
     16          6           0        0.971818    0.928778    0.888941
     17          6           0        6.291676   -1.418128   -0.141913
     18          6           0       -0.729441   -0.200927    2.470178
     19          6           0        6.760394   -0.880705   -1.348711
     20          6           0        0.216767    1.881115    0.202544
     21          6           0       -1.075203    1.823991   -0.252391
     22          6           0        5.502963   -0.415035   -2.135252
     23          6           0       -1.925075    2.945581   -0.816113
     24          6           0        1.980736   -1.846929    3.152285
     25          6           0        7.120188   -1.897856    1.059963
     26          6           0       -3.093992    2.353324   -1.269504
     27          6           0       -1.254225   -1.623488    2.412532
     28          6           0       -3.091542    0.933068   -0.872742
     29          6           0       -1.371145    4.275103   -0.921379
     30          6           0        8.065185   -0.769539   -1.902457
     31          6           0       -1.711060    5.088912    0.324495
     32          6           0       -4.135657    3.113322   -1.963429
     33          6           0       -3.963590   -0.049332   -1.217668
     34          6           0       -2.751378   -1.614876    2.915687
     35          6           0       -3.664344   -1.437998   -1.115927
     36          6           0        9.210920   -0.865333   -1.205588
     37          6           0       -1.207206    6.496066    0.297292
     38          6           0       -4.598769   -2.518643   -1.519228
     39          6           0       -3.917519   -3.761151   -1.047112
     40          6           0       -2.663254   -3.303365   -0.567013
     41          6           0       -5.959504   -2.417393   -2.085773
     42          6           0       -4.221506   -5.118822   -1.282699
     43          6           0       -6.742279   -3.435075   -2.484556
     44          1           0        4.351415   -2.250100   -0.233102
     45          1           0        4.889943    0.522996    1.060276
     46          1           0        4.558586   -1.341956    2.022109
     47          1           0        2.676867    1.314953   -0.416707
     48          1           0        3.642870   -0.621468   -1.619691
     49          1           0       -0.431386   -0.011223    3.659546
     50          1           0       -1.539596    0.575464    2.123600
     51          1           0        0.629461    2.918985   -0.108327
     52          1           0        3.008627   -2.033192    3.538727
     53          1           0        1.457071   -1.439644    4.022951
     54          1           0        1.707851   -2.907898    2.871763
     55          1           0        6.618438   -2.643546    1.614302
     56          1           0        7.449001   -0.998440    1.697345
     57          1           0        8.006276   -2.439622    0.720786
     58          1           0       -1.290111   -1.963046    1.454920
     59          1           0       -0.811576   -2.351482    3.132919
     60          1           0       -1.548475   -0.147496   -0.120935
     61          1           0       -1.834570    4.848240   -1.687971
     62          1           0       -0.370590    4.183874   -1.115777
     63          1           0        8.050244   -0.369169   -3.003825
     64          1           0       -1.236050    4.467946    1.154414
     65          1           0       -2.777886    5.031678    0.418683
     66          1           0       -3.808412    4.131669   -2.367307
     67          1           0       -4.991044    3.439397   -1.255125
     68          1           0       -4.392776    2.622426   -2.926734
     69          1           0       -4.907933    0.206807   -1.848504
     70          1           0        9.108647   -0.810301   -0.142719
     71          1           0       10.109094   -0.741791   -1.707786
     72          1           0       -4.148134   -2.531092    3.398314
     73          1           0       -6.424459   -1.345965   -2.161987
     74          1           0       -5.342147   -5.612619   -0.818357
     75          1           0       -4.059123   -5.510996   -2.411773
     76          1           0       -3.555801   -5.707662   -0.739534
     77          1           0       -1.098872    7.865667    1.488047
     78          1           0       -7.656660   -3.362970   -2.971538
     79          1           0       -6.572378   -4.589566   -2.261391
 ---------------------------------------------------------------------

 SCF Done:  E(RB3LYP) =  -1947.85657624     A.U. after   21 cycles

 Excitation energies and oscillator strengths:

 Excited State   1:      Singlet-A      1.8135 eV  683.67 nm  f=0.3912  <S**2>=0.000
     154 ->156         0.20283
     155 ->156         0.68073
     155 <-156        -0.12863
 This state for optimization and/or second-order correction.
 Total Energy, E(TD-HF/TD-DFT) =  -1947.78993123
 Copying the excited state density for this state as the 1-particle RhoCI density.

 The electronic state is 1-A.
 Alpha  occ. eigenvalues --  -19.19061 -19.18705 -19.14412 -19.11428 -19.10344
 Alpha  occ. eigenvalues --  -19.10320 -14.39650 -14.36959 -14.35433 -14.28960
 Alpha  occ. eigenvalues --  -10.33644 -10.31156 -10.28646 -10.26295 -10.25211
 Alpha  occ. eigenvalues --  -10.24949 -10.23773 -10.23733 -10.23487 -10.23157
 Alpha  occ. eigenvalues --  -10.22699 -10.22249 -10.21872 -10.21847 -10.21703
 Alpha  occ. eigenvalues --  -10.21625 -10.21227 -10.21208 -10.21042 -10.20948
 Alpha  occ. eigenvalues --  -10.20862 -10.20428 -10.20289 -10.20100 -10.20068
 Alpha  occ. eigenvalues --  -10.20044 -10.20032 -10.19915 -10.19875 -10.19810
 Alpha  occ. eigenvalues --  -10.19559 -10.18874 -10.18625  -1.10435  -1.09779
 Alpha  occ. eigenvalues --   -1.03537  -1.01134  -1.00237  -0.99842  -0.98791
 Alpha  occ. eigenvalues --   -0.97669  -0.96708  -0.92498  -0.84233  -0.83106
 Alpha  occ. eigenvalues --   -0.82766  -0.80861  -0.80269  -0.79914  -0.78630
 Alpha  occ. eigenvalues --   -0.77920  -0.76389  -0.76040  -0.75215  -0.72925
 Alpha  occ. eigenvalues --   -0.72103  -0.71398  -0.69908  -0.69372  -0.69107
 Alpha  occ. eigenvalues --   -0.67321  -0.65935  -0.64705  -0.62744  -0.61494
 Alpha  occ. eigenvalues --   -0.60248  -0.58838  -0.58516  -0.58240  -0.57595
 Alpha  occ. eigenvalues --   -0.56719  -0.55506  -0.55119  -0.54641  -0.53460
 Alpha  occ. eigenvalues --   -0.52911  -0.52181  -0.51676  -0.50937  -0.50562
 Alpha  occ. eigenvalues --   -0.49203  -0.49087  -0.48843  -0.48759  -0.48319
 Alpha  occ. eigenvalues --   -0.47764  -0.47172  -0.47002  -0.46228  -0.45736
 Alpha  occ. eigenvalues --   -0.45133  -0.44973  -0.44562  -0.44086  -0.43768
 Alpha  occ. eigenvalues --   -0.43367  -0.43287  -0.43217  -0.43077  -0.42791
 Alpha  occ. eigenvalues --   -0.42626  -0.42457  -0.42026  -0.41666  -0.41410
 Alpha  occ. eigenvalues --   -0.41082  -0.40528  -0.40397  -0.40356  -0.40017
 Alpha  occ. eigenvalues --   -0.39689  -0.39608  -0.39379  -0.38887  -0.38300
 Alpha  occ. eigenvalues --   -0.38230  -0.37655  -0.37615  -0.37177  -0.36994
 Alpha  occ. eigenvalues --   -0.36584  -0.36075  -0.35352  -0.35075  -0.34556
 Alpha  occ. eigenvalues --   -0.33949  -0.33698  -0.33033  -0.32564  -0.32236
 Alpha  occ. eigenvalues --   -0.30981  -0.30886  -0.29566  -0.29155  -0.27349
 Alpha  occ. eigenvalues --   -0.27120  -0.26807  -0.25927  -0.25649  -0.25299
 Alpha  occ. eigenvalues --   -0.24350  -0.24131  -0.23608  -0.21784  -0.18784
 Alpha virt. eigenvalues --   -0.11833  -0.07212  -0.06403  -0.02704  -0.01978
 Alpha virt. eigenvalues --   -0.00669   0.00686   0.01145   0.01341   0.02731
 Alpha virt. eigenvalues --    0.03141   0.04205   0.04280   0.05225   0.05528

 Mulliken charges:
               1
     1  O   -0.215092
     2  O   -0.136627
     3  O   -0.302821
     4  O   -0.177502
     5  O   -0.252190
     6  O   -0.266397
     7  N   -0.111550
     8  N   -0.117685
     9  N    0.029860
    10  N   -0.228714
    11  C    0.116733
    12  C    0.116045
    13  C   -0.056071
    14  C   -0.142905
    15  C   -0.032931
    16  C    0.083617
    17  C   -0.204718
    18  C   -0.038591
    19  C   -0.067755
    20  C   -0.110378
    21  C   -0.047633
    22  C    0.114573
    23  C   -0.110058
    24  C    0.066263
    25  C    0.098256
    26  C   -0.131266
    27  C    0.065482
    28  C    0.145173
    29  C    0.179578
    30  C   -0.068344
    31  C   -0.016225
    32  C    0.043889
    33  C   -0.130594
    34  C    0.120717
    35  C    0.044407
    36  C    0.026842
    37  C    0.178210
    38  C    0.010751
    39  C   -0.114834
    40  C    0.167030
    41  C   -0.024819
    42  C   -0.003742
    43  C   -0.043863
    44  H    0.022478
    45  H    0.016280
    46  H    0.032993
    47  H    0.192602
    48  H    0.076175
    49  H    0.026726
    50  H    0.069645
    51  H    0.004378
    52  H   -0.010552
    53  H    0.016583
    54  H    0.055041
    55  H    0.002330
    56  H    0.060773
    57  H    0.027640
    58  H    0.038891
    59  H    0.033823
    60  H    0.134421
    61  H   -0.016888
    62  H   -0.010445
    63  H    0.038261
    64  H    0.059400
    65  H    0.034678
    66  H    0.009818
    67  H    0.050775
    68  H    0.031673
    69  H    0.011565
    70  H    0.010974
    71  H    0.009276
    72  H    0.185021
    73  H    0.022010
    74  H    0.039344
    75  H    0.057271
    76  H    0.002495
    77  H    0.162202
    78  H    0.004987
    79  H    0.043238
 Sum of Mulliken charges =  -0.00000

 Dipole moment (field-independent basis, Debye):
    X=             -0.0012    Y=              1.1434    Z=              2.7235  Tot=              2.9538
 Quadrupole moment (field-independent basis, Debye-Ang):
   XX=           -225.0255   YY=           -255.7846   ZZ=           -262.1712
   XY=             -7.4583   XZ=             33.4109   YZ=              2.0985

 Normal termination of Gaussian 16 at Tue Oct  1 23:55:40 2019.
