 Gaussian 16, Revision A.03,
 Gaussian 16:  ES64L-G16RevA.03 25-Dec-2016

 --------------------------
 # td=(NStates=1) B3LYP/SVP
 --------------------------

 --
 TD
 --
 Symbolic Z-matrix:
 Charge =  0 Multiplicity = 1

                         Standard orientation:
 ---------------------------------------------------------------------
 Center     Atomic      Atomic             Coordinates (Angstroms)
 Number     Number       Type             X           Y           Z
 ---------------------------------------------------------------------
      1          8           0       -3.303818   -0.402554   -2.928231
      2          8           0        3.304391    2.187439    3.508169
      3          8           0        3.680665    0.191853    4.703543
      4          8           0        7.691108   -1.352323   -0.950249
      5          8           0        6.664086   -2.225595   -2.846827
      6          8           0       -2.654031    1.336789    1.911617
      7          7           0       -0.101895   -2.599527    0.210255
      8          7           0       -2.668433   -1.052367   -0.788927
      9          7           0        1.054347    0.131664   -0.831855
     10          7           0       -1.194320    1.377790    0.185765
     11          6           0       -3.389693   -1.678637    0.377694
     12          6           0       -2.558244   -2.853733    0.908917
     13          6           0       -1.137258   -2.408362    1.157458
     14          6           0       -0.539025   -1.864586    2.295872
     15          6           0        0.791044   -1.746894    2.064682
     16          6           0        1.025736   -2.121435    0.615953
     17          6           0       -4.732647   -2.006217   -0.139149
     18          6           0        1.820027   -1.278593    2.976387
     19          6           0       -4.737887   -1.655129   -1.497625
     20          6           0        2.215502   -1.926098   -0.201005
     21          6           0        2.048791   -0.740178   -0.926307
     22          6           0       -3.584295   -0.901415   -1.895850
     23          6           0        2.945425   -0.113344   -1.953693
     24          6           0       -1.214076   -1.719429    3.725419
     25          6           0       -5.817360   -2.532015    0.748352
     26          6           0        2.471417    1.100056   -2.223550
     27          6           0        2.103652    0.357968    2.734930
     28          6           0        1.250779    1.220388   -1.523120
     29          6           0        4.257840   -0.793140   -2.326208
     30          6           0       -5.848541   -1.749891   -2.429146
     31          6           0        5.537239   -0.595826   -1.404086
     32          6           0        3.072882    2.277884   -3.090267
     33          6           0        0.362909    2.355277   -1.421732
     34          6           0        3.144448    0.863646    3.806587
     35          6           0       -0.763684    2.488968   -0.548071
     36          6           0       -6.928247   -2.572833   -2.385977
     37          6           0        6.723422   -1.532935   -1.910015
     38          6           0       -1.486250    3.718322   -0.267919
     39          6           0       -2.365844    3.381679    0.683968
     40          6           0       -2.136356    1.907182    0.948985
     41          6           0       -1.247331    5.010531   -1.006418
     42          6           0       -3.438311    4.065927    1.323855
     43          6           0       -2.049152    6.093648   -1.041293
     44          1           0       -3.642473   -1.073960    1.347084
     45          1           0       -2.473550   -3.834641    0.174204
     46          1           0       -2.947532   -3.293812    1.819548
     47          1           0       -0.374437   -2.760426   -0.816650
     48          1           0       -2.130616   -0.077116   -0.720921
     49          1           0        1.584934   -1.629037    4.123213
     50          1           0        2.797194   -1.931500    3.048010
     51          1           0        2.951799   -2.641763   -0.531754
     52          1           0       -2.054340   -2.267202    4.004067
     53          1           0       -0.359956   -1.916702    4.470466
     54          1           0       -1.640821   -0.619076    3.728369
     55          1           0       -5.614080   -2.512127    1.848859
     56          1           0       -5.929926   -3.563296    0.599138
     57          1           0       -6.792770   -2.121914    0.330343
     58          1           0        2.364619    0.572985    1.879559
     59          1           0        1.140185    0.924423    2.925096
     60          1           0        0.416012    0.196177   -0.025427
     61          1           0        4.438120   -0.465760   -3.420229
     62          1           0        4.163204   -1.881980   -2.313174
     63          1           0       -5.750713   -0.982786   -3.342460
     64          1           0        5.103651   -0.750987   -0.487335
     65          1           0        5.841697    0.498863   -1.452884
     66          1           0        4.079468    2.044722   -3.630559
     67          1           0        3.265119    3.281207   -2.417467
     68          1           0        2.548553    2.429192   -4.104165
     69          1           0        0.733106    3.201686   -2.034822
     70          1           0       -7.418408   -3.152766   -1.567304
     71          1           0       -7.681811   -2.649321   -3.178827
     72          1           0        3.891360    2.491880    4.234808
     73          1           0       -0.447739    5.093999   -1.725767
     74          1           0       -4.133391    4.391609    0.586495
     75          1           0       -3.885223    3.427344    2.219554
     76          1           0       -3.139237    5.173176    1.769192
     77          1           0        8.548196   -1.818556   -0.994254
     78          1           0       -1.863440    7.008101   -1.614769
     79          1           0       -3.055338    6.016846   -0.405857
 ---------------------------------------------------------------------

 SCF Done:  E(RB3LYP) =  -1947.82965049     A.U. after   20 cycles

 Excitation energies and oscillator strengths:

 Excited State   1:      Singlet-A      0.7350 eV 1686.87 nm  f=0.0001  <S**2>=0.000
     155 ->156         0.70448
 This state for optimization and/or second-order correction.
 Total Energy, E(TD-HF/TD-DFT) =  -1947.80263997
 Copying the excited state density for this state as the 1-particle RhoCI density.

 The electronic state is 1-A.
 Alpha  occ. eigenvalues --  -19.19422 -19.19146 -19.15683 -19.13386 -19.10374
 Alpha  occ. eigenvalues --  -19.08805 -14.37914 -14.37250 -14.31130 -14.30401
 Alpha  occ. eigenvalues --  -10.34514 -10.32506 -10.26421 -10.26397 -10.25570
 Alpha  occ. eigenvalues --  -10.25465 -10.25437 -10.23993 -10.22784 -10.22674
 Alpha  occ. eigenvalues --  -10.22525 -10.22233 -10.21849 -10.21847 -10.21254
 Alpha  occ. eigenvalues --  -10.21091 -10.21063 -10.21028 -10.20870 -10.20754
 Alpha  occ. eigenvalues --  -10.20455 -10.20329 -10.20175 -10.20027 -10.19815
 Alpha  occ. eigenvalues --  -10.19448 -10.19362 -10.19161 -10.18207 -10.18038
 Alpha  occ. eigenvalues --  -10.17823 -10.16546 -10.16339  -1.10973  -1.08831
 Alpha  occ. eigenvalues --   -1.04125  -1.03426  -1.02391  -1.01779  -0.99988
 Alpha  occ. eigenvalues --   -0.97228  -0.93344  -0.89661  -0.83707  -0.82554
 Alpha  occ. eigenvalues --   -0.81774  -0.79178  -0.79125  -0.78051  -0.77799
 Alpha  occ. eigenvalues --   -0.76644  -0.75753  -0.74860  -0.73663  -0.72119
 Alpha  occ. eigenvalues --   -0.70776  -0.69557  -0.69433  -0.68864  -0.67251
 Alpha  occ. eigenvalues --   -0.66163  -0.65338  -0.62988  -0.62433  -0.60638
 Alpha  occ. eigenvalues --   -0.59538  -0.59427  -0.58636  -0.57561  -0.56427
 Alpha  occ. eigenvalues --   -0.55108  -0.54919  -0.54299  -0.52921  -0.52543
 Alpha  occ. eigenvalues --   -0.52125  -0.51634  -0.50667  -0.49732  -0.49566
 Alpha  occ. eigenvalues --   -0.49105  -0.48747  -0.48451  -0.48012  -0.47845
 Alpha  occ. eigenvalues --   -0.47589  -0.46478  -0.46311  -0.45967  -0.45091
 Alpha  occ. eigenvalues --   -0.44626  -0.44276  -0.44203  -0.43913  -0.43567
 Alpha  occ. eigenvalues --   -0.43120  -0.42928  -0.42523  -0.42232  -0.41913
 Alpha  occ. eigenvalues --   -0.41411  -0.41287  -0.40691  -0.40529  -0.40359
 Alpha  occ. eigenvalues --   -0.40285  -0.39827  -0.39677  -0.39133  -0.38962
 Alpha  occ. eigenvalues --   -0.38799  -0.38371  -0.38048  -0.37913  -0.37868
 Alpha  occ. eigenvalues --   -0.37578  -0.37108  -0.36922  -0.36774  -0.36427
 Alpha  occ. eigenvalues --   -0.35772  -0.35510  -0.35024  -0.34871  -0.34796
 Alpha  occ. eigenvalues --   -0.34105  -0.33076  -0.32688  -0.31701  -0.31329
 Alpha  occ. eigenvalues --   -0.30838  -0.30067  -0.29355  -0.28891  -0.28672
 Alpha  occ. eigenvalues --   -0.28242  -0.28030  -0.24974  -0.24849  -0.23954
 Alpha  occ. eigenvalues --   -0.23723  -0.23187  -0.21999  -0.21689  -0.17770
 Alpha virt. eigenvalues --   -0.12385  -0.06764  -0.04707  -0.01392  -0.00679
 Alpha virt. eigenvalues --   -0.00143   0.01935   0.02141   0.02246   0.03161
 Alpha virt. eigenvalues --    0.04485   0.04744   0.04970   0.05333   0.05626

 Mulliken charges:
               1
     1  O   -0.187240
     2  O   -0.186863
     3  O   -0.245554
     4  O   -0.225908
     5  O   -0.146700
     6  O   -0.223947
     7  N   -0.010670
     8  N   -0.320072
     9  N    0.038377
    10  N   -0.276831
    11  C    0.099852
    12  C    0.152833
    13  C   -0.113864
    14  C   -0.049741
    15  C   -0.094083
    16  C   -0.076225
    17  C   -0.148259
    18  C   -0.016191
    19  C   -0.078382
    20  C   -0.028065
    21  C   -0.002004
    22  C    0.135162
    23  C   -0.069274
    24  C    0.054361
    25  C    0.124842
    26  C   -0.081315
    27  C    0.084720
    28  C    0.013676
    29  C    0.042906
    30  C   -0.016817
    31  C   -0.007772
    32  C   -0.006808
    33  C   -0.079728
    34  C    0.167526
    35  C    0.104019
    36  C   -0.087267
    37  C    0.185934
    38  C    0.098082
    39  C   -0.177640
    40  C    0.128928
    41  C   -0.000659
    42  C    0.005826
    43  C   -0.061739
    44  H    0.049608
    45  H   -0.001866
    46  H   -0.018352
    47  H    0.143526
    48  H    0.190589
    49  H    0.022766
    50  H    0.016246
    51  H    0.003013
    52  H   -0.014181
    53  H    0.021495
    54  H    0.048546
    55  H    0.022768
    56  H    0.010343
    57  H    0.047515
    58  H   -0.060439
    59  H    0.061218
    60  H    0.189683
    61  H    0.029342
    62  H    0.013198
    63  H    0.042007
    64  H    0.014648
    65  H    0.043631
    66  H    0.025114
    67  H    0.071321
    68  H    0.052964
    69  H   -0.019213
    70  H    0.009776
    71  H    0.012599
    72  H    0.173621
    73  H   -0.015043
    74  H    0.037757
    75  H    0.067079
    76  H    0.038674
    77  H    0.188623
    78  H    0.034269
    79  H    0.029736
 Sum of Mulliken charges =  -0.00000

 Dipole moment (field-independent basis, Debye):
    X=              4.7685    Y=              2.6044    Z=             -0.6728  Tot=              5.4748
 Quadrupole moment (field-independent basis, Debye-Ang):
   XX=           -217.2627   YY=           -229.1560   ZZ=           -274.5258
   XY=              8.5122   XZ=            -19.4772   YZ=             -6.9368

 Normal termination of Gaussian 16 at Mon Jul 29 13:07:26 2019.
