 Gaussian 16, Revision A.03,
 Gaussian 16:  ES64L-G16RevA.03 25-Dec-2016

 --------------------------
 # td=(NStates=1) B3LYP/SVP
 --------------------------

 --
 TD
 --
 Symbolic Z-matrix:
 Charge =  0 Multiplicity = 1

                         Standard orientation:
 ---------------------------------------------------------------------
 Center     Atomic      Atomic             Coordinates (Angstroms)
 Number     Number       Type             X           Y           Z
 ---------------------------------------------------------------------
      1          8           0        5.401456    0.197972   -3.298349
      2          8           0       -2.934670   -2.940022    3.532891
      3          8           0       -3.338078   -0.878578    2.879025
      4          8           0       -2.180769    7.219312    1.445091
      5          8           0       -1.212422    7.080308   -0.576836
      6          8           0       -1.519677   -4.009180    0.080812
      7          7           0        2.248642    0.997920    0.571480
      8          7           0        4.334736   -0.598630   -1.289782
      9          7           0       -1.858108    0.638866   -0.280331
     10          7           0       -2.359122   -1.937280   -0.617690
     11          6           0        4.777614   -1.032319   -0.081037
     12          6           0        4.369598   -0.149683    1.208793
     13          6           0        2.925875    0.037956    1.260448
     14          6           0        1.949601   -0.562783    2.138542
     15          6           0        0.696463   -0.048829    1.844866
     16          6           0        0.836300    0.989363    0.862334
     17          6           0        6.319531   -1.178003   -0.222383
     18          6           0       -0.582383   -0.263245    2.609391
     19          6           0        6.628470   -0.637594   -1.349267
     20          6           0        0.152623    1.989874    0.187418
     21          6           0       -1.138341    1.787516   -0.280281
     22          6           0        5.433036   -0.215679   -2.121788
     23          6           0       -2.049493    2.828160   -0.825841
     24          6           0        2.275333   -1.670084    3.195539
     25          6           0        7.138840   -1.805539    0.900341
     26          6           0       -3.213273    2.213894   -1.310307
     27          6           0       -1.111072   -1.657759    2.628915
     28          6           0       -3.031232    0.791010   -1.044372
     29          6           0       -1.780120    4.427728   -0.887017
     30          6           0        7.954810   -0.415046   -1.960455
     31          6           0       -2.024219    5.132382    0.473339
     32          6           0       -4.398332    2.791304   -2.119755
     33          6           0       -3.820402   -0.329892   -1.407140
     34          6           0       -2.551010   -1.759111    3.045167
     35          6           0       -3.523428   -1.607868   -1.137955
     36          6           0        9.145864   -0.487473   -1.295395
     37          6           0       -1.705775    6.580101    0.361344
     38          6           0       -4.309535   -2.825841   -1.559014
     39          6           0       -3.543820   -3.919877   -1.140088
     40          6           0       -2.381466   -3.405889   -0.510188
     41          6           0       -5.583974   -2.777869   -2.216766
     42          6           0       -3.827027   -5.321772   -1.075663
     43          6           0       -6.376366   -3.778117   -2.664335
     44          1           0        4.303269   -2.147080    0.327300
     45          1           0        4.951282    0.783554    0.885276
     46          1           0        4.372222   -0.656146    2.315531
     47          1           0        2.671112    1.676957   -0.002025
     48          1           0        3.386673   -0.698563   -1.632928
     49          1           0       -0.592113    0.221010    3.743638
     50          1           0       -1.362750    0.305890    2.085764
     51          1           0        0.624694    2.938809    0.113342
     52          1           0        3.264188   -1.792145    3.559892
     53          1           0        1.524352   -1.393022    4.128158
     54          1           0        1.831142   -2.655902    2.770095
     55          1           0        6.610436   -2.469541    1.608074
     56          1           0        7.566235   -1.079582    1.497076
     57          1           0        7.982103   -2.285769    0.602755
     58          1           0       -1.116341   -2.134520    1.699531
     59          1           0       -0.712370   -2.509421    3.139435
     60          1           0       -1.298135   -0.291075   -0.313865
     61          1           0       -2.203721    4.767976   -1.896544
     62          1           0       -0.673222    4.585343   -1.120365
     63          1           0        7.862376   -0.133017   -3.052094
     64          1           0       -1.321188    4.651527    1.115499
     65          1           0       -2.984840    5.213561    0.982749
     66          1           0       -4.332127    3.749687   -2.100217
     67          1           0       -5.435673    2.759821   -1.537054
     68          1           0       -4.588852    2.341000   -3.062563
     69          1           0       -4.715881   -0.316308   -2.034773
     70          1           0        9.160581   -0.410996   -0.251687
     71          1           0       10.117673   -0.176062   -1.737191
     72          1           0       -3.896482   -2.911106    3.622835
     73          1           0       -5.992066   -1.757143   -1.989904
     74          1           0       -4.852599   -5.749805   -0.746605
     75          1           0       -3.759940   -5.714716   -2.121049
     76          1           0       -3.033414   -5.852822   -0.607024
     77          1           0       -2.094985    8.197690    1.511118
     78          1           0       -7.400460   -3.584523   -3.088227
     79          1           0       -6.067069   -4.852281   -2.645105
 ---------------------------------------------------------------------

 SCF Done:  E(RB3LYP) =  -1947.88828513     A.U. after   19 cycles

 Excitation energies and oscillator strengths:

 Excited State   1:      Singlet-A      1.8899 eV  656.05 nm  f=0.4137  <S**2>=0.000
     154 ->156         0.10131
     155 ->156         0.69463
     155 <-156        -0.11943
 This state for optimization and/or second-order correction.
 Total Energy, E(TD-HF/TD-DFT) =  -1947.81883360
 Copying the excited state density for this state as the 1-particle RhoCI density.

 The electronic state is 1-A.
 Alpha  occ. eigenvalues --  -19.18410 -19.16510 -19.12956 -19.11596 -19.10246
 Alpha  occ. eigenvalues --  -19.09911 -14.38018 -14.36535 -14.36220 -14.27639
 Alpha  occ. eigenvalues --  -10.31966 -10.29958 -10.29298 -10.26199 -10.25452
 Alpha  occ. eigenvalues --  -10.24801 -10.23762 -10.23300 -10.23215 -10.22885
 Alpha  occ. eigenvalues --  -10.22399 -10.22023 -10.21877 -10.21359 -10.21274
 Alpha  occ. eigenvalues --  -10.21223 -10.21162 -10.20847 -10.20801 -10.20505
 Alpha  occ. eigenvalues --  -10.20412 -10.20121 -10.19907 -10.19830 -10.19794
 Alpha  occ. eigenvalues --  -10.19740 -10.19707 -10.19550 -10.19453 -10.18872
 Alpha  occ. eigenvalues --  -10.18443 -10.18079 -10.17048  -1.10477  -1.08924
 Alpha  occ. eigenvalues --   -1.02430  -1.02189  -1.01785  -0.98997  -0.98039
 Alpha  occ. eigenvalues --   -0.97303  -0.95873  -0.91099  -0.83245  -0.82006
 Alpha  occ. eigenvalues --   -0.81298  -0.80964  -0.80346  -0.79103  -0.77835
 Alpha  occ. eigenvalues --   -0.77116  -0.76778  -0.75791  -0.74631  -0.73185
 Alpha  occ. eigenvalues --   -0.72167  -0.70839  -0.69519  -0.68920  -0.68213
 Alpha  occ. eigenvalues --   -0.67155  -0.66448  -0.63533  -0.61768  -0.61363
 Alpha  occ. eigenvalues --   -0.60774  -0.59803  -0.59284  -0.57519  -0.57101
 Alpha  occ. eigenvalues --   -0.55994  -0.55419  -0.54715  -0.53999  -0.53199
 Alpha  occ. eigenvalues --   -0.51660  -0.51474  -0.51323  -0.50699  -0.49644
 Alpha  occ. eigenvalues --   -0.49475  -0.48471  -0.48018  -0.47655  -0.47313
 Alpha  occ. eigenvalues --   -0.46751  -0.46378  -0.46245  -0.46012  -0.45320
 Alpha  occ. eigenvalues --   -0.45010  -0.44675  -0.44380  -0.44282  -0.43747
 Alpha  occ. eigenvalues --   -0.43337  -0.43254  -0.42924  -0.42717  -0.42436
 Alpha  occ. eigenvalues --   -0.42322  -0.42032  -0.41728  -0.41117  -0.40699
 Alpha  occ. eigenvalues --   -0.40542  -0.40347  -0.39961  -0.39770  -0.39604
 Alpha  occ. eigenvalues --   -0.39521  -0.39195  -0.38969  -0.38519  -0.38323
 Alpha  occ. eigenvalues --   -0.37923  -0.37499  -0.37232  -0.36948  -0.36759
 Alpha  occ. eigenvalues --   -0.36053  -0.35354  -0.35111  -0.34957  -0.34804
 Alpha  occ. eigenvalues --   -0.34048  -0.33781  -0.33488  -0.32288  -0.32160
 Alpha  occ. eigenvalues --   -0.30813  -0.30508  -0.28731  -0.28562  -0.27015
 Alpha  occ. eigenvalues --   -0.26883  -0.26472  -0.26002  -0.25765  -0.25169
 Alpha  occ. eigenvalues --   -0.24795  -0.23621  -0.23308  -0.21533  -0.18228
 Alpha virt. eigenvalues --   -0.10743  -0.06757  -0.05852  -0.00885  -0.00542
 Alpha virt. eigenvalues --    0.00579   0.01241   0.02247   0.03359   0.03557
 Alpha virt. eigenvalues --    0.04274   0.04463   0.04916   0.05186   0.05665

 Mulliken charges:
               1
     1  O   -0.234554
     2  O   -0.163551
     3  O   -0.225904
     4  O   -0.211883
     5  O   -0.177407
     6  O   -0.193272
     7  N   -0.084350
     8  N   -0.148859
     9  N   -0.102700
    10  N   -0.314118
    11  C   -0.059043
    12  C    0.136684
    13  C   -0.072991
    14  C   -0.131965
    15  C   -0.072488
    16  C    0.112961
    17  C   -0.135199
    18  C    0.073911
    19  C   -0.065500
    20  C   -0.113729
    21  C    0.072686
    22  C    0.193540
    23  C   -0.128043
    24  C    0.030453
    25  C    0.184074
    26  C   -0.118984
    27  C    0.090718
    28  C    0.147425
    29  C    0.040781
    30  C   -0.007888
    31  C    0.049107
    32  C    0.194386
    33  C   -0.112520
    34  C    0.055889
    35  C    0.069974
    36  C   -0.021578
    37  C    0.109008
    38  C    0.037605
    39  C   -0.167748
    40  C    0.142365
    41  C   -0.022210
    42  C    0.091393
    43  C   -0.054366
    44  H    0.028113
    45  H   -0.005932
    46  H    0.048519
    47  H    0.093723
    48  H    0.139591
    49  H    0.033227
    50  H    0.020638
    51  H   -0.016814
    52  H    0.014137
    53  H    0.043300
    54  H    0.064436
    55  H    0.013474
    56  H    0.002925
    57  H   -0.005306
    58  H    0.013577
    59  H   -0.017152
    60  H    0.190641
    61  H    0.040144
    62  H    0.017828
    63  H    0.028968
    64  H    0.027211
    65  H    0.040568
    66  H   -0.054228
    67  H    0.018479
    68  H    0.032128
    69  H   -0.040939
    70  H   -0.002009
    71  H    0.033037
    72  H    0.172134
    73  H    0.014091
    74  H    0.038848
    75  H    0.015468
    76  H    0.004036
    77  H    0.193475
    78  H    0.037897
    79  H    0.029656
 Sum of Mulliken charges =  -0.00000

 Dipole moment (field-independent basis, Debye):
    X=              0.1886    Y=              2.7124    Z=              3.2051  Tot=              4.2030
 Quadrupole moment (field-independent basis, Debye-Ang):
   XX=           -221.7006   YY=           -236.7002   ZZ=           -262.0890
   XY=             -5.6073   XZ=             32.1493   YZ=             10.0898

 Normal termination of Gaussian 16 at Tue Oct  8 01:10:35 2019.
