 Gaussian 16, Revision A.03,
 Gaussian 16:  ES64L-G16RevA.03 25-Dec-2016

 --------------------------
 # td=(NStates=1) B3LYP/SVP
 --------------------------

 --
 TD
 --
 Symbolic Z-matrix:
 Charge =  0 Multiplicity = 1

                         Standard orientation:
 ---------------------------------------------------------------------
 Center     Atomic      Atomic             Coordinates (Angstroms)
 Number     Number       Type             X           Y           Z
 ---------------------------------------------------------------------
      1          8           0        5.455731   -0.279377   -3.281952
      2          8           0       -3.131180   -2.838668    3.302735
      3          8           0       -3.304802   -0.629282    2.929112
      4          8           0       -1.485189    7.207657    1.477221
      5          8           0       -0.322093    7.020508   -0.516923
      6          8           0       -1.779687   -4.053658    0.008063
      7          7           0        2.376578    0.953408    0.664931
      8          7           0        4.430630   -0.667328   -1.221021
      9          7           0       -1.823535    0.677518   -0.499873
     10          7           0       -2.548702   -1.824074   -0.527412
     11          6           0        4.802752   -1.247588    0.055868
     12          6           0        4.382809   -0.286369    1.319636
     13          6           0        2.997349   -0.067262    1.332003
     14          6           0        1.977467   -0.595178    2.140927
     15          6           0        0.684860    0.027643    1.803550
     16          6           0        0.955677    0.992116    0.749840
     17          6           0        6.315576   -1.446623   -0.133935
     18          6           0       -0.664057   -0.241609    2.408749
     19          6           0        6.716570   -0.996197   -1.375982
     20          6           0        0.128009    1.993063    0.121493
     21          6           0       -1.178209    1.836496   -0.374339
     22          6           0        5.487481   -0.521767   -2.111682
     23          6           0       -1.935702    2.945964   -1.023862
     24          6           0        2.220481   -1.535649    3.210136
     25          6           0        7.179586   -2.073227    0.986012
     26          6           0       -3.123295    2.379216   -1.283759
     27          6           0       -1.178149   -1.703484    2.570280
     28          6           0       -3.082696    0.958048   -1.005038
     29          6           0       -1.529016    4.386398   -1.009006
     30          6           0        7.970378   -0.809807   -2.042990
     31          6           0       -1.728001    5.095847    0.377757
     32          6           0       -4.386708    3.018413   -1.802339
     33          6           0       -4.076498   -0.035961   -1.307460
     34          6           0       -2.661312   -1.604641    2.889875
     35          6           0       -3.853465   -1.490254   -1.038505
     36          6           0        9.209304   -0.942290   -1.540239
     37          6           0       -1.081491    6.505572    0.312952
     38          6           0       -4.737194   -2.577750   -1.368272
     39          6           0       -3.947141   -3.758618   -1.068801
     40          6           0       -2.620806   -3.326180   -0.391603
     41          6           0       -6.031822   -2.449357   -1.960997
     42          6           0       -4.370567   -5.186432   -1.191634
     43          6           0       -6.856546   -3.375957   -2.428030
     44          1           0        4.304788   -2.249404    0.151683
     45          1           0        4.964058    0.669719    1.337858
     46          1           0        4.952154   -0.914554    2.157319
     47          1           0        2.862111    1.651192    0.058283
     48          1           0        3.478608   -0.425554   -1.526803
     49          1           0       -0.425232    0.080668    3.454204
     50          1           0       -1.562827    0.346058    1.961471
     51          1           0        0.749086    3.031276    0.038755
     52          1           0        3.255514   -1.902657    3.491153
     53          1           0        1.867889   -1.352246    4.362087
     54          1           0        1.701786   -2.502992    2.959591
     55          1           0        6.442456   -2.557679    1.623363
     56          1           0        7.440474   -1.228011    1.566095
     57          1           0        7.977148   -2.476106    0.518382
     58          1           0       -1.071367   -2.147116    1.672973
     59          1           0       -0.567072   -2.297851    3.353591
     60          1           0       -1.518741   -0.305401   -0.313082
     61          1           0       -1.937894    4.808129   -2.051297
     62          1           0       -0.367821    4.405579   -1.383469
     63          1           0        7.916639   -0.598666   -2.994794
     64          1           0       -1.296871    4.375596    1.270230
     65          1           0       -2.921316    5.070827    0.532947
     66          1           0       -4.027560    4.058071   -2.185086
     67          1           0       -5.104462    2.955932   -1.156004
     68          1           0       -4.777549    2.654388   -2.728179
     69          1           0       -4.973296    0.203886   -1.814213
     70          1           0        9.532139   -1.080530   -0.609991
     71          1           0       10.080572   -0.662036   -2.151994
     72          1           0       -4.174499   -2.697137    3.199570
     73          1           0       -6.232859   -1.420272   -2.054331
     74          1           0       -5.370902   -5.499101   -0.779830
     75          1           0       -4.468760   -5.377513   -2.259583
     76          1           0       -3.582677   -5.852171   -0.769869
     77          1           0       -1.072135    8.094308    1.457858
     78          1           0       -7.805025   -3.021011   -3.129897
     79          1           0       -6.687338   -4.431191   -2.445027
 ---------------------------------------------------------------------

 SCF Done:  E(RB3LYP) =  -1947.86210877     A.U. after   17 cycles

 Excitation energies and oscillator strengths:

 Excited State   1:      Singlet-A      1.8380 eV  674.56 nm  f=0.3324  <S**2>=0.000
     154 ->156         0.23916
     155 ->156         0.66245
     155 <-156        -0.11207
 This state for optimization and/or second-order correction.
 Total Energy, E(TD-HF/TD-DFT) =  -1947.79456387
 Copying the excited state density for this state as the 1-particle RhoCI density.

 The electronic state is 1-A.
 Alpha  occ. eigenvalues --  -19.18423 -19.16683 -19.15166 -19.12457 -19.11965
 Alpha  occ. eigenvalues --  -19.09768 -14.38662 -14.36973 -14.34846 -14.29682
 Alpha  occ. eigenvalues --  -10.34553 -10.30594 -10.27754 -10.27560 -10.25686
 Alpha  occ. eigenvalues --  -10.25249 -10.25070 -10.24620 -10.24359 -10.23539
 Alpha  occ. eigenvalues --  -10.23377 -10.23255 -10.23178 -10.23117 -10.22131
 Alpha  occ. eigenvalues --  -10.21460 -10.21336 -10.20810 -10.20784 -10.20668
 Alpha  occ. eigenvalues --  -10.20325 -10.20232 -10.20215 -10.20203 -10.20056
 Alpha  occ. eigenvalues --  -10.19532 -10.19485 -10.19371 -10.19353 -10.19281
 Alpha  occ. eigenvalues --  -10.18680 -10.18457 -10.18351  -1.08645  -1.08153
 Alpha  occ. eigenvalues --   -1.03941  -1.03041  -1.00423  -0.99595  -0.99363
 Alpha  occ. eigenvalues --   -0.97635  -0.93400  -0.88471  -0.83142  -0.81663
 Alpha  occ. eigenvalues --   -0.81559  -0.80442  -0.80191  -0.79453  -0.77455
 Alpha  occ. eigenvalues --   -0.76954  -0.76008  -0.75647  -0.74131  -0.72543
 Alpha  occ. eigenvalues --   -0.71830  -0.70956  -0.70126  -0.68909  -0.68306
 Alpha  occ. eigenvalues --   -0.66181  -0.65729  -0.63355  -0.61941  -0.60561
 Alpha  occ. eigenvalues --   -0.59946  -0.58530  -0.57474  -0.57178  -0.56637
 Alpha  occ. eigenvalues --   -0.55922  -0.55437  -0.54873  -0.54076  -0.53198
 Alpha  occ. eigenvalues --   -0.51940  -0.51010  -0.50684  -0.50481  -0.49905
 Alpha  occ. eigenvalues --   -0.49016  -0.48491  -0.48248  -0.47769  -0.47602
 Alpha  occ. eigenvalues --   -0.47185  -0.47171  -0.46706  -0.46595  -0.46211
 Alpha  occ. eigenvalues --   -0.46029  -0.45051  -0.44813  -0.44475  -0.43924
 Alpha  occ. eigenvalues --   -0.43753  -0.43332  -0.43087  -0.42889  -0.42654
 Alpha  occ. eigenvalues --   -0.42345  -0.42038  -0.41924  -0.41329  -0.41087
 Alpha  occ. eigenvalues --   -0.40808  -0.40563  -0.40399  -0.39904  -0.39631
 Alpha  occ. eigenvalues --   -0.39476  -0.39468  -0.39250  -0.38936  -0.38475
 Alpha  occ. eigenvalues --   -0.38087  -0.37873  -0.37372  -0.37293  -0.36551
 Alpha  occ. eigenvalues --   -0.35915  -0.35797  -0.35668  -0.35348  -0.34650
 Alpha  occ. eigenvalues --   -0.34224  -0.33694  -0.33040  -0.32941  -0.31772
 Alpha  occ. eigenvalues --   -0.31498  -0.30968  -0.30075  -0.29403  -0.28564
 Alpha  occ. eigenvalues --   -0.27879  -0.26967  -0.26039  -0.25256  -0.24120
 Alpha  occ. eigenvalues --   -0.23919  -0.23395  -0.23046  -0.21513  -0.18786
 Alpha virt. eigenvalues --   -0.11428  -0.07002  -0.05624  -0.03243  -0.01094
 Alpha virt. eigenvalues --    0.00177   0.01717   0.01965   0.02548   0.03148
 Alpha virt. eigenvalues --    0.03595   0.04188   0.04417   0.04618   0.05195

 Mulliken charges:
               1
     1  O   -0.203589
     2  O   -0.254569
     3  O   -0.183275
     4  O   -0.235819
     5  O   -0.225775
     6  O   -0.155897
     7  N   -0.120736
     8  N   -0.224393
     9  N   -0.033471
    10  N   -0.422127
    11  C    0.086912
    12  C    0.069547
    13  C    0.041689
    14  C   -0.067923
    15  C   -0.065354
    16  C    0.025755
    17  C   -0.255965
    18  C   -0.003518
    19  C   -0.027458
    20  C   -0.126605
    21  C    0.071507
    22  C    0.140706
    23  C   -0.097335
    24  C   -0.032049
    25  C    0.211942
    26  C   -0.147888
    27  C    0.051510
    28  C    0.130242
    29  C   -0.004978
    30  C    0.070057
    31  C   -0.062998
    32  C    0.190279
    33  C   -0.094032
    34  C    0.135932
    35  C    0.100841
    36  C   -0.001617
    37  C    0.213887
    38  C    0.044180
    39  C   -0.212667
    40  C    0.201110
    41  C    0.042943
    42  C    0.064841
    43  C   -0.060446
    44  H    0.039163
    45  H    0.011417
    46  H    0.020748
    47  H    0.118843
    48  H    0.127743
    49  H    0.012799
    50  H    0.059419
    51  H    0.037599
    52  H    0.000958
    53  H    0.031711
    54  H    0.034853
    55  H    0.013340
    56  H    0.011843
    57  H    0.019126
    58  H    0.011829
    59  H    0.045892
    60  H    0.168259
    61  H    0.048611
    62  H    0.039328
    63  H   -0.059009
    64  H    0.098478
    65  H    0.080220
    66  H    0.012238
    67  H   -0.014902
    68  H    0.008176
    69  H   -0.043617
    70  H   -0.035672
    71  H    0.019240
    72  H    0.204344
    73  H   -0.039846
    74  H    0.040791
    75  H    0.028714
    76  H    0.032711
    77  H    0.185070
    78  H    0.046448
    79  H    0.009738
 Sum of Mulliken charges =  -0.00000

 Dipole moment (field-independent basis, Debye):
    X=             -0.7560    Y=              2.4978    Z=              2.8169  Tot=              3.8399
 Quadrupole moment (field-independent basis, Debye-Ang):
   XX=           -221.8947   YY=           -246.3520   ZZ=           -266.0994
   XY=             -3.5947   XZ=             38.0991   YZ=              3.8400

 Normal termination of Gaussian 16 at Mon Sep 23 20:05:45 2019.
