 Gaussian 16, Revision A.03,
 Gaussian 16:  ES64L-G16RevA.03 25-Dec-2016

 --------------------------
 # td=(NStates=1) B3LYP/SVP
 --------------------------

 --
 TD
 --
 Symbolic Z-matrix:
 Charge =  0 Multiplicity = 1

                         Standard orientation:
 ---------------------------------------------------------------------
 Center     Atomic      Atomic             Coordinates (Angstroms)
 Number     Number       Type             X           Y           Z
 ---------------------------------------------------------------------
      1          8           0        5.457766   -0.131922   -3.292326
      2          8           0       -2.969531   -2.982418    2.931273
      3          8           0       -3.403892   -0.802580    3.059520
      4          8           0       -1.967289    7.088542    1.314397
      5          8           0       -0.810366    7.047744   -0.695747
      6          8           0       -1.613060   -4.028779    0.243890
      7          7           0        2.304778    1.098859    0.522831
      8          7           0        4.412858   -0.621885   -1.292040
      9          7           0       -1.972685    0.657975   -0.268060
     10          7           0       -2.506387   -1.894085   -0.500772
     11          6           0        4.723810   -1.109219    0.021166
     12          6           0        4.357024   -0.140929    1.101442
     13          6           0        2.862997    0.098885    1.241499
     14          6           0        1.990663   -0.487740    2.121986
     15          6           0        0.751393    0.132462    1.883849
     16          6           0        0.898742    1.101016    0.848328
     17          6           0        6.306697   -1.187445   -0.186004
     18          6           0       -0.519343   -0.056182    2.686770
     19          6           0        6.688586   -0.804847   -1.374469
     20          6           0       -0.004376    2.076931    0.153916
     21          6           0       -1.301277    1.906063   -0.245746
     22          6           0        5.483461   -0.362922   -2.176082
     23          6           0       -2.128116    2.890807   -0.877608
     24          6           0        2.291479   -1.505244    3.127635
     25          6           0        7.096753   -1.824287    1.011196
     26          6           0       -3.288204    2.256576   -1.223335
     27          6           0       -1.049645   -1.473701    2.644794
     28          6           0       -3.180937    0.762473   -0.939524
     29          6           0       -1.789620    4.291640   -0.894139
     30          6           0        8.070776   -0.647284   -1.969174
     31          6           0       -1.874793    5.050252    0.382941
     32          6           0       -4.420165    2.838946   -1.971619
     33          6           0       -3.970035   -0.242676   -1.447862
     34          6           0       -2.564096   -1.682469    2.828182
     35          6           0       -3.572750   -1.570139   -1.123000
     36          6           0        9.225005   -0.715725   -1.213434
     37          6           0       -1.420009    6.480193    0.187076
     38          6           0       -4.365993   -2.741055   -1.516754
     39          6           0       -3.657402   -3.915607   -1.043779
     40          6           0       -2.457833   -3.324765   -0.354202
     41          6           0       -5.645808   -2.820340   -2.083434
     42          6           0       -3.885367   -5.350706   -1.039817
     43          6           0       -6.482952   -3.749473   -2.463669
     44          1           0        4.314813   -2.114304    0.147400
     45          1           0        4.855585    0.865202    0.831562
     46          1           0        4.519746   -0.669263    2.170490
     47          1           0        2.606409    1.388544   -0.434297
     48          1           0        3.370831   -0.693353   -1.714980
     49          1           0       -0.474330    0.419463    3.797263
     50          1           0       -1.351042    0.706178    2.300897
     51          1           0        0.445194    3.018050    0.067784
     52          1           0        3.237388   -1.777951    3.406147
     53          1           0        1.841589   -1.287581    3.942466
     54          1           0        1.831832   -2.397538    3.000886
     55          1           0        6.480797   -2.470882    1.618729
     56          1           0        7.702161   -0.977031    1.535822
     57          1           0        7.804817   -2.468564    0.547533
     58          1           0       -0.815679   -1.967844    1.698248
     59          1           0       -0.474358   -2.056855    3.378040
     60          1           0       -1.651545   -0.221621   -0.176729
     61          1           0       -2.364444    4.652244   -1.944938
     62          1           0       -0.728498    4.180839   -1.204150
     63          1           0        7.885818   -0.427139   -3.058335
     64          1           0       -1.231267    4.703576    1.064517
     65          1           0       -3.019709    4.970888    0.803070
     66          1           0       -4.210511    4.032150   -2.126615
     67          1           0       -5.408932    2.882100   -1.277976
     68          1           0       -4.617772    2.185572   -2.893214
     69          1           0       -5.014261   -0.080548   -1.944307
     70          1           0        9.267440   -0.707537   -0.078012
     71          1           0       10.169262   -0.550711   -1.739753
     72          1           0       -3.983167   -3.068913    3.164296
     73          1           0       -6.077099   -1.898265   -2.440523
     74          1           0       -4.788729   -5.632042   -0.472388
     75          1           0       -3.950405   -5.714341   -2.125071
     76          1           0       -2.968446   -5.725980   -0.422378
     77          1           0       -1.578180    8.045101    1.413903
     78          1           0       -7.528056   -3.575873   -2.862897
     79          1           0       -6.328228   -4.817450   -2.277039
 ---------------------------------------------------------------------

 SCF Done:  E(RB3LYP) =  -1947.86511949     A.U. after   16 cycles

 Excitation energies and oscillator strengths:

 Excited State   1:      Singlet-A      2.0180 eV  614.38 nm  f=0.3244  <S**2>=0.000
     154 ->156         0.13590
     155 ->156         0.69002
 This state for optimization and/or second-order correction.
 Total Energy, E(TD-HF/TD-DFT) =  -1947.79095858
 Copying the excited state density for this state as the 1-particle RhoCI density.

 The electronic state is 1-A.
 Alpha  occ. eigenvalues --  -19.18689 -19.16543 -19.14833 -19.11896 -19.11452
 Alpha  occ. eigenvalues --  -19.10663 -14.37924 -14.36051 -14.35109 -14.29503
 Alpha  occ. eigenvalues --  -10.33394 -10.30977 -10.28561 -10.27587 -10.25278
 Alpha  occ. eigenvalues --  -10.24291 -10.24257 -10.23498 -10.23015 -10.22289
 Alpha  occ. eigenvalues --  -10.22145 -10.22095 -10.22067 -10.21694 -10.21675
 Alpha  occ. eigenvalues --  -10.21349 -10.21282 -10.20937 -10.20758 -10.20525
 Alpha  occ. eigenvalues --  -10.20508 -10.20505 -10.20268 -10.20223 -10.20027
 Alpha  occ. eigenvalues --  -10.19545 -10.19536 -10.19524 -10.19251 -10.19157
 Alpha  occ. eigenvalues --  -10.19127 -10.18549 -10.16656  -1.08596  -1.07256
 Alpha  occ. eigenvalues --   -1.06149  -1.00987  -1.00739  -0.97906  -0.97450
 Alpha  occ. eigenvalues --   -0.96558  -0.93627  -0.93318  -0.84652  -0.81899
 Alpha  occ. eigenvalues --   -0.81100  -0.80916  -0.80721  -0.79238  -0.78858
 Alpha  occ. eigenvalues --   -0.76814  -0.76632  -0.75304  -0.74298  -0.73351
 Alpha  occ. eigenvalues --   -0.72286  -0.70816  -0.70092  -0.69103  -0.68606
 Alpha  occ. eigenvalues --   -0.66013  -0.65361  -0.63258  -0.60536  -0.60332
 Alpha  occ. eigenvalues --   -0.60139  -0.58689  -0.57960  -0.57449  -0.56839
 Alpha  occ. eigenvalues --   -0.56523  -0.55660  -0.54412  -0.53795  -0.52811
 Alpha  occ. eigenvalues --   -0.52519  -0.51187  -0.50930  -0.50533  -0.49817
 Alpha  occ. eigenvalues --   -0.49214  -0.48597  -0.48336  -0.47573  -0.47105
 Alpha  occ. eigenvalues --   -0.46883  -0.46541  -0.45803  -0.45646  -0.45354
 Alpha  occ. eigenvalues --   -0.44701  -0.44563  -0.44508  -0.44293  -0.44086
 Alpha  occ. eigenvalues --   -0.43455  -0.43386  -0.43266  -0.43091  -0.42693
 Alpha  occ. eigenvalues --   -0.42212  -0.42109  -0.41961  -0.41723  -0.41195
 Alpha  occ. eigenvalues --   -0.40910  -0.40602  -0.40375  -0.40324  -0.39957
 Alpha  occ. eigenvalues --   -0.39850  -0.39541  -0.39401  -0.38670  -0.38658
 Alpha  occ. eigenvalues --   -0.38100  -0.37729  -0.37548  -0.37256  -0.37128
 Alpha  occ. eigenvalues --   -0.36519  -0.35558  -0.35035  -0.34662  -0.34451
 Alpha  occ. eigenvalues --   -0.33329  -0.32780  -0.32574  -0.31727  -0.31662
 Alpha  occ. eigenvalues --   -0.31487  -0.29886  -0.29796  -0.29100  -0.28141
 Alpha  occ. eigenvalues --   -0.27030  -0.26298  -0.26003  -0.25963  -0.25193
 Alpha  occ. eigenvalues --   -0.24499  -0.24281  -0.23719  -0.21986  -0.19396
 Alpha virt. eigenvalues --   -0.11133  -0.06712  -0.04825  -0.01465  -0.00443
 Alpha virt. eigenvalues --    0.00952   0.01079   0.01286   0.02694   0.02847
 Alpha virt. eigenvalues --    0.03269   0.03748   0.04436   0.04791   0.05184

 Mulliken charges:
               1
     1  O   -0.130362
     2  O   -0.239878
     3  O   -0.260476
     4  O   -0.256492
     5  O   -0.198820
     6  O   -0.228696
     7  N   -0.100819
     8  N   -0.303783
     9  N   -0.039233
    10  N   -0.267064
    11  C    0.102863
    12  C    0.169574
    13  C   -0.131355
    14  C   -0.112528
    15  C   -0.082731
    16  C    0.031046
    17  C   -0.231647
    18  C   -0.011445
    19  C   -0.080629
    20  C   -0.089422
    21  C    0.132844
    22  C    0.151034
    23  C   -0.065205
    24  C    0.309471
    25  C    0.090140
    26  C   -0.131487
    27  C    0.023549
    28  C    0.148686
    29  C    0.028024
    30  C    0.017970
    31  C    0.070765
    32  C   -0.012270
    33  C   -0.161890
    34  C    0.159189
    35  C    0.094166
    36  C   -0.045172
    37  C    0.162085
    38  C    0.068280
    39  C   -0.204799
    40  C    0.191711
    41  C   -0.008619
    42  C    0.049927
    43  C   -0.088877
    44  H    0.013812
    45  H    0.007995
    46  H    0.024334
    47  H    0.135444
    48  H    0.154080
    49  H    0.032214
    50  H    0.034053
    51  H   -0.020106
    52  H   -0.035868
    53  H   -0.065372
    54  H   -0.024282
    55  H    0.014566
    56  H    0.057128
    57  H    0.022384
    58  H    0.055980
    59  H    0.025721
    60  H    0.082784
    61  H    0.048719
    62  H    0.013455
    63  H    0.026314
    64  H   -0.001447
    65  H    0.079709
    66  H    0.037356
    67  H    0.046033
    68  H    0.058413
    69  H    0.027949
    70  H    0.038830
    71  H    0.031376
    72  H    0.217617
    73  H   -0.030937
    74  H    0.035341
    75  H    0.051236
    76  H    0.052988
    77  H    0.204665
    78  H    0.032623
    79  H   -0.002729
 Sum of Mulliken charges =  -0.00000

 Dipole moment (field-independent basis, Debye):
    X=             -0.0819    Y=              1.6719    Z=              2.4715  Tot=              2.9850
 Quadrupole moment (field-independent basis, Debye-Ang):
   XX=           -229.7272   YY=           -245.6978   ZZ=           -261.4825
   XY=             -4.0753   XZ=             29.1334   YZ=              4.9436

 Normal termination of Gaussian 16 at Tue Oct  1 04:36:53 2019.
