 Gaussian 16, Revision A.03,
 Gaussian 16:  ES64L-G16RevA.03 25-Dec-2016

 --------------------------
 # td=(NStates=1) B3LYP/SVP
 --------------------------

 --
 TD
 --
 Symbolic Z-matrix:
 Charge =  0 Multiplicity = 1

                         Standard orientation:
 ---------------------------------------------------------------------
 Center     Atomic      Atomic             Coordinates (Angstroms)
 Number     Number       Type             X           Y           Z
 ---------------------------------------------------------------------
      1          8           0        5.376198   -0.182314   -3.324006
      2          8           0       -3.026177   -2.810307    2.982144
      3          8           0       -3.263682   -0.593061    3.369352
      4          8           0       -1.273686    7.078163    1.604013
      5          8           0       -0.630283    7.029522   -0.650823
      6          8           0       -1.842986   -3.899239    0.032712
      7          7           0        2.330191    0.904192    0.521624
      8          7           0        4.447968   -0.647086   -1.335457
      9          7           0       -1.867500    0.660501   -0.389643
     10          7           0       -2.753823   -1.868386   -0.541637
     11          6           0        4.696392   -1.247664   -0.039750
     12          6           0        4.335970   -0.368896    1.130657
     13          6           0        2.854859   -0.032186    1.328082
     14          6           0        1.983460   -0.681112    2.140575
     15          6           0        0.703431   -0.063859    1.836605
     16          6           0        0.937015    0.857446    0.807038
     17          6           0        6.241271   -1.393844   -0.150544
     18          6           0       -0.634013   -0.234298    2.535895
     19          6           0        6.684957   -0.947867   -1.374735
     20          6           0        0.153901    1.866623    0.218479
     21          6           0       -1.150867    1.814326   -0.270305
     22          6           0        5.556777   -0.533156   -2.115023
     23          6           0       -1.909231    2.954637   -0.968074
     24          6           0        2.157159   -1.680453    3.233042
     25          6           0        7.080048   -1.993277    0.909233
     26          6           0       -3.043185    2.406808   -1.374196
     27          6           0       -1.121239   -1.653025    2.636008
     28          6           0       -3.023098    0.914481   -1.099184
     29          6           0       -1.549930    4.292223   -0.892543
     30          6           0        7.964758   -0.950397   -1.971506
     31          6           0       -1.567853    5.062634    0.428921
     32          6           0       -4.142917    3.136809   -2.075464
     33          6           0       -4.004892   -0.001744   -1.326039
     34          6           0       -2.597606   -1.568517    3.017145
     35          6           0       -3.823143   -1.453506   -1.101221
     36          6           0        9.180776   -0.845965   -1.374723
     37          6           0       -1.105813    6.528584    0.362867
     38          6           0       -4.632057   -2.522432   -1.410714
     39          6           0       -3.960883   -3.641101   -1.037234
     40          6           0       -2.676895   -3.234507   -0.449795
     41          6           0       -5.927882   -2.445654   -2.097943
     42          6           0       -4.307071   -5.152328   -1.202240
     43          6           0       -6.877075   -3.327607   -2.430898
     44          1           0        3.907310   -2.212001   -0.018886
     45          1           0        4.723887    0.629952    1.056210
     46          1           0        4.738536   -0.731986    1.978140
     47          1           0        2.738664    1.560964   -0.323472
     48          1           0        3.539850   -0.558910   -1.698113
     49          1           0       -0.520977   -0.018864    3.554235
     50          1           0       -1.477887    0.287460    2.180442
     51          1           0        0.524349    3.040937    0.306684
     52          1           0        3.148963   -1.855261    3.233077
     53          1           0        1.828954   -1.587414    4.358704
     54          1           0        1.785175   -2.648022    3.012312
     55          1           0        6.490208   -2.461998    1.724853
     56          1           0        7.422684   -1.231799    1.457950
     57          1           0        7.899076   -2.504391    0.509092
     58          1           0       -0.798744   -2.219946    1.767355
     59          1           0       -0.525683   -2.361916    3.335415
     60          1           0       -1.630528   -0.237172   -0.124471
     61          1           0       -2.118269    4.623758   -1.761800
     62          1           0       -0.405309    4.380832   -1.264933
     63          1           0        7.916639   -0.813757   -3.159418
     64          1           0       -0.919094    4.179554    1.286698
     65          1           0       -2.595463    5.202658    0.932955
     66          1           0       -4.135446    4.126420   -2.116247
     67          1           0       -5.160046    3.035183   -1.295335
     68          1           0       -4.468457    2.716737   -3.046664
     69          1           0       -4.859086    0.380521   -1.803244
     70          1           0        9.440477   -0.606218   -0.356977
     71          1           0       10.085372   -0.857851   -1.982282
     72          1           0       -4.097300   -2.902360    3.076169
     73          1           0       -6.418943   -1.435182   -2.498916
     74          1           0       -5.264585   -5.521981   -0.658840
     75          1           0       -4.359630   -5.514788   -2.153883
     76          1           0       -3.608426   -5.847571   -0.727466
     77          1           0       -0.798278    7.887352    1.501792
     78          1           0       -7.714355   -2.941307   -3.020968
     79          1           0       -6.977310   -4.475343   -2.086012
 ---------------------------------------------------------------------

 SCF Done:  E(RB3LYP) =  -1947.78952566     A.U. after   16 cycles

 Excitation energies and oscillator strengths:

 Excited State   1:      Singlet-A      1.9200 eV  645.76 nm  f=0.3291  <S**2>=0.000
     155 ->156         0.69904
     155 <-156        -0.10252
 This state for optimization and/or second-order correction.
 Total Energy, E(TD-HF/TD-DFT) =  -1947.71896774
 Copying the excited state density for this state as the 1-particle RhoCI density.

 The electronic state is 1-A.
 Alpha  occ. eigenvalues --  -19.20100 -19.18011 -19.14708 -19.11738 -19.11706
 Alpha  occ. eigenvalues --  -19.08341 -14.38640 -14.36377 -14.34175 -14.27615
 Alpha  occ. eigenvalues --  -10.33980 -10.31143 -10.27349 -10.26326 -10.26008
 Alpha  occ. eigenvalues --  -10.24963 -10.24214 -10.24025 -10.23162 -10.23075
 Alpha  occ. eigenvalues --  -10.22644 -10.21744 -10.21404 -10.21257 -10.21143
 Alpha  occ. eigenvalues --  -10.21131 -10.21092 -10.21038 -10.20660 -10.20249
 Alpha  occ. eigenvalues --  -10.20150 -10.20017 -10.19972 -10.19951 -10.19829
 Alpha  occ. eigenvalues --  -10.19644 -10.19028 -10.18977 -10.18907 -10.18703
 Alpha  occ. eigenvalues --  -10.18689 -10.18598 -10.17287  -1.10963  -1.08128
 Alpha  occ. eigenvalues --   -1.05001  -1.02343  -1.00465  -0.98649  -0.98568
 Alpha  occ. eigenvalues --   -0.97762  -0.95526  -0.92688  -0.84674  -0.83221
 Alpha  occ. eigenvalues --   -0.81430  -0.81026  -0.80051  -0.79698  -0.77728
 Alpha  occ. eigenvalues --   -0.77391  -0.76636  -0.75605  -0.74413  -0.73233
 Alpha  occ. eigenvalues --   -0.72694  -0.71552  -0.70743  -0.69893  -0.68975
 Alpha  occ. eigenvalues --   -0.66519  -0.66394  -0.64618  -0.62479  -0.61176
 Alpha  occ. eigenvalues --   -0.60075  -0.58697  -0.58664  -0.57937  -0.57851
 Alpha  occ. eigenvalues --   -0.56737  -0.55985  -0.55063  -0.54130  -0.53401
 Alpha  occ. eigenvalues --   -0.52835  -0.51871  -0.50579  -0.50438  -0.50239
 Alpha  occ. eigenvalues --   -0.49502  -0.49343  -0.48610  -0.48321  -0.47454
 Alpha  occ. eigenvalues --   -0.47262  -0.46830  -0.46574  -0.46389  -0.45989
 Alpha  occ. eigenvalues --   -0.45555  -0.45243  -0.44823  -0.44763  -0.44597
 Alpha  occ. eigenvalues --   -0.43878  -0.43288  -0.43191  -0.43114  -0.42702
 Alpha  occ. eigenvalues --   -0.42523  -0.41944  -0.41801  -0.41595  -0.41488
 Alpha  occ. eigenvalues --   -0.40926  -0.40813  -0.40559  -0.40360  -0.39920
 Alpha  occ. eigenvalues --   -0.39673  -0.39258  -0.38804  -0.38753  -0.38436
 Alpha  occ. eigenvalues --   -0.37846  -0.37494  -0.37044  -0.36948  -0.36817
 Alpha  occ. eigenvalues --   -0.36193  -0.36111  -0.35365  -0.35095  -0.34172
 Alpha  occ. eigenvalues --   -0.33485  -0.33397  -0.32970  -0.31673  -0.31531
 Alpha  occ. eigenvalues --   -0.30961  -0.30772  -0.29572  -0.28606  -0.27824
 Alpha  occ. eigenvalues --   -0.27541  -0.26549  -0.24860  -0.24634  -0.24192
 Alpha  occ. eigenvalues --   -0.24042  -0.23813  -0.23596  -0.22496  -0.18896
 Alpha virt. eigenvalues --   -0.11202  -0.06821  -0.05855  -0.03088  -0.00240
 Alpha virt. eigenvalues --    0.00226   0.00832   0.01398   0.01883   0.02675
 Alpha virt. eigenvalues --    0.02859   0.03968   0.03981   0.04382   0.05076

 Mulliken charges:
               1
     1  O   -0.288448
     2  O   -0.205330
     3  O   -0.252772
     4  O   -0.158894
     5  O   -0.222584
     6  O   -0.123111
     7  N   -0.150377
     8  N   -0.152183
     9  N   -0.004990
    10  N   -0.228238
    11  C    0.068694
    12  C    0.263360
    13  C   -0.109923
    14  C   -0.112504
    15  C   -0.083216
    16  C    0.069141
    17  C   -0.215525
    18  C    0.206084
    19  C    0.014195
    20  C   -0.160287
    21  C    0.023771
    22  C    0.127647
    23  C   -0.031567
    24  C    0.160759
    25  C    0.215636
    26  C   -0.107229
    27  C   -0.115042
    28  C    0.105804
    29  C    0.065831
    30  C   -0.055331
    31  C   -0.109646
    32  C    0.087810
    33  C   -0.064855
    34  C    0.183361
    35  C    0.046185
    36  C   -0.048525
    37  C    0.176177
    38  C    0.124491
    39  C   -0.214926
    40  C    0.118412
    41  C   -0.066861
    42  C    0.094857
    43  C   -0.098181
    44  H    0.054827
    45  H   -0.029185
    46  H   -0.057018
    47  H    0.190548
    48  H    0.101351
    49  H   -0.019638
    50  H    0.004276
    51  H    0.028357
    52  H   -0.064391
    53  H    0.037699
    54  H    0.001783
    55  H    0.005951
    56  H   -0.014099
    57  H    0.024501
    58  H    0.041694
    59  H    0.032084
    60  H    0.102081
    61  H    0.012130
    62  H    0.033797
    63  H    0.059604
    64  H    0.088838
    65  H    0.053605
    66  H   -0.021015
    67  H    0.030143
    68  H    0.043814
    69  H   -0.058794
    70  H    0.017132
    71  H    0.026611
    72  H    0.223630
    73  H    0.020040
    74  H    0.021965
    75  H    0.005309
    76  H    0.006648
    77  H    0.163207
    78  H    0.023359
    79  H    0.037483
 Sum of Mulliken charges =  -0.00000

 Dipole moment (field-independent basis, Debye):
    X=             -0.0355    Y=              1.4560    Z=              3.4603  Tot=              3.7543
 Quadrupole moment (field-independent basis, Debye-Ang):
   XX=           -218.0693   YY=           -240.2429   ZZ=           -268.5040
   XY=             -3.4221   XZ=             37.4624   YZ=              1.1804

 Normal termination of Gaussian 16 at Fri Sep 20 13:35:48 2019.
