 Gaussian 16, Revision A.03,
 Gaussian 16:  ES64L-G16RevA.03 25-Dec-2016

 --------------------------
 # td=(NStates=1) B3LYP/SVP
 --------------------------

 --
 TD
 --
 Symbolic Z-matrix:
 Charge =  0 Multiplicity = 1

                         Standard orientation:
 ---------------------------------------------------------------------
 Center     Atomic      Atomic             Coordinates (Angstroms)
 Number     Number       Type             X           Y           Z
 ---------------------------------------------------------------------
      1          8           0       -3.199539   -1.447798   -2.939184
      2          8           0        2.791506    3.111850    2.977905
      3          8           0        3.469057    1.432030    4.398105
      4          8           0        7.692878   -1.605306   -0.563327
      5          8           0        6.710131   -2.959017   -2.068768
      6          8           0       -2.966263    1.499343    1.298252
      7          7           0       -0.222762   -2.497167    0.905107
      8          7           0       -2.553749   -1.291094   -0.656144
      9          7           0        1.126024    0.125117   -0.701556
     10          7           0       -1.097769    1.529485   -0.155169
     11          6           0       -3.283318   -1.431995    0.539592
     12          6           0       -2.663857   -2.487451    1.559052
     13          6           0       -1.195987   -2.100421    1.740900
     14          6           0       -0.503635   -1.288326    2.805710
     15          6           0        0.813131   -1.249241    2.413921
     16          6           0        1.021941   -1.973914    1.187667
     17          6           0       -4.651910   -1.919648    0.165765
     18          6           0        1.888389   -0.403804    3.123324
     19          6           0       -4.638374   -2.050972   -1.154361
     20          6           0        2.089004   -1.899761    0.187246
     21          6           0        2.129224   -0.854327   -0.705440
     22          6           0       -3.405016   -1.502164   -1.780655
     23          6           0        3.048133   -0.541342   -1.646066
     24          6           0       -1.336351   -0.633520    3.920846
     25          6           0       -5.718325   -2.134075    1.176785
     26          6           0        2.600109    0.520659   -2.344341
     27          6           0        1.857900    1.051531    2.713709
     28          6           0        1.376506    1.002496   -1.740678
     29          6           0        4.303409   -1.370244   -1.933394
     30          6           0       -5.759133   -2.444449   -2.057943
     31          6           0        5.517218   -1.024901   -1.263827
     32          6           0        3.397767    1.308712   -3.435114
     33          6           0        0.641950    2.148495   -1.905060
     34          6           0        2.846907    1.901264    3.497701
     35          6           0       -0.604778    2.358590   -1.063812
     36          6           0       -6.778820   -3.330444   -1.807849
     37          6           0        6.620254   -1.964538   -1.350329
     38          6           0       -1.531535    3.563577   -1.053917
     39          6           0       -2.514835    3.278224   -0.207621
     40          6           0       -2.232915    1.993574    0.443999
     41          6           0       -1.295038    4.706618   -2.008625
     42          6           0       -3.579145    4.241432    0.129963
     43          6           0       -1.834609    5.940639   -2.062536
     44          1           0       -3.462554   -0.348546    1.235148
     45          1           0       -2.645416   -3.435340    1.055655
     46          1           0       -3.098278   -2.692512    2.484935
     47          1           0       -0.512065   -3.024463    0.033831
     48          1           0       -1.957353   -0.406969   -0.987430
     49          1           0        1.646696   -0.524013    4.143037
     50          1           0        2.929112   -0.927777    3.007994
     51          1           0        2.703843   -2.589443    0.139126
     52          1           0       -1.815339   -1.296549    4.685701
     53          1           0       -0.624987   -0.235554    4.575763
     54          1           0       -2.051767   -0.070274    3.597725
     55          1           0       -5.671730   -1.398820    2.093131
     56          1           0       -5.666352   -3.272608    1.527715
     57          1           0       -6.821057   -1.985017    0.656744
     58          1           0        2.082123    1.343476    1.712228
     59          1           0        0.781772    1.589582    2.698874
     60          1           0        0.150063    0.095792   -0.276883
     61          1           0        4.518366   -1.526852   -2.981556
     62          1           0        3.953520   -2.401900   -1.521179
     63          1           0       -5.333420   -2.332776   -3.119843
     64          1           0        5.264170   -1.005946   -0.323252
     65          1           0        5.906809   -0.188588   -1.484102
     66          1           0        4.183387    0.620452   -3.933667
     67          1           0        3.762239    2.283816   -3.135478
     68          1           0        2.791991    1.582037   -4.174456
     69          1           0        0.835598    3.020715   -2.622331
     70          1           0       -7.135545   -3.781131   -0.741661
     71          1           0       -7.226950   -3.764175   -2.680545
     72          1           0        3.463859    3.700966    3.420461
     73          1           0       -0.300190    4.642988   -2.665756
     74          1           0       -4.068151    4.960623   -0.676689
     75          1           0       -4.545077    3.565758    0.787995
     76          1           0       -3.079406    5.113059    1.069003
     77          1           0        8.562539   -2.149636   -0.474998
     78          1           0       -1.416507    6.673045   -2.793930
     79          1           0       -2.593906    6.391752   -1.408516
 ---------------------------------------------------------------------

 SCF Done:  E(RB3LYP) =  -1947.75351896     A.U. after   19 cycles

 Excitation energies and oscillator strengths:

 Excited State   1:      Singlet-A      0.7604 eV 1630.46 nm  f=0.0061  <S**2>=0.000
     155 ->156         0.70277
 This state for optimization and/or second-order correction.
 Total Energy, E(TD-HF/TD-DFT) =  -1947.72557378
 Copying the excited state density for this state as the 1-particle RhoCI density.

 The electronic state is 1-A.
 Alpha  occ. eigenvalues --  -19.19106 -19.18020 -19.13557 -19.12929 -19.12024
 Alpha  occ. eigenvalues --  -19.10381 -14.37258 -14.36972 -14.33952 -14.31580
 Alpha  occ. eigenvalues --  -10.33013 -10.30866 -10.29221 -10.27105 -10.26739
 Alpha  occ. eigenvalues --  -10.26411 -10.24504 -10.24029 -10.22887 -10.22748
 Alpha  occ. eigenvalues --  -10.22530 -10.22521 -10.21861 -10.21776 -10.21764
 Alpha  occ. eigenvalues --  -10.21560 -10.21143 -10.21010 -10.20893 -10.20358
 Alpha  occ. eigenvalues --  -10.20139 -10.19973 -10.19537 -10.19278 -10.19219
 Alpha  occ. eigenvalues --  -10.19216 -10.18959 -10.18741 -10.18282 -10.17263
 Alpha  occ. eigenvalues --  -10.17028 -10.16807 -10.16067  -1.10207  -1.07852
 Alpha  occ. eigenvalues --   -1.04044  -1.03969  -1.01855  -0.99719  -0.99158
 Alpha  occ. eigenvalues --   -0.96318  -0.95352  -0.93094  -0.85900  -0.82396
 Alpha  occ. eigenvalues --   -0.81646  -0.81044  -0.80040  -0.79185  -0.77772
 Alpha  occ. eigenvalues --   -0.76528  -0.75483  -0.75083  -0.73952  -0.73000
 Alpha  occ. eigenvalues --   -0.70497  -0.70204  -0.69770  -0.68902  -0.67170
 Alpha  occ. eigenvalues --   -0.66653  -0.65758  -0.63560  -0.61772  -0.61327
 Alpha  occ. eigenvalues --   -0.59984  -0.59282  -0.58149  -0.58056  -0.57522
 Alpha  occ. eigenvalues --   -0.55801  -0.55089  -0.54868  -0.53932  -0.53306
 Alpha  occ. eigenvalues --   -0.52819  -0.52547  -0.51426  -0.50696  -0.49364
 Alpha  occ. eigenvalues --   -0.49076  -0.48165  -0.48129  -0.47870  -0.47755
 Alpha  occ. eigenvalues --   -0.47315  -0.47166  -0.46264  -0.46095  -0.45880
 Alpha  occ. eigenvalues --   -0.45206  -0.44928  -0.44521  -0.44340  -0.44015
 Alpha  occ. eigenvalues --   -0.43909  -0.43015  -0.42605  -0.42488  -0.42220
 Alpha  occ. eigenvalues --   -0.42203  -0.41795  -0.41189  -0.40947  -0.40713
 Alpha  occ. eigenvalues --   -0.40490  -0.40339  -0.40168  -0.40053  -0.39849
 Alpha  occ. eigenvalues --   -0.38785  -0.38670  -0.38542  -0.38140  -0.37781
 Alpha  occ. eigenvalues --   -0.37401  -0.37269  -0.37055  -0.36810  -0.36473
 Alpha  occ. eigenvalues --   -0.36057  -0.35939  -0.35552  -0.34614  -0.34166
 Alpha  occ. eigenvalues --   -0.32980  -0.32327  -0.32231  -0.31847  -0.31614
 Alpha  occ. eigenvalues --   -0.30608  -0.29936  -0.29842  -0.29058  -0.28342
 Alpha  occ. eigenvalues --   -0.27912  -0.27171  -0.26474  -0.25602  -0.25003
 Alpha  occ. eigenvalues --   -0.24382  -0.22991  -0.22525  -0.22058  -0.18114
 Alpha virt. eigenvalues --   -0.12914  -0.07998  -0.03751  -0.02199  -0.00584
 Alpha virt. eigenvalues --    0.01433   0.02001   0.02298   0.02765   0.02873
 Alpha virt. eigenvalues --    0.02991   0.03636   0.03915   0.04175   0.04852

 Mulliken charges:
               1
     1  O   -0.178944
     2  O   -0.170130
     3  O   -0.203115
     4  O   -0.268732
     5  O   -0.230251
     6  O   -0.203859
     7  N   -0.043617
     8  N   -0.252569
     9  N   -0.138749
    10  N   -0.282612
    11  C   -0.050191
    12  C    0.280116
    13  C   -0.168166
    14  C   -0.125856
    15  C   -0.153453
    16  C   -0.010530
    17  C   -0.094850
    18  C    0.177401
    19  C   -0.123640
    20  C    0.011495
    21  C    0.137650
    22  C    0.133061
    23  C   -0.035599
    24  C    0.210288
    25  C   -0.023410
    26  C   -0.148057
    27  C   -0.056233
    28  C    0.170303
    29  C    0.038202
    30  C   -0.008523
    31  C    0.261531
    32  C    0.156053
    33  C   -0.110400
    34  C    0.124249
    35  C    0.023224
    36  C   -0.077076
    37  C    0.118055
    38  C    0.069867
    39  C   -0.137054
    40  C    0.191533
    41  C   -0.032529
    42  C   -0.129671
    43  C   -0.057253
    44  H    0.119779
    45  H   -0.046280
    46  H   -0.017007
    47  H    0.129097
    48  H    0.179151
    49  H   -0.010410
    50  H    0.006745
    51  H   -0.124083
    52  H   -0.012250
    53  H   -0.031370
    54  H   -0.020747
    55  H    0.049940
    56  H    0.056237
    57  H    0.058809
    58  H    0.000755
    59  H    0.052191
    60  H    0.205908
    61  H    0.017648
    62  H    0.027910
    63  H    0.032063
    64  H   -0.029350
    65  H   -0.037545
    66  H    0.032262
    67  H    0.026339
    68  H   -0.024513
    69  H    0.011394
    70  H    0.045185
    71  H    0.021162
    72  H    0.184245
    73  H    0.026876
    74  H    0.072666
    75  H    0.063177
    76  H    0.054712
    77  H    0.227897
    78  H    0.032804
    79  H    0.030646
 Sum of Mulliken charges =  -0.00000

 Dipole moment (field-independent basis, Debye):
    X=              3.8870    Y=              4.0933    Z=             -0.8438  Tot=              5.7075
 Quadrupole moment (field-independent basis, Debye-Ang):
   XX=           -236.1498   YY=           -231.1078   ZZ=           -271.1554
   XY=             10.7046   XZ=            -17.9198   YZ=            -14.4674

 Normal termination of Gaussian 16 at Sun Jul 28 06:37:22 2019.
