 Gaussian 16, Revision A.03,
 Gaussian 16:  ES64L-G16RevA.03 25-Dec-2016

 --------------------------
 # td=(NStates=1) B3LYP/SVP
 --------------------------

 --
 TD
 --
 Symbolic Z-matrix:
 Charge =  0 Multiplicity = 1

                         Standard orientation:
 ---------------------------------------------------------------------
 Center     Atomic      Atomic             Coordinates (Angstroms)
 Number     Number       Type             X           Y           Z
 ---------------------------------------------------------------------
      1          8           0        5.578854    0.343593   -3.247417
      2          8           0       -2.785900   -3.141582    3.287805
      3          8           0       -3.332454   -1.014973    3.025629
      4          8           0       -2.522491    7.107343    1.594347
      5          8           0       -1.530811    7.163854   -0.498509
      6          8           0       -1.514990   -4.046531    0.195482
      7          7           0        2.283464    1.124713    0.609769
      8          7           0        4.479148   -0.291088   -1.301326
      9          7           0       -1.885496    0.568243   -0.479443
     10          7           0       -2.359550   -2.064935   -0.474022
     11          6           0        4.871674   -0.820781    0.034759
     12          6           0        4.452908    0.015438    1.267100
     13          6           0        2.934704    0.170628    1.292214
     14          6           0        2.042835   -0.441583    2.131744
     15          6           0        0.737077   -0.029711    1.691921
     16          6           0        0.970569    1.078896    0.857373
     17          6           0        6.411707   -1.017701   -0.128671
     18          6           0       -0.515158   -0.260091    2.472061
     19          6           0        6.816464   -0.553243   -1.290676
     20          6           0        0.104397    1.999684    0.175896
     21          6           0       -1.263472    1.733567   -0.244024
     22          6           0        5.560117   -0.142757   -2.129994
     23          6           0       -2.080710    2.730947   -0.828667
     24          6           0        2.274975   -1.603221    3.061139
     25          6           0        7.130198   -1.701419    0.923205
     26          6           0       -3.206640    2.133758   -1.342322
     27          6           0       -0.974815   -1.766116    2.543588
     28          6           0       -3.119499    0.731389   -1.026565
     29          6           0       -1.846365    4.281418   -0.928300
     30          6           0        8.102050   -0.474222   -1.942204
     31          6           0       -2.359527    5.055257    0.325669
     32          6           0       -4.340283    2.840344   -1.935736
     33          6           0       -3.927234   -0.336615   -1.356093
     34          6           0       -2.474429   -1.868368    2.925040
     35          6           0       -3.540010   -1.630842   -1.154254
     36          6           0        9.368120   -0.564920   -1.363793
     37          6           0       -2.033162    6.507498    0.339530
     38          6           0       -4.307809   -2.908209   -1.473394
     39          6           0       -3.553924   -4.012728   -1.017851
     40          6           0       -2.400246   -3.458253   -0.490980
     41          6           0       -5.559857   -2.797744   -2.246453
     42          6           0       -3.894441   -5.426835   -1.102934
     43          6           0       -6.384903   -3.797058   -2.652933
     44          1           0        4.346305   -1.769944    0.148398
     45          1           0        4.906928    0.931409    1.287074
     46          1           0        4.776132   -0.455459    2.193269
     47          1           0        2.739567    1.701851    0.035639
     48          1           0        3.541724   -0.225062   -1.703422
     49          1           0       -0.271144    0.011677    3.444467
     50          1           0       -1.568444    0.270389    2.034173
     51          1           0        0.305259    2.983786   -0.206054
     52          1           0        3.293128   -1.657245    3.348672
     53          1           0        1.668627   -1.495390    4.037920
     54          1           0        1.905709   -2.516581    2.693844
     55          1           0        6.313373   -2.044336    1.623909
     56          1           0        7.773074   -0.923158    1.576720
     57          1           0        7.922801   -2.358945    0.571937
     58          1           0       -1.140859   -2.195906    1.447796
     59          1           0       -0.497599   -2.302426    3.189796
     60          1           0       -1.481492   -0.400107   -0.379936
     61          1           0       -2.304539    4.402238   -1.984580
     62          1           0       -0.614045    4.608003   -0.836495
     63          1           0        7.859609   -0.450226   -3.149744
     64          1           0       -1.996687    4.785615    1.221215
     65          1           0       -3.407899    4.968302    0.736455
     66          1           0       -4.186667    4.028628   -1.909302
     67          1           0       -5.249831    2.597258   -1.340468
     68          1           0       -4.423307    2.738135   -3.013780
     69          1           0       -4.640165   -0.067367   -2.039736
     70          1           0        9.247243   -0.682649   -0.159315
     71          1           0       10.210647   -0.539886   -1.981327
     72          1           0       -3.826477   -3.170323    3.445876
     73          1           0       -6.006649   -1.760294   -2.635619
     74          1           0       -4.917509   -5.730940   -0.756570
     75          1           0       -4.006477   -5.788113   -2.104178
     76          1           0       -3.272487   -6.098340   -0.474969
     77          1           0       -2.118293    7.978305    1.581557
     78          1           0       -7.349225   -3.281630   -3.135419
     79          1           0       -6.262827   -4.741878   -2.463700
 ---------------------------------------------------------------------

 SCF Done:  E(RB3LYP) =  -1947.84064420     A.U. after   19 cycles

 Excitation energies and oscillator strengths:

 Excited State   1:      Singlet-A      1.8690 eV  663.39 nm  f=0.2563  <S**2>=0.000
     154 ->156         0.31663
     155 ->156         0.62481
     155 <-156        -0.11955
 This state for optimization and/or second-order correction.
 Total Energy, E(TD-HF/TD-DFT) =  -1947.77196109
 Copying the excited state density for this state as the 1-particle RhoCI density.

 The electronic state is 1-A.
 Alpha  occ. eigenvalues --  -19.16680 -19.15735 -19.15018 -19.10578 -19.10367
 Alpha  occ. eigenvalues --  -19.08756 -14.38843 -14.36672 -14.36364 -14.28645
 Alpha  occ. eigenvalues --  -10.32990 -10.29634 -10.28953 -10.25963 -10.24872
 Alpha  occ. eigenvalues --  -10.24824 -10.24399 -10.24364 -10.23936 -10.23772
 Alpha  occ. eigenvalues --  -10.23384 -10.23143 -10.22248 -10.22143 -10.21906
 Alpha  occ. eigenvalues --  -10.21716 -10.21369 -10.21279 -10.21203 -10.21135
 Alpha  occ. eigenvalues --  -10.21088 -10.21074 -10.20478 -10.19957 -10.19927
 Alpha  occ. eigenvalues --  -10.19694 -10.19618 -10.19582 -10.19534 -10.19530
 Alpha  occ. eigenvalues --  -10.18721 -10.18694 -10.17719  -1.09353  -1.06369
 Alpha  occ. eigenvalues --   -1.02705  -1.02251  -1.00500  -0.99923  -0.98583
 Alpha  occ. eigenvalues --   -0.96832  -0.93969  -0.89323  -0.83257  -0.83102
 Alpha  occ. eigenvalues --   -0.82694  -0.82463  -0.80878  -0.79737  -0.79019
 Alpha  occ. eigenvalues --   -0.77767  -0.76398  -0.75896  -0.75320  -0.73436
 Alpha  occ. eigenvalues --   -0.72177  -0.71569  -0.70171  -0.69387  -0.68938
 Alpha  occ. eigenvalues --   -0.67475  -0.66842  -0.65174  -0.62069  -0.61351
 Alpha  occ. eigenvalues --   -0.59097  -0.58855  -0.58582  -0.57842  -0.57450
 Alpha  occ. eigenvalues --   -0.57287  -0.55904  -0.55186  -0.54413  -0.53688
 Alpha  occ. eigenvalues --   -0.52907  -0.51702  -0.50921  -0.50618  -0.49768
 Alpha  occ. eigenvalues --   -0.49272  -0.48854  -0.48593  -0.48281  -0.48008
 Alpha  occ. eigenvalues --   -0.47652  -0.46890  -0.46761  -0.46325  -0.46026
 Alpha  occ. eigenvalues --   -0.45311  -0.45128  -0.44773  -0.44399  -0.44013
 Alpha  occ. eigenvalues --   -0.43800  -0.43454  -0.43274  -0.42940  -0.42732
 Alpha  occ. eigenvalues --   -0.42513  -0.42296  -0.41841  -0.41581  -0.41373
 Alpha  occ. eigenvalues --   -0.41243  -0.41108  -0.41000  -0.40366  -0.39777
 Alpha  occ. eigenvalues --   -0.39731  -0.39537  -0.39226  -0.39012  -0.38624
 Alpha  occ. eigenvalues --   -0.38518  -0.38188  -0.37854  -0.37166  -0.36820
 Alpha  occ. eigenvalues --   -0.36071  -0.35744  -0.35022  -0.34607  -0.34409
 Alpha  occ. eigenvalues --   -0.34141  -0.33673  -0.32667  -0.32375  -0.31255
 Alpha  occ. eigenvalues --   -0.31122  -0.29761  -0.29594  -0.28372  -0.27031
 Alpha  occ. eigenvalues --   -0.26443  -0.26092  -0.25996  -0.25521  -0.25430
 Alpha  occ. eigenvalues --   -0.24612  -0.24096  -0.23300  -0.21925  -0.19247
 Alpha virt. eigenvalues --   -0.11856  -0.07527  -0.05883  -0.00766  -0.00658
 Alpha virt. eigenvalues --    0.00911   0.01680   0.02229   0.02486   0.02949
 Alpha virt. eigenvalues --    0.03588   0.03967   0.04348   0.05012   0.05275

 Mulliken charges:
               1
     1  O   -0.223108
     2  O   -0.238557
     3  O   -0.247224
     4  O   -0.276642
     5  O   -0.164245
     6  O   -0.257919
     7  N    0.066222
     8  N   -0.217098
     9  N   -0.052136
    10  N   -0.345694
    11  C    0.089653
    12  C    0.270584
    13  C   -0.144738
    14  C   -0.149681
    15  C   -0.064601
    16  C    0.090622
    17  C   -0.169391
    18  C    0.007132
    19  C   -0.053089
    20  C   -0.034480
    21  C    0.015286
    22  C    0.149309
    23  C   -0.085246
    24  C    0.129515
    25  C    0.056324
    26  C   -0.111843
    27  C    0.017139
    28  C    0.072593
    29  C    0.008506
    30  C   -0.065682
    31  C    0.097279
    32  C    0.052679
    33  C   -0.046283
    34  C    0.118355
    35  C    0.112447
    36  C   -0.025525
    37  C    0.118074
    38  C    0.073599
    39  C   -0.109323
    40  C    0.135578
    41  C   -0.094365
    42  C    0.089161
    43  C    0.021116
    44  H    0.017412
    45  H   -0.036039
    46  H   -0.007993
    47  H    0.062478
    48  H    0.133640
    49  H   -0.002645
    50  H    0.075053
    51  H   -0.036121
    52  H   -0.015028
    53  H    0.016912
    54  H    0.040473
    55  H    0.027883
    56  H    0.047822
    57  H    0.045191
    58  H    0.122133
    59  H   -0.033810
    60  H    0.161877
    61  H    0.067450
    62  H    0.052842
    63  H    0.054628
    64  H   -0.012544
    65  H    0.043529
    66  H    0.025234
    67  H    0.048797
    68  H    0.027538
    69  H   -0.055226
    70  H    0.038210
    71  H    0.022811
    72  H    0.207922
    73  H    0.028773
    74  H    0.011637
    75  H    0.014903
    76  H    0.031350
    77  H    0.169278
    78  H    0.043182
    79  H   -0.053854
 Sum of Mulliken charges =  -0.00000

 Dipole moment (field-independent basis, Debye):
    X=              0.9145    Y=              1.9529    Z=              2.0565  Tot=              2.9798
 Quadrupole moment (field-independent basis, Debye-Ang):
   XX=           -227.4802   YY=           -257.1583   ZZ=           -262.3614
   XY=             -3.8986   XZ=             38.2129   YZ=              6.1016

 Normal termination of Gaussian 16 at Mon Sep 16 18:07:29 2019.
