 Gaussian 16, Revision A.03,
 Gaussian 16:  ES64L-G16RevA.03 25-Dec-2016

 --------------------------
 # td=(NStates=1) B3LYP/SVP
 --------------------------

 --
 TD
 --
 Symbolic Z-matrix:
 Charge =  0 Multiplicity = 1

                         Standard orientation:
 ---------------------------------------------------------------------
 Center     Atomic      Atomic             Coordinates (Angstroms)
 Number     Number       Type             X           Y           Z
 ---------------------------------------------------------------------
      1          8           0        5.343511   -0.354983   -3.362467
      2          8           0       -3.000889   -2.943217    3.208840
      3          8           0       -3.432862   -0.785286    2.939088
      4          8           0       -1.179070    7.102841    1.608936
      5          8           0       -0.714092    7.095661   -0.583533
      6          8           0       -1.763511   -3.915330    0.022230
      7          7           0        2.293793    0.842675    0.632462
      8          7           0        4.402372   -0.692392   -1.284286
      9          7           0       -1.899467    0.739229   -0.380950
     10          7           0       -2.676614   -1.850138   -0.431323
     11          6           0        4.833175   -1.279312   -0.002139
     12          6           0        4.465789   -0.469346    1.301390
     13          6           0        2.952547   -0.188229    1.333817
     14          6           0        1.955634   -0.654220    2.187837
     15          6           0        0.689439   -0.004744    1.908829
     16          6           0        0.945399    0.924980    0.933020
     17          6           0        6.346586   -1.381952   -0.169351
     18          6           0       -0.659652   -0.179429    2.587320
     19          6           0        6.683681   -0.908726   -1.413598
     20          6           0        0.138347    1.995405    0.257732
     21          6           0       -1.077658    1.903806   -0.338838
     22          6           0        5.503577   -0.671767   -2.241211
     23          6           0       -1.902397    2.958599   -0.831898
     24          6           0        2.096746   -1.760515    3.129035
     25          6           0        7.151916   -1.911394    1.004322
     26          6           0       -3.165198    2.461249   -1.311895
     27          6           0       -1.130789   -1.570322    2.665192
     28          6           0       -3.029168    0.984949   -1.057014
     29          6           0       -1.455035    4.356556   -0.872519
     30          6           0        7.967907   -0.786054   -2.149003
     31          6           0       -1.651759    5.028617    0.389136
     32          6           0       -4.234770    3.099660   -2.072784
     33          6           0       -3.955994    0.002597   -1.288394
     34          6           0       -2.651057   -1.707825    2.970588
     35          6           0       -3.785752   -1.372773   -1.048547
     36          6           0        9.188798   -0.708197   -1.560044
     37          6           0       -1.113833    6.541393    0.326101
     38          6           0       -4.722440   -2.509437   -1.424812
     39          6           0       -3.994999   -3.718015   -1.043058
     40          6           0       -2.702607   -3.237516   -0.406891
     41          6           0       -5.997761   -2.364528   -2.182622
     42          6           0       -4.364729   -5.154332   -1.194461
     43          6           0       -6.787782   -3.381173   -2.542657
     44          1           0        4.191418   -2.234546    0.087654
     45          1           0        4.896358    0.473350    1.452899
     46          1           0        4.717090   -0.966105    2.207621
     47          1           0        2.812924    1.437699   -0.032605
     48          1           0        3.496962   -0.601963   -1.592941
     49          1           0       -0.548648   -0.011365    3.648885
     50          1           0       -1.321868    0.445933    2.046311
     51          1           0        0.537938    2.880041    0.239396
     52          1           0        3.197366   -2.031348    3.388595
     53          1           0        1.916794   -1.488498    4.315052
     54          1           0        1.533498   -2.670774    2.942811
     55          1           0        6.691290   -2.910726    1.444799
     56          1           0        7.340024   -0.985184    1.563313
     57          1           0        8.008252   -2.327856    0.437151
     58          1           0       -1.029753   -2.007334    1.676571
     59          1           0       -0.367579   -2.009409    3.317722
     60          1           0       -1.707251   -0.270255   -0.111237
     61          1           0       -2.013847    4.988437   -1.717072
     62          1           0       -0.495673    4.350657   -1.164981
     63          1           0        7.863952   -0.830122   -3.242651
     64          1           0       -1.099719    4.525226    1.225033
     65          1           0       -2.696643    5.071370    0.871328
     66          1           0       -4.035338    4.240866   -2.346092
     67          1           0       -5.108911    3.066671   -1.469187
     68          1           0       -4.242031    2.793645   -3.100749
     69          1           0       -4.998807    0.153745   -1.831941
     70          1           0        9.336891   -0.745958   -0.441898
     71          1           0       10.217598   -0.616967   -2.075571
     72          1           0       -4.035149   -2.891659    3.245826
     73          1           0       -6.192759   -1.377748   -2.795988
     74          1           0       -5.385839   -5.452146   -0.817341
     75          1           0       -4.682903   -5.532122   -2.203385
     76          1           0       -3.580304   -5.945283   -0.901091
     77          1           0       -0.689963    8.057845    1.462925
     78          1           0       -7.773152   -3.133813   -3.150438
     79          1           0       -6.834448   -4.345439   -2.050289
 ---------------------------------------------------------------------

 SCF Done:  E(RB3LYP) =  -1947.90348962     A.U. after   17 cycles

 Excitation energies and oscillator strengths:

 Excited State   1:      Singlet-A      2.0823 eV  595.42 nm  f=0.2692  <S**2>=0.000
     153 ->156         0.10876
     154 ->156         0.20371
     155 ->156         0.65984
 This state for optimization and/or second-order correction.
 Total Energy, E(TD-HF/TD-DFT) =  -1947.82696652
 Copying the excited state density for this state as the 1-particle RhoCI density.

 The electronic state is 1-A.
 Alpha  occ. eigenvalues --  -19.18177 -19.17642 -19.14913 -19.10777 -19.10575
 Alpha  occ. eigenvalues --  -19.10241 -14.37639 -14.36394 -14.33195 -14.28854
 Alpha  occ. eigenvalues --  -10.32513 -10.30159 -10.28264 -10.26643 -10.25174
 Alpha  occ. eigenvalues --  -10.25140 -10.24619 -10.23750 -10.22811 -10.22622
 Alpha  occ. eigenvalues --  -10.22516 -10.22182 -10.22162 -10.21962 -10.21853
 Alpha  occ. eigenvalues --  -10.21810 -10.21686 -10.21590 -10.21418 -10.21399
 Alpha  occ. eigenvalues --  -10.20919 -10.20773 -10.20694 -10.20653 -10.20395
 Alpha  occ. eigenvalues --  -10.20272 -10.20137 -10.19925 -10.19658 -10.18218
 Alpha  occ. eigenvalues --  -10.18200 -10.17284 -10.17173  -1.11642  -1.09196
 Alpha  occ. eigenvalues --   -1.04622  -1.00980  -1.00367  -0.98767  -0.98095
 Alpha  occ. eigenvalues --   -0.96914  -0.92365  -0.90849  -0.84394  -0.81772
 Alpha  occ. eigenvalues --   -0.81537  -0.80786  -0.79519  -0.79393  -0.78403
 Alpha  occ. eigenvalues --   -0.76952  -0.76178  -0.75420  -0.74446  -0.72773
 Alpha  occ. eigenvalues --   -0.71813  -0.70985  -0.69289  -0.68114  -0.67409
 Alpha  occ. eigenvalues --   -0.65934  -0.65560  -0.64155  -0.60658  -0.60208
 Alpha  occ. eigenvalues --   -0.58525  -0.58038  -0.57806  -0.57546  -0.56792
 Alpha  occ. eigenvalues --   -0.56118  -0.54974  -0.54671  -0.53295  -0.52851
 Alpha  occ. eigenvalues --   -0.52420  -0.51447  -0.50495  -0.50208  -0.49902
 Alpha  occ. eigenvalues --   -0.49335  -0.49196  -0.48796  -0.47991  -0.47469
 Alpha  occ. eigenvalues --   -0.47439  -0.47196  -0.47035  -0.46515  -0.46173
 Alpha  occ. eigenvalues --   -0.45476  -0.45058  -0.44622  -0.44391  -0.44069
 Alpha  occ. eigenvalues --   -0.43558  -0.43368  -0.43246  -0.42814  -0.42533
 Alpha  occ. eigenvalues --   -0.42420  -0.42106  -0.41827  -0.41508  -0.41233
 Alpha  occ. eigenvalues --   -0.41137  -0.40676  -0.40428  -0.40249  -0.40048
 Alpha  occ. eigenvalues --   -0.39770  -0.39067  -0.38864  -0.38678  -0.38136
 Alpha  occ. eigenvalues --   -0.37949  -0.37520  -0.37376  -0.36646  -0.36221
 Alpha  occ. eigenvalues --   -0.35626  -0.35224  -0.34755  -0.34632  -0.34097
 Alpha  occ. eigenvalues --   -0.33920  -0.33157  -0.33100  -0.31936  -0.31697
 Alpha  occ. eigenvalues --   -0.31433  -0.30703  -0.29764  -0.28674  -0.27010
 Alpha  occ. eigenvalues --   -0.26378  -0.26365  -0.25629  -0.25387  -0.24270
 Alpha  occ. eigenvalues --   -0.24104  -0.23571  -0.23206  -0.21982  -0.19895
 Alpha virt. eigenvalues --   -0.11276  -0.07007  -0.06090  -0.01136   0.00887
 Alpha virt. eigenvalues --    0.01101   0.01572   0.02338   0.02922   0.03587
 Alpha virt. eigenvalues --    0.03663   0.04056   0.04710   0.05063   0.05285

 Mulliken charges:
               1
     1  O   -0.166165
     2  O   -0.165718
     3  O   -0.243005
     4  O   -0.281321
     5  O   -0.134667
     6  O   -0.210168
     7  N   -0.116813
     8  N   -0.249051
     9  N   -0.107892
    10  N   -0.296773
    11  C    0.098466
    12  C    0.243022
    13  C   -0.108086
    14  C   -0.092113
    15  C   -0.113202
    16  C    0.061926
    17  C   -0.191450
    18  C    0.211772
    19  C   -0.061702
    20  C   -0.044427
    21  C    0.164327
    22  C    0.152550
    23  C   -0.114417
    24  C   -0.009040
    25  C    0.073069
    26  C   -0.107091
    27  C   -0.059977
    28  C    0.128882
    29  C    0.176524
    30  C    0.014419
    31  C   -0.071147
    32  C    0.098878
    33  C   -0.119732
    34  C    0.136089
    35  C    0.039947
    36  C   -0.079904
    37  C    0.132790
    38  C    0.034600
    39  C   -0.144036
    40  C    0.161350
    41  C   -0.032912
    42  C    0.027957
    43  C   -0.071231
    44  H    0.040315
    45  H   -0.020708
    46  H   -0.016964
    47  H    0.114849
    48  H    0.090643
    49  H   -0.015388
    50  H   -0.011640
    51  H   -0.081490
    52  H   -0.006729
    53  H    0.015461
    54  H    0.060134
    55  H    0.056356
    56  H    0.062548
    57  H    0.039832
    58  H    0.051791
    59  H    0.017010
    60  H    0.172213
    61  H    0.028598
    62  H   -0.027422
    63  H    0.024114
    64  H    0.039037
    65  H    0.051893
    66  H    0.015159
    67  H    0.036926
    68  H    0.035011
    69  H    0.001384
    70  H    0.022919
    71  H    0.044616
    72  H    0.200041
    73  H    0.035624
    74  H    0.024303
    75  H    0.015321
    76  H    0.049920
    77  H    0.215000
    78  H    0.038909
    79  H    0.015884
 Sum of Mulliken charges =  -0.00000

 Dipole moment (field-independent basis, Debye):
    X=              0.5142    Y=              2.4793    Z=              1.7549  Tot=              3.0808
 Quadrupole moment (field-independent basis, Debye-Ang):
   XX=           -213.5690   YY=           -241.2339   ZZ=           -264.1611
   XY=             -1.6726   XZ=             34.5838   YZ=              0.0021

 Normal termination of Gaussian 16 at Fri Oct 11 03:32:11 2019.
