 Gaussian 16, Revision A.03,
 Gaussian 16:  ES64L-G16RevA.03 25-Dec-2016

 --------------------------
 # td=(NStates=1) B3LYP/SVP
 --------------------------

 --
 TD
 --
 Symbolic Z-matrix:
 Charge =  0 Multiplicity = 1

                         Standard orientation:
 ---------------------------------------------------------------------
 Center     Atomic      Atomic             Coordinates (Angstroms)
 Number     Number       Type             X           Y           Z
 ---------------------------------------------------------------------
      1          8           0        5.258368   -0.441445   -3.275941
      2          8           0       -3.118648   -2.887128    3.114086
      3          8           0       -3.350106   -0.596638    3.145368
      4          8           0       -1.253065    7.184735    1.410810
      5          8           0       -0.379202    6.994793   -0.676117
      6          8           0       -1.850916   -3.907238    0.018024
      7          7           0        2.415016    0.830702    0.683108
      8          7           0        4.332510   -0.689494   -1.252545
      9          7           0       -1.757626    0.724665   -0.438845
     10          7           0       -2.677618   -1.900435   -0.596489
     11          6           0        4.779170   -1.249103    0.060287
     12          6           0        4.473930   -0.318331    1.313299
     13          6           0        2.989142   -0.096231    1.459003
     14          6           0        1.969500   -0.680627    2.217293
     15          6           0        0.693690   -0.105266    1.869702
     16          6           0        1.016240    0.899036    0.827781
     17          6           0        6.301888   -1.366966   -0.171995
     18          6           0       -0.621605   -0.152374    2.598998
     19          6           0        6.550745   -0.986657   -1.447261
     20          6           0        0.288175    1.985529    0.257722
     21          6           0       -1.021944    1.862857   -0.281952
     22          6           0        5.393845   -0.625155   -2.147127
     23          6           0       -1.825170    2.941478   -0.795370
     24          6           0        2.134565   -1.794961    3.283118
     25          6           0        7.160057   -1.878319    0.934203
     26          6           0       -3.103881    2.324783   -1.245185
     27          6           0       -1.212542   -1.507967    2.538200
     28          6           0       -2.965920    1.035652   -1.057132
     29          6           0       -1.424650    4.373514   -0.874433
     30          6           0        7.863354   -1.044302   -2.191018
     31          6           0       -1.521652    5.030563    0.395615
     32          6           0       -4.216658    3.121195   -1.942165
     33          6           0       -3.956965    0.076698   -1.371474
     34          6           0       -2.632185   -1.623847    2.865219
     35          6           0       -3.789932   -1.439521   -1.132734
     36          6           0        9.127282   -1.017055   -1.621633
     37          6           0       -0.995116    6.404346    0.283512
     38          6           0       -4.714985   -2.478368   -1.444429
     39          6           0       -4.020309   -3.650483   -1.130813
     40          6           0       -2.729637   -3.350302   -0.486106
     41          6           0       -6.049474   -2.301362   -2.015905
     42          6           0       -4.555402   -5.088753   -1.178157
     43          6           0       -7.001972   -3.236557   -2.394347
     44          1           0        4.400949   -2.215858    0.093002
     45          1           0        4.954039    0.671000    1.085637
     46          1           0        4.892366   -0.858459    2.250417
     47          1           0        2.860369    1.602000    0.023475
     48          1           0        3.287560   -0.798946   -1.417147
     49          1           0       -0.480206    0.134768    3.676103
     50          1           0       -1.321931    0.557751    2.110784
     51          1           0        0.687765    3.065892    0.129884
     52          1           0        3.125154   -1.976586    3.260917
     53          1           0        1.577547   -1.654269    4.141337
     54          1           0        1.756079   -2.792227    2.929132
     55          1           0        6.615458   -2.717617    1.448093
     56          1           0        7.455376   -1.192367    1.829471
     57          1           0        8.116422   -2.469431    0.633856
     58          1           0       -1.295124   -1.881838    1.383561
     59          1           0       -0.671136   -2.254308    3.191622
     60          1           0       -1.278902   -0.107433   -0.460625
     61          1           0       -2.150154    4.934854   -1.643144
     62          1           0       -0.340063    4.423735   -1.364802
     63          1           0        7.738149   -0.935335   -3.280315
     64          1           0       -0.655574    4.560483    0.991410
     65          1           0       -2.483933    4.939030    1.088492
     66          1           0       -4.286855    4.334491   -1.411716
     67          1           0       -5.067091    2.532819   -1.455354
     68          1           0       -4.328956    3.217187   -3.086747
     69          1           0       -4.906466    0.500026   -1.904094
     70          1           0        9.153917   -0.734869   -0.454751
     71          1           0       10.023781   -1.033359   -2.301842
     72          1           0       -4.014387   -2.751515    3.509471
     73          1           0       -6.691039   -1.353143   -2.145905
     74          1           0       -5.464814   -5.129679   -0.633010
     75          1           0       -4.667862   -5.403390   -2.146280
     76          1           0       -3.626497   -5.768158   -0.755479
     77          1           0       -0.951382    8.009061    1.138943
     78          1           0       -8.047607   -2.948697   -2.843627
     79          1           0       -6.841868   -4.419171   -2.115512
 ---------------------------------------------------------------------

 SCF Done:  E(RB3LYP) =  -1947.81502043     A.U. after   19 cycles

 Excitation energies and oscillator strengths:

 Excited State   1:      Singlet-A      1.7163 eV  722.38 nm  f=0.4043  <S**2>=0.000
     155 ->156         0.69859
     155 ->157         0.10563
     155 <-156        -0.15167
 This state for optimization and/or second-order correction.
 Total Energy, E(TD-HF/TD-DFT) =  -1947.75194615
 Copying the excited state density for this state as the 1-particle RhoCI density.

 The electronic state is 1-A.
 Alpha  occ. eigenvalues --  -19.17931 -19.17111 -19.13521 -19.12185 -19.10266
 Alpha  occ. eigenvalues --  -19.09845 -14.39401 -14.35608 -14.34644 -14.27725
 Alpha  occ. eigenvalues --  -10.33456 -10.30595 -10.27594 -10.26844 -10.24673
 Alpha  occ. eigenvalues --  -10.23994 -10.23840 -10.23664 -10.23641 -10.23555
 Alpha  occ. eigenvalues --  -10.23367 -10.23243 -10.23221 -10.22895 -10.22724
 Alpha  occ. eigenvalues --  -10.22560 -10.22294 -10.21986 -10.21719 -10.21560
 Alpha  occ. eigenvalues --  -10.21285 -10.21121 -10.20894 -10.20754 -10.20739
 Alpha  occ. eigenvalues --  -10.20380 -10.20375 -10.20186 -10.19795 -10.19441
 Alpha  occ. eigenvalues --  -10.19266 -10.18938 -10.18719  -1.09015  -1.06216
 Alpha  occ. eigenvalues --   -1.06097  -1.05924  -0.98851  -0.98461  -0.98210
 Alpha  occ. eigenvalues --   -0.95535  -0.93553  -0.91967  -0.84117  -0.82235
 Alpha  occ. eigenvalues --   -0.81703  -0.81001  -0.80181  -0.79457  -0.78055
 Alpha  occ. eigenvalues --   -0.77104  -0.75964  -0.75121  -0.73849  -0.71955
 Alpha  occ. eigenvalues --   -0.71467  -0.70935  -0.69703  -0.68991  -0.68890
 Alpha  occ. eigenvalues --   -0.67110  -0.65958  -0.64019  -0.60720  -0.60502
 Alpha  occ. eigenvalues --   -0.59374  -0.58534  -0.57795  -0.57010  -0.56965
 Alpha  occ. eigenvalues --   -0.55962  -0.55129  -0.54970  -0.53751  -0.53109
 Alpha  occ. eigenvalues --   -0.51904  -0.51605  -0.50686  -0.50662  -0.49787
 Alpha  occ. eigenvalues --   -0.49068  -0.48517  -0.48318  -0.47819  -0.47385
 Alpha  occ. eigenvalues --   -0.47173  -0.46614  -0.45948  -0.45708  -0.45335
 Alpha  occ. eigenvalues --   -0.45050  -0.44874  -0.44839  -0.44086  -0.43749
 Alpha  occ. eigenvalues --   -0.43543  -0.43208  -0.42778  -0.42562  -0.42417
 Alpha  occ. eigenvalues --   -0.42171  -0.42056  -0.41733  -0.41700  -0.41445
 Alpha  occ. eigenvalues --   -0.41120  -0.40877  -0.40809  -0.40354  -0.40180
 Alpha  occ. eigenvalues --   -0.39515  -0.39423  -0.38817  -0.38697  -0.38616
 Alpha  occ. eigenvalues --   -0.38362  -0.38061  -0.37863  -0.37632  -0.36729
 Alpha  occ. eigenvalues --   -0.36449  -0.35838  -0.34738  -0.34234  -0.33785
 Alpha  occ. eigenvalues --   -0.33558  -0.33315  -0.32842  -0.31820  -0.31387
 Alpha  occ. eigenvalues --   -0.30852  -0.29334  -0.28705  -0.28590  -0.27900
 Alpha  occ. eigenvalues --   -0.26933  -0.26016  -0.25693  -0.25307  -0.24635
 Alpha  occ. eigenvalues --   -0.24363  -0.23831  -0.23360  -0.22064  -0.18291
 Alpha virt. eigenvalues --   -0.11766  -0.07910  -0.06261  -0.02723  -0.00893
 Alpha virt. eigenvalues --    0.00212   0.00340   0.00506   0.01765   0.02432
 Alpha virt. eigenvalues --    0.02918   0.03999   0.04112   0.05049   0.05238

 Mulliken charges:
               1
     1  O   -0.142016
     2  O   -0.207461
     3  O   -0.313528
     4  O   -0.174105
     5  O   -0.291226
     6  O   -0.102312
     7  N   -0.112960
     8  N   -0.266568
     9  N   -0.016836
    10  N   -0.303586
    11  C    0.090309
    12  C    0.174797
    13  C   -0.063738
    14  C   -0.188750
    15  C   -0.091975
    16  C    0.047186
    17  C   -0.137875
    18  C    0.151761
    19  C   -0.061703
    20  C   -0.104550
    21  C    0.015176
    22  C    0.128550
    23  C   -0.086135
    24  C    0.209193
    25  C    0.004899
    26  C   -0.083024
    27  C   -0.063192
    28  C    0.144675
    29  C   -0.013692
    30  C   -0.013888
    31  C    0.023653
    32  C   -0.038456
    33  C   -0.137187
    34  C    0.156192
    35  C    0.045053
    36  C   -0.068903
    37  C    0.143378
    38  C    0.117666
    39  C   -0.258354
    40  C    0.155062
    41  C   -0.062592
    42  C    0.101833
    43  C   -0.138602
    44  H    0.004673
    45  H    0.003138
    46  H    0.030329
    47  H    0.161360
    48  H    0.147095
    49  H    0.018024
    50  H    0.021329
    51  H    0.014676
    52  H   -0.051185
    53  H    0.005338
    54  H    0.019813
    55  H    0.016725
    56  H    0.060145
    57  H    0.047863
    58  H    0.107081
    59  H    0.035315
    60  H    0.112663
    61  H    0.038421
    62  H    0.063457
    63  H    0.021934
    64  H    0.049503
    65  H    0.087950
    66  H    0.042558
    67  H    0.047681
    68  H    0.075960
    69  H    0.007486
    70  H    0.053913
    71  H    0.046855
    72  H    0.189286
    73  H    0.025160
    74  H    0.037661
    75  H    0.007610
    76  H    0.040526
    77  H    0.149893
    78  H    0.053989
    79  H    0.039608
 Sum of Mulliken charges =  -0.00000

 Dipole moment (field-independent basis, Debye):
    X=              1.2472    Y=              0.7291    Z=              2.8626  Tot=              3.2064
 Quadrupole moment (field-independent basis, Debye-Ang):
   XX=           -216.7708   YY=           -255.0501   ZZ=           -265.1323
   XY=             -5.7671   XZ=             32.8553   YZ=             -0.0006

 Normal termination of Gaussian 16 at Sun Sep 29 15:28:26 2019.
