 Gaussian 16, Revision A.03,
 Gaussian 16:  ES64L-G16RevA.03 25-Dec-2016

 --------------------------
 # td=(NStates=1) B3LYP/SVP
 --------------------------

 --
 TD
 --
 Symbolic Z-matrix:
 Charge =  0 Multiplicity = 1

                         Standard orientation:
 ---------------------------------------------------------------------
 Center     Atomic      Atomic             Coordinates (Angstroms)
 Number     Number       Type             X           Y           Z
 ---------------------------------------------------------------------
      1          8           0       -3.123682   -1.237266   -2.975085
      2          8           0        2.931091    3.078256    3.427783
      3          8           0        3.607852    1.307001    4.439671
      4          8           0        7.694187   -1.532642   -0.668892
      5          8           0        6.884503   -2.499772   -2.657088
      6          8           0       -2.704917    1.499015    1.435331
      7          7           0       -0.118445   -2.334668    0.871401
      8          7           0       -2.533465   -1.222983   -0.686125
      9          7           0        1.164498    0.152149   -0.673577
     10          7           0       -1.006069    1.485993   -0.071534
     11          6           0       -3.309184   -1.477122    0.590099
     12          6           0       -2.582445   -2.508070    1.373083
     13          6           0       -1.141644   -2.222279    1.730978
     14          6           0       -0.562095   -1.451784    2.849020
     15          6           0        0.738331   -1.258156    2.531583
     16          6           0        1.114834   -1.893506    1.281994
     17          6           0       -4.649788   -1.952659    0.178323
     18          6           0        1.833348   -0.570103    3.341923
     19          6           0       -4.670899   -2.010932   -1.192816
     20          6           0        2.192750   -1.808837    0.281674
     21          6           0        2.142509   -0.795176   -0.615827
     22          6           0       -3.350969   -1.465635   -1.785924
     23          6           0        3.020365   -0.528595   -1.809031
     24          6           0       -1.249557   -0.815205    3.858336
     25          6           0       -5.795882   -2.282866    1.137573
     26          6           0        2.477053    0.583028   -2.318987
     27          6           0        1.802465    0.962039    2.966105
     28          6           0        1.420795    1.030798   -1.728142
     29          6           0        4.215130   -1.289879   -2.149816
     30          6           0       -5.707487   -2.398046   -2.136590
     31          6           0        5.412677   -1.111051   -1.230650
     32          6           0        2.964826    1.380945   -3.598076
     33          6           0        0.468555    2.067350   -1.934905
     34          6           0        2.844048    1.724688    3.672572
     35          6           0       -0.613586    2.327617   -1.004920
     36          6           0       -6.714564   -3.162485   -1.814565
     37          6           0        6.721715   -1.812047   -1.570918
     38          6           0       -1.580334    3.463186   -1.162654
     39          6           0       -2.489785    3.399655   -0.075908
     40          6           0       -2.101137    2.085467    0.551943
     41          6           0       -1.374857    4.600699   -2.104587
     42          6           0       -3.522551    4.289934    0.430796
     43          6           0       -2.139656    5.678512   -2.204843
     44          1           0       -3.334157   -0.442396    1.186487
     45          1           0       -2.700993   -3.470373    0.775531
     46          1           0       -3.043482   -2.718589    2.315090
     47          1           0       -0.403554   -2.785448    0.042591
     48          1           0       -1.819161   -0.539206   -0.618712
     49          1           0        1.459839   -0.725545    4.275171
     50          1           0        2.855954   -1.088702    3.201710
     51          1           0        2.875588   -2.609324    0.444689
     52          1           0       -1.951354   -1.517755    3.904682
     53          1           0       -0.753638   -0.486264    4.724390
     54          1           0       -1.846782    0.056098    3.434533
     55          1           0       -5.906250   -1.641710    1.969835
     56          1           0       -5.826900   -3.466928    1.314006
     57          1           0       -6.766819   -1.989188    0.689795
     58          1           0        1.995221    1.176594    1.882904
     59          1           0        0.757072    1.257959    3.281945
     60          1           0        0.185563    0.566283   -0.130815
     61          1           0        4.579438   -1.075271   -3.253045
     62          1           0        3.670752   -2.365795   -2.204287
     63          1           0       -5.890413   -2.076706   -3.268601
     64          1           0        5.089260   -1.697536   -0.197343
     65          1           0        5.566151   -0.048130   -1.020779
     66          1           0        3.877224    0.723953   -4.102435
     67          1           0        3.276643    2.393998   -3.627384
     68          1           0        2.356795    1.427150   -4.446352
     69          1           0        0.639199    2.654329   -2.670745
     70          1           0       -6.718145   -3.835021   -0.831148
     71          1           0       -7.382547   -3.283924   -2.668514
     72          1           0        3.753963    3.267687    4.050017
     73          1           0       -0.509561    4.481491   -2.734343
     74          1           0       -4.328954    4.456567   -0.349034
     75          1           0       -3.833332    3.717535    1.383639
     76          1           0       -3.122232    5.324996    0.758070
     77          1           0        8.521240   -1.947553   -0.911860
     78          1           0       -1.977046    6.394594   -3.042855
     79          1           0       -3.080391    5.755038   -1.672811
 ---------------------------------------------------------------------

 SCF Done:  E(RB3LYP) =  -1947.81703740     A.U. after   17 cycles

 Excitation energies and oscillator strengths:

 Excited State   1:      Singlet-A      0.8786 eV 1411.22 nm  f=0.0055  <S**2>=0.000
     155 ->156         0.70404
 This state for optimization and/or second-order correction.
 Total Energy, E(TD-HF/TD-DFT) =  -1947.78475081
 Copying the excited state density for this state as the 1-particle RhoCI density.

 The electronic state is 1-A.
 Alpha  occ. eigenvalues --  -19.20732 -19.16124 -19.13773 -19.12851 -19.11752
 Alpha  occ. eigenvalues --  -19.08444 -14.36516 -14.35292 -14.33039 -14.32551
 Alpha  occ. eigenvalues --  -10.34604 -10.30170 -10.29279 -10.27103 -10.25988
 Alpha  occ. eigenvalues --  -10.25388 -10.24576 -10.24128 -10.23412 -10.22973
 Alpha  occ. eigenvalues --  -10.22538 -10.22458 -10.22379 -10.22009 -10.21547
 Alpha  occ. eigenvalues --  -10.21316 -10.21172 -10.20905 -10.20901 -10.20549
 Alpha  occ. eigenvalues --  -10.20452 -10.20409 -10.20174 -10.20161 -10.20031
 Alpha  occ. eigenvalues --  -10.19820 -10.19186 -10.18856 -10.18557 -10.18180
 Alpha  occ. eigenvalues --  -10.16409 -10.15929 -10.15572  -1.10229  -1.09959
 Alpha  occ. eigenvalues --   -1.04357  -0.99613  -0.99543  -0.98798  -0.98650
 Alpha  occ. eigenvalues --   -0.97306  -0.95220  -0.91295  -0.83765  -0.82908
 Alpha  occ. eigenvalues --   -0.82069  -0.81319  -0.80738  -0.79003  -0.78894
 Alpha  occ. eigenvalues --   -0.77419  -0.77105  -0.76449  -0.74721  -0.73148
 Alpha  occ. eigenvalues --   -0.71641  -0.71277  -0.69994  -0.69677  -0.68123
 Alpha  occ. eigenvalues --   -0.66736  -0.66414  -0.63741  -0.62791  -0.61321
 Alpha  occ. eigenvalues --   -0.60427  -0.58860  -0.57417  -0.56808  -0.56172
 Alpha  occ. eigenvalues --   -0.55632  -0.55480  -0.55004  -0.54521  -0.52486
 Alpha  occ. eigenvalues --   -0.51640  -0.51326  -0.50628  -0.49999  -0.49506
 Alpha  occ. eigenvalues --   -0.49283  -0.49030  -0.48947  -0.48058  -0.47769
 Alpha  occ. eigenvalues --   -0.47495  -0.47127  -0.46842  -0.46547  -0.46253
 Alpha  occ. eigenvalues --   -0.45851  -0.45412  -0.45220  -0.44997  -0.44618
 Alpha  occ. eigenvalues --   -0.43873  -0.43640  -0.42958  -0.42546  -0.42268
 Alpha  occ. eigenvalues --   -0.41631  -0.41573  -0.41342  -0.41331  -0.41207
 Alpha  occ. eigenvalues --   -0.40702  -0.40674  -0.40440  -0.40047  -0.39796
 Alpha  occ. eigenvalues --   -0.39332  -0.39108  -0.38752  -0.38226  -0.38035
 Alpha  occ. eigenvalues --   -0.37621  -0.37508  -0.36861  -0.36683  -0.36501
 Alpha  occ. eigenvalues --   -0.36314  -0.36116  -0.35583  -0.34976  -0.34325
 Alpha  occ. eigenvalues --   -0.33558  -0.33394  -0.32616  -0.32369  -0.32064
 Alpha  occ. eigenvalues --   -0.31183  -0.30594  -0.30544  -0.30256  -0.28589
 Alpha  occ. eigenvalues --   -0.27452  -0.27136  -0.26837  -0.24889  -0.24290
 Alpha  occ. eigenvalues --   -0.23747  -0.22951  -0.22469  -0.22290  -0.18588
 Alpha virt. eigenvalues --   -0.12936  -0.08056  -0.03936  -0.03021  -0.01336
 Alpha virt. eigenvalues --    0.01677   0.02088   0.02503   0.02779   0.03922
 Alpha virt. eigenvalues --    0.04188   0.04576   0.04828   0.05066   0.05178

 Mulliken charges:
               1
     1  O   -0.241581
     2  O   -0.256939
     3  O   -0.194203
     4  O   -0.166282
     5  O   -0.290603
     6  O   -0.204646
     7  N   -0.000146
     8  N   -0.230266
     9  N   -0.211937
    10  N   -0.284183
    11  C    0.031940
    12  C    0.196274
    13  C   -0.168110
    14  C   -0.113560
    15  C   -0.184250
    16  C   -0.023701
    17  C   -0.137415
    18  C    0.165744
    19  C   -0.052834
    20  C   -0.131454
    21  C    0.199224
    22  C    0.179822
    23  C   -0.053644
    24  C    0.167692
    25  C    0.076400
    26  C   -0.071289
    27  C   -0.015078
    28  C    0.106949
    29  C    0.025853
    30  C   -0.055268
    31  C   -0.020990
    32  C    0.053252
    33  C    0.043393
    34  C    0.115645
    35  C    0.096743
    36  C   -0.062700
    37  C    0.181332
    38  C    0.019686
    39  C   -0.177274
    40  C    0.170361
    41  C    0.000699
    42  C    0.023098
    43  C   -0.009585
    44  H    0.084871
    45  H   -0.017289
    46  H   -0.013432
    47  H    0.088976
    48  H    0.121265
    49  H   -0.031397
    50  H    0.016912
    51  H    0.005597
    52  H   -0.044775
    53  H   -0.008798
    54  H    0.031528
    55  H    0.006749
    56  H    0.062336
    57  H    0.024156
    58  H    0.045805
    59  H    0.058551
    60  H    0.260493
    61  H    0.047378
    62  H    0.056936
    63  H    0.040504
    64  H    0.069652
    65  H    0.057360
    66  H    0.013468
    67  H    0.017542
    68  H    0.008267
    69  H   -0.129508
    70  H    0.031791
    71  H    0.013050
    72  H    0.197610
    73  H   -0.014057
    74  H    0.063082
    75  H    0.049838
    76  H    0.054852
    77  H    0.188444
    78  H    0.035950
    79  H    0.010125
 Sum of Mulliken charges =  -0.00000

 Dipole moment (field-independent basis, Debye):
    X=              1.9266    Y=              2.6960    Z=              0.0558  Tot=              3.3141
 Quadrupole moment (field-independent basis, Debye-Ang):
   XX=           -228.7897   YY=           -236.2243   ZZ=           -273.2477
   XY=             -0.2966   XZ=            -12.6118   YZ=            -17.2212

 Normal termination of Gaussian 16 at Wed Jul 24 06:12:36 2019.
