 Gaussian 16, Revision A.03,
 Gaussian 16:  ES64L-G16RevA.03 25-Dec-2016

 --------------------------
 # td=(NStates=1) B3LYP/SVP
 --------------------------

 --
 TD
 --
 Symbolic Z-matrix:
 Charge =  0 Multiplicity = 1

                         Standard orientation:
 ---------------------------------------------------------------------
 Center     Atomic      Atomic             Coordinates (Angstroms)
 Number     Number       Type             X           Y           Z
 ---------------------------------------------------------------------
      1          8           0       -3.286461   -0.932160   -2.860410
      2          8           0        3.077405    2.923958    3.257054
      3          8           0        4.010596    1.078691    4.192890
      4          8           0        7.583050   -1.684787   -0.450567
      5          8           0        6.801837   -2.693586   -2.517456
      6          8           0       -2.529612    1.552135    1.557307
      7          7           0       -0.323837   -2.407833    0.742703
      8          7           0       -2.769106   -1.183682   -0.647031
      9          7           0        1.106470    0.022936   -0.657223
     10          7           0       -1.045404    1.509607   -0.170053
     11          6           0       -3.455946   -1.365727    0.646190
     12          6           0       -2.691550   -2.358716    1.472532
     13          6           0       -1.173411   -2.038586    1.753419
     14          6           0       -0.524995   -1.259565    2.723098
     15          6           0        0.784449   -1.222085    2.430570
     16          6           0        0.998968   -1.932084    1.135636
     17          6           0       -4.806247   -1.835324    0.158890
     18          6           0        1.815541   -0.508113    3.154243
     19          6           0       -4.821053   -1.968431   -1.196542
     20          6           0        2.049876   -1.885479    0.249578
     21          6           0        2.106818   -0.948520   -0.692500
     22          6           0       -3.591118   -1.378224   -1.704308
     23          6           0        2.942324   -0.713551   -1.815655
     24          6           0       -1.288408   -0.703691    3.820245
     25          6           0       -5.724336   -2.222779    1.291680
     26          6           0        2.542821    0.445097   -2.444902
     27          6           0        1.934228    1.054581    2.812617
     28          6           0        1.363487    0.947357   -1.779496
     29          6           0        4.201844   -1.463861   -2.117962
     30          6           0       -5.951658   -2.353576   -2.040144
     31          6           0        5.402929   -1.047776   -1.139775
     32          6           0        3.236312    1.227168   -3.639624
     33          6           0        0.469814    1.998744   -2.088819
     34          6           0        3.163677    1.615784    3.418838
     35          6           0       -0.634060    2.276575   -1.131584
     36          6           0       -6.900527   -3.281687   -1.705565
     37          6           0        6.643347   -1.858750   -1.476231
     38          6           0       -1.431818    3.574339   -1.061240
     39          6           0       -2.322665    3.353777   -0.047693
     40          6           0       -2.129478    1.948249    0.419343
     41          6           0       -1.284525    4.695836   -1.946410
     42          6           0       -3.237926    4.357449    0.606447
     43          6           0       -1.986696    5.882824   -2.129481
     44          1           0       -3.430749   -0.420517    1.163961
     45          1           0       -2.911155   -3.379679    0.874549
     46          1           0       -3.401567   -2.357199    2.398345
     47          1           0       -0.444351   -2.880997   -0.248782
     48          1           0       -2.009869   -0.531542   -0.732066
     49          1           0        1.570480   -0.575755    4.172534
     50          1           0        2.806388   -1.035197    2.928447
     51          1           0        2.587951   -2.907366    0.196940
     52          1           0       -2.182642   -1.297395    4.138402
     53          1           0       -0.563151   -0.409318    4.714091
     54          1           0       -1.630838    0.440407    3.687588
     55          1           0       -5.778099   -1.488320    2.044207
     56          1           0       -5.545167   -3.153799    1.551336
     57          1           0       -6.716965   -2.427715    0.835494
     58          1           0        2.004529    1.020181    1.718462
     59          1           0        1.146424    1.569636    3.232652
     60          1           0        0.117300    0.452185   -0.306010
     61          1           0        4.343504   -1.035638   -3.157110
     62          1           0        3.985217   -2.645484   -2.150890
     63          1           0       -5.987049   -1.984061   -3.109773
     64          1           0        5.072199   -1.213104   -0.015399
     65          1           0        5.543265    0.034077   -1.174434
     66          1           0        4.332855    0.722245   -3.971207
     67          1           0        3.440367    2.135791   -3.345188
     68          1           0        2.523437    1.316934   -4.346403
     69          1           0        0.612336    2.879327   -2.766272
     70          1           0       -7.079842   -3.543648   -0.751702
     71          1           0       -7.732711   -3.601027   -2.312833
     72          1           0        3.745836    3.345231    3.775345
     73          1           0       -0.483745    4.519734   -2.807537
     74          1           0       -4.132849    4.673132    0.004477
     75          1           0       -3.469529    3.853509    1.647234
     76          1           0       -2.784843    5.238593    0.926676
     77          1           0        8.556465   -2.018771   -0.484114
     78          1           0       -1.470591    6.648935   -2.727441
     79          1           0       -2.864313    6.327895   -1.525280
 ---------------------------------------------------------------------

 SCF Done:  E(RB3LYP) =  -1947.78191192     A.U. after   21 cycles

 Excitation energies and oscillator strengths:

 Excited State   1:      Singlet-A      0.7224 eV 1716.27 nm  f=0.0033  <S**2>=0.000
     155 ->156         0.70180
 This state for optimization and/or second-order correction.
 Total Energy, E(TD-HF/TD-DFT) =  -1947.75536410
 Copying the excited state density for this state as the 1-particle RhoCI density.

 The electronic state is 1-A.
 Alpha  occ. eigenvalues --  -19.19698 -19.18575 -19.13928 -19.12573 -19.12021
 Alpha  occ. eigenvalues --  -19.07263 -14.37932 -14.36005 -14.32482 -14.32399
 Alpha  occ. eigenvalues --  -10.35169 -10.31786 -10.28864 -10.26982 -10.26675
 Alpha  occ. eigenvalues --  -10.26383 -10.25049 -10.24158 -10.23036 -10.23014
 Alpha  occ. eigenvalues --  -10.22819 -10.22624 -10.22526 -10.21698 -10.21591
 Alpha  occ. eigenvalues --  -10.21494 -10.21455 -10.21447 -10.21314 -10.21288
 Alpha  occ. eigenvalues --  -10.21287 -10.21074 -10.20320 -10.20157 -10.19788
 Alpha  occ. eigenvalues --  -10.19638 -10.19306 -10.18850 -10.18612 -10.18172
 Alpha  occ. eigenvalues --  -10.17971 -10.17134 -10.16507  -1.10519  -1.05866
 Alpha  occ. eigenvalues --   -1.03002  -0.98605  -0.98046  -0.97378  -0.96170
 Alpha  occ. eigenvalues --   -0.95896  -0.94611  -0.91144  -0.83181  -0.82812
 Alpha  occ. eigenvalues --   -0.81596  -0.81228  -0.81009  -0.78321  -0.78088
 Alpha  occ. eigenvalues --   -0.77211  -0.76958  -0.75470  -0.74262  -0.73697
 Alpha  occ. eigenvalues --   -0.71820  -0.71143  -0.70421  -0.69652  -0.67712
 Alpha  occ. eigenvalues --   -0.66837  -0.66135  -0.63767  -0.61847  -0.61531
 Alpha  occ. eigenvalues --   -0.61092  -0.60368  -0.59648  -0.57662  -0.56661
 Alpha  occ. eigenvalues --   -0.55747  -0.55380  -0.54097  -0.53918  -0.53066
 Alpha  occ. eigenvalues --   -0.52428  -0.51288  -0.50949  -0.50244  -0.49769
 Alpha  occ. eigenvalues --   -0.48940  -0.48581  -0.47937  -0.47844  -0.47534
 Alpha  occ. eigenvalues --   -0.47142  -0.46815  -0.46599  -0.46209  -0.46074
 Alpha  occ. eigenvalues --   -0.45480  -0.45310  -0.44921  -0.44442  -0.44099
 Alpha  occ. eigenvalues --   -0.43420  -0.43206  -0.42506  -0.42400  -0.42169
 Alpha  occ. eigenvalues --   -0.41736  -0.41669  -0.41247  -0.40890  -0.40754
 Alpha  occ. eigenvalues --   -0.40573  -0.40204  -0.39781  -0.39462  -0.39315
 Alpha  occ. eigenvalues --   -0.39077  -0.38690  -0.38083  -0.37968  -0.37814
 Alpha  occ. eigenvalues --   -0.37335  -0.37170  -0.36878  -0.36429  -0.36111
 Alpha  occ. eigenvalues --   -0.35745  -0.35549  -0.35153  -0.34799  -0.34466
 Alpha  occ. eigenvalues --   -0.34137  -0.33835  -0.32622  -0.32050  -0.31489
 Alpha  occ. eigenvalues --   -0.31404  -0.30258  -0.29914  -0.29324  -0.28285
 Alpha  occ. eigenvalues --   -0.27419  -0.26956  -0.26748  -0.24034  -0.23715
 Alpha  occ. eigenvalues --   -0.23395  -0.23206  -0.22749  -0.22525  -0.18487
 Alpha virt. eigenvalues --   -0.13284  -0.08419  -0.04793  -0.04549  -0.03160
 Alpha virt. eigenvalues --   -0.00737   0.00568   0.01383   0.01763   0.02603
 Alpha virt. eigenvalues --    0.02974   0.04031   0.04158   0.04362   0.05347

 Mulliken charges:
               1
     1  O   -0.303719
     2  O   -0.136390
     3  O   -0.282421
     4  O   -0.266530
     5  O   -0.314383
     6  O   -0.254087
     7  N   -0.152392
     8  N   -0.186133
     9  N   -0.237919
    10  N   -0.211758
    11  C    0.095005
    12  C    0.076958
    13  C   -0.013542
    14  C   -0.057386
    15  C   -0.083835
    16  C    0.008790
    17  C   -0.207653
    18  C    0.086022
    19  C   -0.007235
    20  C   -0.205215
    21  C    0.225396
    22  C    0.127236
    23  C   -0.087739
    24  C    0.019123
    25  C    0.203052
    26  C   -0.142934
    27  C    0.051205
    28  C    0.102381
    29  C    0.054805
    30  C   -0.029265
    31  C   -0.025547
    32  C    0.181894
    33  C   -0.027240
    34  C    0.129991
    35  C    0.003344
    36  C    0.000918
    37  C    0.263965
    38  C    0.093426
    39  C   -0.213972
    40  C    0.178589
    41  C   -0.075336
    42  C    0.070197
    43  C   -0.064386
    44  H    0.035524
    45  H    0.004400
    46  H    0.005775
    47  H    0.170915
    48  H    0.117308
    49  H   -0.014847
    50  H    0.014084
    51  H    0.030078
    52  H    0.025722
    53  H   -0.006309
    54  H    0.041778
    55  H    0.026558
    56  H   -0.009911
    57  H    0.004181
    58  H    0.042668
    59  H    0.022875
    60  H    0.242559
    61  H    0.032901
    62  H    0.060181
    63  H    0.028072
    64  H    0.077714
    65  H    0.045086
    66  H    0.054020
    67  H   -0.019382
    68  H    0.009398
    69  H    0.001974
    70  H   -0.033651
    71  H    0.017714
    72  H    0.160653
    73  H    0.024461
    74  H    0.047580
    75  H    0.039038
    76  H    0.007710
    77  H    0.231507
    78  H    0.033647
    79  H    0.042732
 Sum of Mulliken charges =  -0.00000

 Dipole moment (field-independent basis, Debye):
    X=              2.3944    Y=              3.7014    Z=              0.2649  Tot=              4.4163
 Quadrupole moment (field-independent basis, Debye-Ang):
   XX=           -229.8369   YY=           -231.8721   ZZ=           -275.5671
   XY=             14.0351   XZ=            -17.0242   YZ=            -10.5016

 Normal termination of Gaussian 16 at Wed Jul 31 02:38:08 2019.
