 Gaussian 16, Revision A.03,
 Gaussian 16:  ES64L-G16RevA.03 25-Dec-2016

 --------------------------
 # td=(NStates=1) B3LYP/SVP
 --------------------------

 --
 TD
 --
 Symbolic Z-matrix:
 Charge =  0 Multiplicity = 1

                         Standard orientation:
 ---------------------------------------------------------------------
 Center     Atomic      Atomic             Coordinates (Angstroms)
 Number     Number       Type             X           Y           Z
 ---------------------------------------------------------------------
      1          8           0       -3.463037   -0.560001   -2.936315
      2          8           0        2.996192    2.490213    3.607917
      3          8           0        3.745232    0.633002    4.425474
      4          8           0        7.879250   -1.238938   -1.089823
      5          8           0        6.522589   -2.888236   -2.203471
      6          8           0       -2.624207    1.457181    1.538477
      7          7           0       -0.222191   -2.546764    0.439371
      8          7           0       -2.800827   -0.964296   -0.680362
      9          7           0        1.198897    0.239119   -0.738932
     10          7           0       -0.945143    1.503133   -0.110806
     11          6           0       -3.453398   -1.431437    0.429994
     12          6           0       -2.655106   -2.612988    1.119160
     13          6           0       -1.277842   -2.329474    1.293417
     14          6           0       -0.552484   -1.687180    2.433947
     15          6           0        0.754728   -1.501710    2.270658
     16          6           0        0.946429   -2.075152    0.955342
     17          6           0       -4.776334   -1.881165   -0.033097
     18          6           0        1.775556   -0.922956    3.127815
     19          6           0       -4.918566   -1.692107   -1.287690
     20          6           0        2.054493   -2.005882    0.040088
     21          6           0        2.067162   -0.848630   -0.701177
     22          6           0       -3.678023   -1.024010   -1.812401
     23          6           0        2.952503   -0.536667   -1.874230
     24          6           0       -1.324358   -1.204378    3.756636
     25          6           0       -5.664852   -2.553123    1.062555
     26          6           0        2.686410    0.716595   -2.338648
     27          6           0        1.833884    0.590749    3.053417
     28          6           0        1.441437    1.152883   -1.693815
     29          6           0        4.227339   -1.189479   -2.252424
     30          6           0       -5.980581   -1.996660   -2.307813
     31          6           0        5.423642   -0.881209   -1.329108
     32          6           0        3.219957    1.662163   -3.505754
     33          6           0        0.620480    2.288725   -1.689399
     34          6           0        2.963814    1.186946    3.790338
     35          6           0       -0.508852    2.488381   -0.903552
     36          6           0       -6.999158   -2.823810   -2.170434
     37          6           0        6.585185   -1.705864   -1.636493
     38          6           0       -1.293299    3.661179   -0.565434
     39          6           0       -2.211517    3.457559    0.291972
     40          6           0       -1.894309    2.065082    0.718119
     41          6           0       -1.139100    4.798468   -1.515454
     42          6           0       -3.255202    4.281032    0.881925
     43          6           0       -1.753683    6.012809   -1.434515
     44          1           0       -3.641200   -0.600658    1.216035
     45          1           0       -2.912297   -3.513694    0.409080
     46          1           0       -3.202541   -2.657508    2.075879
     47          1           0       -0.190385   -2.868311   -0.631649
     48          1           0       -1.932601   -0.287371   -0.673368
     49          1           0        1.710476   -1.265149    4.033977
     50          1           0        2.700695   -1.278876    2.724716
     51          1           0        3.011616   -2.587105   -0.081522
     52          1           0       -2.098948   -1.907327    3.968401
     53          1           0       -0.803608   -1.199109    4.666234
     54          1           0       -1.674203   -0.182134    3.588044
     55          1           0       -5.429513   -2.336152    2.162261
     56          1           0       -5.657097   -3.652633    1.150637
     57          1           0       -6.770915   -2.046859    1.008201
     58          1           0        1.702832    1.059477    1.974606
     59          1           0        0.916897    1.147961    3.662123
     60          1           0        0.295707    0.262496   -0.254389
     61          1           0        4.599352   -0.937196   -3.293119
     62          1           0        4.168274   -2.202424   -2.111407
     63          1           0       -5.770494   -1.517378   -3.451095
     64          1           0        4.941094   -1.295153   -0.349061
     65          1           0        5.533632    0.316126   -1.029855
     66          1           0        4.042363    1.441675   -3.985610
     67          1           0        3.422642    2.697598   -2.951737
     68          1           0        2.488832    1.581504   -4.362352
     69          1           0        0.969963    3.115631   -2.356244
     70          1           0       -7.085846   -3.330240   -1.109772
     71          1           0       -7.710444   -3.027497   -2.917544
     72          1           0        3.639794    2.805710    4.141923
     73          1           0       -0.619160    4.715309   -2.239922
     74          1           0       -4.080819    4.708916    0.258870
     75          1           0       -4.031482    3.537319    1.371587
     76          1           0       -2.976545    5.117772    1.419424
     77          1           0        8.311262   -2.183371   -1.373511
     78          1           0       -1.650012    6.809363   -2.240512
     79          1           0       -2.578774    6.043062   -0.565965
 ---------------------------------------------------------------------

 SCF Done:  E(RB3LYP) =  -1947.74206893     A.U. after   17 cycles

 Excitation energies and oscillator strengths:

 Excited State   1:      Singlet-A      0.8554 eV 1449.50 nm  f=0.0024  <S**2>=0.000
     155 ->156         0.70491
 This state for optimization and/or second-order correction.
 Total Energy, E(TD-HF/TD-DFT) =  -1947.71063507
 Copying the excited state density for this state as the 1-particle RhoCI density.

 The electronic state is 1-A.
 Alpha  occ. eigenvalues --  -19.19948 -19.16999 -19.15723 -19.12129 -19.11901
 Alpha  occ. eigenvalues --  -19.08515 -14.38839 -14.37616 -14.32480 -14.31221
 Alpha  occ. eigenvalues --  -10.35426 -10.30663 -10.28011 -10.27147 -10.26739
 Alpha  occ. eigenvalues --  -10.26318 -10.25108 -10.24962 -10.23586 -10.23227
 Alpha  occ. eigenvalues --  -10.23207 -10.22573 -10.21872 -10.21425 -10.21197
 Alpha  occ. eigenvalues --  -10.21187 -10.21163 -10.21053 -10.21052 -10.21027
 Alpha  occ. eigenvalues --  -10.20391 -10.19897 -10.19798 -10.19752 -10.19626
 Alpha  occ. eigenvalues --  -10.19590 -10.18863 -10.18255 -10.18092 -10.17937
 Alpha  occ. eigenvalues --  -10.17621 -10.17326 -10.16755  -1.12967  -1.05813
 Alpha  occ. eigenvalues --   -1.03268  -1.01905  -1.00658  -0.99564  -0.97929
 Alpha  occ. eigenvalues --   -0.97315  -0.95077  -0.92713  -0.85092  -0.83091
 Alpha  occ. eigenvalues --   -0.82506  -0.81841  -0.80200  -0.79852  -0.79006
 Alpha  occ. eigenvalues --   -0.77312  -0.76417  -0.75988  -0.74308  -0.73421
 Alpha  occ. eigenvalues --   -0.71565  -0.70967  -0.70035  -0.69520  -0.68459
 Alpha  occ. eigenvalues --   -0.67936  -0.66371  -0.63496  -0.61231  -0.60389
 Alpha  occ. eigenvalues --   -0.60032  -0.58983  -0.58151  -0.57803  -0.56704
 Alpha  occ. eigenvalues --   -0.56340  -0.56010  -0.55789  -0.54101  -0.53750
 Alpha  occ. eigenvalues --   -0.52715  -0.51616  -0.50901  -0.50471  -0.49707
 Alpha  occ. eigenvalues --   -0.49468  -0.49397  -0.49058  -0.48600  -0.48422
 Alpha  occ. eigenvalues --   -0.48016  -0.47110  -0.46878  -0.46507  -0.45800
 Alpha  occ. eigenvalues --   -0.45433  -0.45306  -0.45083  -0.44623  -0.44006
 Alpha  occ. eigenvalues --   -0.43562  -0.43485  -0.43282  -0.42649  -0.42525
 Alpha  occ. eigenvalues --   -0.42336  -0.42105  -0.41703  -0.41416  -0.40958
 Alpha  occ. eigenvalues --   -0.40468  -0.40216  -0.39993  -0.39840  -0.39620
 Alpha  occ. eigenvalues --   -0.39476  -0.39391  -0.38776  -0.38505  -0.38395
 Alpha  occ. eigenvalues --   -0.38272  -0.38130  -0.37655  -0.36779  -0.35924
 Alpha  occ. eigenvalues --   -0.35805  -0.35630  -0.35136  -0.34597  -0.33810
 Alpha  occ. eigenvalues --   -0.33666  -0.33328  -0.33094  -0.32545  -0.31810
 Alpha  occ. eigenvalues --   -0.31346  -0.30690  -0.30360  -0.29382  -0.29181
 Alpha  occ. eigenvalues --   -0.28362  -0.28027  -0.25756  -0.24903  -0.24730
 Alpha  occ. eigenvalues --   -0.24081  -0.23809  -0.23227  -0.22817  -0.18517
 Alpha virt. eigenvalues --   -0.12839  -0.07414  -0.06020  -0.03068  -0.01322
 Alpha virt. eigenvalues --    0.00697   0.01933   0.02022   0.02451   0.03064
 Alpha virt. eigenvalues --    0.03533   0.03614   0.04118   0.04691   0.05019

 Mulliken charges:
               1
     1  O   -0.248918
     2  O   -0.110064
     3  O   -0.167604
     4  O   -0.286873
     5  O   -0.308147
     6  O   -0.232553
     7  N   -0.080608
     8  N   -0.247983
     9  N   -0.077241
    10  N   -0.315527
    11  C    0.028649
    12  C    0.175524
    13  C   -0.034365
    14  C   -0.174608
    15  C   -0.066077
    16  C   -0.038415
    17  C   -0.152065
    18  C    0.332453
    19  C   -0.032534
    20  C   -0.109669
    21  C    0.076188
    22  C    0.151284
    23  C   -0.101542
    24  C    0.111962
    25  C    0.005854
    26  C   -0.111121
    27  C   -0.134197
    28  C    0.091921
    29  C    0.114173
    30  C   -0.042597
    31  C   -0.061272
    32  C    0.114348
    33  C   -0.094094
    34  C    0.071867
    35  C    0.108561
    36  C   -0.035409
    37  C    0.252883
    38  C    0.099617
    39  C   -0.150764
    40  C    0.158687
    41  C    0.084833
    42  C    0.074851
    43  C   -0.045487
    44  H    0.054953
    45  H   -0.007419
    46  H   -0.017257
    47  H    0.163303
    48  H    0.179863
    49  H   -0.053777
    50  H   -0.026737
    51  H    0.019549
    52  H   -0.011412
    53  H   -0.023063
    54  H    0.037365
    55  H    0.020889
    56  H    0.038865
    57  H    0.053446
    58  H    0.058253
    59  H    0.059328
    60  H    0.179692
    61  H    0.032568
    62  H   -0.005450
    63  H    0.048939
    64  H    0.067462
    65  H    0.070893
    66  H   -0.035220
    67  H    0.058150
    68  H    0.056428
    69  H   -0.004130
    70  H    0.026563
    71  H    0.009789
    72  H    0.123322
    73  H   -0.155914
    74  H    0.026435
    75  H    0.039338
    76  H    0.026127
    77  H    0.223282
    78  H    0.044719
    79  H    0.026937
 Sum of Mulliken charges =  -0.00000

 Dipole moment (field-independent basis, Debye):
    X=              2.9322    Y=              2.7307    Z=             -0.4357  Tot=              4.0304
 Quadrupole moment (field-independent basis, Debye-Ang):
   XX=           -254.2004   YY=           -236.4215   ZZ=           -261.6659
   XY=              9.8729   XZ=            -21.7340   YZ=             -6.6064

 Normal termination of Gaussian 16 at Sat Jul 27 09:09:52 2019.
