 Gaussian 16, Revision A.03,
 Gaussian 16:  ES64L-G16RevA.03 25-Dec-2016

 --------------------------
 # td=(NStates=1) B3LYP/SVP
 --------------------------

 --
 TD
 --
 Symbolic Z-matrix:
 Charge =  0 Multiplicity = 1

                         Standard orientation:
 ---------------------------------------------------------------------
 Center     Atomic      Atomic             Coordinates (Angstroms)
 Number     Number       Type             X           Y           Z
 ---------------------------------------------------------------------
      1          8           0        5.264045   -0.012200   -3.279802
      2          8           0       -3.206267   -2.890601    3.008757
      3          8           0       -3.407389   -0.608027    3.372877
      4          8           0       -1.636496    7.078284    1.508674
      5          8           0       -0.778227    6.987663   -0.440623
      6          8           0       -1.698590   -3.952056    0.180789
      7          7           0        2.375433    0.857500    0.676172
      8          7           0        4.341206   -0.695384   -1.259437
      9          7           0       -1.849846    0.690744   -0.300332
     10          7           0       -2.551667   -1.890952   -0.471873
     11          6           0        4.742143   -1.173727   -0.083764
     12          6           0        4.324985   -0.515119    1.358850
     13          6           0        2.897659   -0.103330    1.386162
     14          6           0        1.911352   -0.741142    2.168007
     15          6           0        0.657854    0.030168    1.878126
     16          6           0        0.981657    0.990301    0.949841
     17          6           0        6.194229   -1.299536   -0.134894
     18          6           0       -0.621279   -0.058599    2.599066
     19          6           0        6.620590   -0.779786   -1.396003
     20          6           0        0.295460    1.998049    0.164708
     21          6           0       -1.055391    1.846822   -0.408611
     22          6           0        5.396964   -0.319689   -2.104760
     23          6           0       -1.826807    2.918438   -0.985754
     24          6           0        1.946778   -1.865618    3.218401
     25          6           0        7.127301   -1.966352    0.911701
     26          6           0       -3.054184    2.387333   -1.426785
     27          6           0       -1.239340   -1.517046    2.657359
     28          6           0       -3.017981    0.954811   -1.079326
     29          6           0       -1.404814    4.353638   -0.973911
     30          6           0        7.939970   -0.650957   -1.982713
     31          6           0       -1.936887    5.043377    0.316789
     32          6           0       -4.231528    3.056002   -2.069346
     33          6           0       -3.850517   -0.124218   -1.461701
     34          6           0       -2.709925   -1.582860    3.109502
     35          6           0       -3.657523   -1.469097   -1.126611
     36          6           0        9.155141   -0.596913   -1.398731
     37          6           0       -1.411938    6.371444    0.417018
     38          6           0       -4.482082   -2.705944   -1.516221
     39          6           0       -3.800659   -3.731653   -1.016714
     40          6           0       -2.581227   -3.278854   -0.364810
     41          6           0       -5.676109   -2.588007   -2.305129
     42          6           0       -4.102183   -5.162117   -1.126754
     43          6           0       -6.409857   -3.639108   -2.906156
     44          1           0        4.332323   -2.346459   -0.063464
     45          1           0        4.915416    0.477043    1.157354
     46          1           0        4.642294   -1.306160    2.039759
     47          1           0        2.845834    1.316223    0.137998
     48          1           0        3.648721   -0.400828   -1.626655
     49          1           0       -0.554144   -0.000423    3.826671
     50          1           0       -1.208208    0.741113    2.257527
     51          1           0        0.713392    2.949807   -0.208802
     52          1           0        3.005869   -2.322122    3.368263
     53          1           0        1.457078   -1.633579    3.987629
     54          1           0        1.131887   -2.796236    2.938742
     55          1           0        6.602138   -2.641638    1.504459
     56          1           0        7.507726   -1.191706    1.692110
     57          1           0        8.035912   -2.295868    0.283384
     58          1           0       -1.497502   -1.855749    1.381628
     59          1           0       -0.494703   -2.286537    3.208572
     60          1           0       -1.403249   -0.128858   -0.247815
     61          1           0       -1.879874    5.011587   -1.944680
     62          1           0       -0.432933    4.530034   -1.047955
     63          1           0        7.942814   -0.508634   -3.136106
     64          1           0       -1.466070    4.681446    1.319581
     65          1           0       -3.130564    4.893319    0.386859
     66          1           0       -4.043820    4.176599   -2.284644
     67          1           0       -5.241357    2.824445   -1.463052
     68          1           0       -4.248530    2.540671   -3.018969
     69          1           0       -4.590127    0.261654   -2.032128
     70          1           0        9.401649   -0.817741   -0.255862
     71          1           0       10.030064   -0.480613   -1.992187
     72          1           0       -4.154488   -2.694103    3.221644
     73          1           0       -5.931187   -1.664708   -2.289957
     74          1           0       -5.057364   -5.374161   -0.700954
     75          1           0       -4.073377   -5.722279   -2.113083
     76          1           0       -3.542389   -5.834093   -0.588211
     77          1           0       -1.316433    7.902889    1.454221
     78          1           0       -7.284931   -3.481951   -3.342201
     79          1           0       -5.895465   -4.564514   -2.727746
 ---------------------------------------------------------------------

 SCF Done:  E(RB3LYP) =  -1947.70605658     A.U. after   19 cycles

 Excitation energies and oscillator strengths:

 Excited State   1:      Singlet-A      1.9206 eV  645.55 nm  f=0.3667  <S**2>=0.000
     153 ->156        -0.11322
     154 ->156         0.15737
     155 ->156         0.67673
     155 <-156        -0.11591
 This state for optimization and/or second-order correction.
 Total Energy, E(TD-HF/TD-DFT) =  -1947.63547614
 Copying the excited state density for this state as the 1-particle RhoCI density.

 The electronic state is 1-A.
 Alpha  occ. eigenvalues --  -19.17797 -19.16436 -19.11973 -19.11596 -19.10653
 Alpha  occ. eigenvalues --  -19.10055 -14.37748 -14.36524 -14.34593 -14.28810
 Alpha  occ. eigenvalues --  -10.32497 -10.30830 -10.28683 -10.26226 -10.25955
 Alpha  occ. eigenvalues --  -10.25761 -10.25176 -10.23996 -10.23880 -10.23859
 Alpha  occ. eigenvalues --  -10.23835 -10.23789 -10.23604 -10.23164 -10.22599
 Alpha  occ. eigenvalues --  -10.22578 -10.22513 -10.22444 -10.22299 -10.21081
 Alpha  occ. eigenvalues --  -10.20904 -10.20890 -10.20516 -10.20476 -10.20152
 Alpha  occ. eigenvalues --  -10.19978 -10.19889 -10.19673 -10.19475 -10.19365
 Alpha  occ. eigenvalues --  -10.19300 -10.18702 -10.17391  -1.12427  -1.06261
 Alpha  occ. eigenvalues --   -1.03955  -1.01488  -1.00259  -0.99774  -0.98113
 Alpha  occ. eigenvalues --   -0.97642  -0.97388  -0.91661  -0.83966  -0.83231
 Alpha  occ. eigenvalues --   -0.82714  -0.81308  -0.80714  -0.80402  -0.79066
 Alpha  occ. eigenvalues --   -0.77506  -0.76111  -0.75122  -0.74632  -0.73721
 Alpha  occ. eigenvalues --   -0.72788  -0.72221  -0.70550  -0.70357  -0.69803
 Alpha  occ. eigenvalues --   -0.67620  -0.67131  -0.65056  -0.62866  -0.61874
 Alpha  occ. eigenvalues --   -0.61687  -0.60160  -0.59529  -0.59212  -0.58286
 Alpha  occ. eigenvalues --   -0.57408  -0.56079  -0.55534  -0.54597  -0.53789
 Alpha  occ. eigenvalues --   -0.52597  -0.51980  -0.51498  -0.51128  -0.50915
 Alpha  occ. eigenvalues --   -0.49635  -0.49000  -0.48387  -0.48068  -0.47455
 Alpha  occ. eigenvalues --   -0.47267  -0.46719  -0.46565  -0.46297  -0.45362
 Alpha  occ. eigenvalues --   -0.45227  -0.45113  -0.44814  -0.44125  -0.44023
 Alpha  occ. eigenvalues --   -0.43652  -0.43518  -0.43290  -0.43174  -0.42982
 Alpha  occ. eigenvalues --   -0.42792  -0.42311  -0.41912  -0.41543  -0.41307
 Alpha  occ. eigenvalues --   -0.40923  -0.40477  -0.40419  -0.40051  -0.40001
 Alpha  occ. eigenvalues --   -0.39839  -0.39801  -0.39372  -0.39307  -0.38881
 Alpha  occ. eigenvalues --   -0.38733  -0.38477  -0.38193  -0.37814  -0.37164
 Alpha  occ. eigenvalues --   -0.36928  -0.36242  -0.35356  -0.35223  -0.34566
 Alpha  occ. eigenvalues --   -0.34062  -0.33348  -0.32114  -0.31579  -0.31052
 Alpha  occ. eigenvalues --   -0.30910  -0.30559  -0.28319  -0.27951  -0.26916
 Alpha  occ. eigenvalues --   -0.26843  -0.26548  -0.26140  -0.26078  -0.25131
 Alpha  occ. eigenvalues --   -0.24042  -0.23486  -0.23343  -0.22225  -0.19288
 Alpha virt. eigenvalues --   -0.11668  -0.07347  -0.06742  -0.01961  -0.01413
 Alpha virt. eigenvalues --   -0.00062   0.00291   0.01229   0.01587   0.02344
 Alpha virt. eigenvalues --    0.03685   0.03920   0.05164   0.05600   0.05606

 Mulliken charges:
               1
     1  O   -0.227446
     2  O   -0.216703
     3  O   -0.249292
     4  O   -0.102756
     5  O   -0.266624
     6  O   -0.209058
     7  N    0.102983
     8  N    0.008876
     9  N   -0.039662
    10  N   -0.297048
    11  C    0.011945
    12  C    0.203919
    13  C   -0.139552
    14  C   -0.132872
    15  C   -0.062899
    16  C    0.110772
    17  C   -0.186713
    18  C    0.078078
    19  C   -0.037311
    20  C   -0.059772
    21  C   -0.015411
    22  C    0.089281
    23  C   -0.058598
    24  C    0.133476
    25  C    0.081294
    26  C   -0.118318
    27  C   -0.188807
    28  C    0.052541
    29  C    0.104364
    30  C   -0.039534
    31  C   -0.058720
    32  C    0.055322
    33  C   -0.036465
    34  C    0.176609
    35  C    0.130172
    36  C   -0.062507
    37  C    0.110620
    38  C    0.062627
    39  C   -0.181573
    40  C    0.158551
    41  C    0.011748
    42  C    0.126665
    43  C    0.099071
    44  H    0.040267
    45  H    0.008978
    46  H    0.003699
    47  H   -0.006118
    48  H    0.005367
    49  H    0.032950
    50  H   -0.003452
    51  H   -0.004595
    52  H    0.024714
    53  H   -0.053168
    54  H    0.058028
    55  H    0.009003
    56  H    0.044395
    57  H    0.066043
    58  H    0.153422
    59  H    0.054312
    60  H    0.112038
    61  H    0.054747
    62  H   -0.035275
    63  H    0.039193
    64  H    0.064402
    65  H    0.089690
    66  H    0.037230
    67  H    0.065714
    68  H    0.038840
    69  H   -0.088818
    70  H    0.035432
    71  H    0.021338
    72  H    0.174321
    73  H   -0.104091
    74  H    0.000744
    75  H    0.033801
    76  H   -0.025817
    77  H    0.137322
    78  H   -0.012787
    79  H    0.006857
 Sum of Mulliken charges =  -0.00000

 Dipole moment (field-independent basis, Debye):
    X=              0.4413    Y=              2.5696    Z=              2.0257  Tot=              3.3017
 Quadrupole moment (field-independent basis, Debye-Ang):
   XX=           -217.4002   YY=           -252.0086   ZZ=           -266.0702
   XY=            -11.9935   XZ=             36.1348   YZ=              3.1538

 Normal termination of Gaussian 16 at Wed Sep 18 13:31:04 2019.
