 Gaussian 16, Revision A.03,
 Gaussian 16:  ES64L-G16RevA.03 25-Dec-2016

 --------------------------
 # td=(NStates=1) B3LYP/SVP
 --------------------------

 --
 TD
 --
 Symbolic Z-matrix:
 Charge =  0 Multiplicity = 1

                         Standard orientation:
 ---------------------------------------------------------------------
 Center     Atomic      Atomic             Coordinates (Angstroms)
 Number     Number       Type             X           Y           Z
 ---------------------------------------------------------------------
      1          8           0        5.386079    0.233982   -3.249931
      2          8           0       -3.117795   -3.024403    3.280143
      3          8           0       -3.353626   -0.688297    3.273267
      4          8           0       -1.765042    7.458799    1.349185
      5          8           0       -0.247147    6.930305   -0.374822
      6          8           0       -1.865293   -4.092922   -0.063595
      7          7           0        2.393005    0.821553    0.623540
      8          7           0        4.406508   -0.574854   -1.206440
      9          7           0       -1.865730    0.674985   -0.430816
     10          7           0       -2.621400   -1.866113   -0.517362
     11          6           0        4.722279   -1.210681   -0.067925
     12          6           0        4.433363   -0.480912    1.232042
     13          6           0        3.020677   -0.150840    1.369801
     14          6           0        1.958184   -0.628573    2.144672
     15          6           0        0.731858   -0.036846    1.886375
     16          6           0        0.960984    1.015214    0.960203
     17          6           0        6.241585   -1.526221   -0.168598
     18          6           0       -0.512038   -0.275887    2.684195
     19          6           0        6.658582   -0.879990   -1.331999
     20          6           0        0.248151    1.959812    0.181369
     21          6           0       -1.038587    1.875419   -0.323963
     22          6           0        5.417597   -0.229276   -2.135542
     23          6           0       -1.895356    2.892868   -0.906561
     24          6           0        2.086998   -1.759357    3.138724
     25          6           0        7.054908   -2.314050    0.744624
     26          6           0       -3.146770    2.402408   -1.240489
     27          6           0       -1.192686   -1.674466    2.410603
     28          6           0       -3.030835    0.975120   -1.010683
     29          6           0       -1.584654    4.331761   -0.832799
     30          6           0        8.062567   -0.772579   -2.025462
     31          6           0       -1.671004    5.188042    0.399741
     32          6           0       -4.210415    3.201317   -1.849488
     33          6           0       -4.024477   -0.007551   -1.397571
     34          6           0       -2.672130   -1.719973    3.101162
     35          6           0       -3.756860   -1.461263   -1.087183
     36          6           0        9.136944   -0.814465   -1.349547
     37          6           0       -1.166587    6.617301    0.429534
     38          6           0       -4.609464   -2.594762   -1.488956
     39          6           0       -3.953366   -3.725133   -1.119024
     40          6           0       -2.720170   -3.327830   -0.557107
     41          6           0       -5.896093   -2.481978   -2.244690
     42          6           0       -4.347638   -5.162566   -1.219372
     43          6           0       -6.756186   -3.420536   -2.663205
     44          1           0        4.115267   -2.202827    0.051817
     45          1           0        5.025861    0.443312    1.336516
     46          1           0        4.771127   -1.188335    1.945257
     47          1           0        2.954740    1.367396   -0.136270
     48          1           0        3.572205   -0.505834   -1.626877
     49          1           0       -0.358720   -0.154235    3.964270
     50          1           0       -1.335150    0.485891    2.129422
     51          1           0        0.729582    2.674176    0.131975
     52          1           0        3.156660   -2.041904    3.565086
     53          1           0        1.590650   -1.822781    4.095760
     54          1           0        1.920718   -2.710216    2.655839
     55          1           0        6.323118   -2.845529    1.338007
     56          1           0        7.606742   -1.640253    1.353788
     57          1           0        7.800376   -3.131484    0.147218
     58          1           0       -1.197094   -1.969738    1.245189
     59          1           0       -0.597243   -2.511705    2.704611
     60          1           0       -1.439704   -0.317670   -0.281638
     61          1           0       -2.069923    4.818433   -1.677465
     62          1           0       -0.594994    4.699832   -1.271341
     63          1           0        7.966889   -0.632434   -3.207978
     64          1           0       -1.219388    4.798615    1.368382
     65          1           0       -2.720995    5.286852    0.661504
     66          1           0       -3.632733    4.091815   -2.541380
     67          1           0       -5.028679    3.668839   -1.017716
     68          1           0       -4.862508    2.459024   -2.663040
     69          1           0       -4.977660    0.245752   -1.792623
     70          1           0        9.416853   -0.868425   -0.334983
     71          1           0       10.089122   -0.832138   -1.801273
     72          1           0       -4.025847   -2.955976    3.385563
     73          1           0       -6.224788   -1.434329   -2.219255
     74          1           0       -5.355684   -5.414654   -0.573870
     75          1           0       -4.345447   -5.479447   -2.295511
     76          1           0       -3.595826   -5.769327   -0.679751
     77          1           0       -1.248328    8.374803    1.127826
     78          1           0       -7.752205   -3.194336   -3.266782
     79          1           0       -6.237275   -4.541005   -2.793996
 ---------------------------------------------------------------------

 SCF Done:  E(RB3LYP) =  -1947.74579663     A.U. after   17 cycles

 Excitation energies and oscillator strengths:

 Excited State   1:      Singlet-A      1.9632 eV  631.53 nm  f=0.4208  <S**2>=0.000
     155 ->156         0.69858
     155 <-156        -0.11449
 This state for optimization and/or second-order correction.
 Total Energy, E(TD-HF/TD-DFT) =  -1947.67364915
 Copying the excited state density for this state as the 1-particle RhoCI density.

 The electronic state is 1-A.
 Alpha  occ. eigenvalues --  -19.20938 -19.17131 -19.13665 -19.12591 -19.12138
 Alpha  occ. eigenvalues --  -19.10916 -14.38715 -14.37162 -14.35556 -14.29422
 Alpha  occ. eigenvalues --  -10.33693 -10.31848 -10.30282 -10.26412 -10.25709
 Alpha  occ. eigenvalues --  -10.25369 -10.24803 -10.24538 -10.23735 -10.23605
 Alpha  occ. eigenvalues --  -10.23335 -10.22163 -10.21879 -10.21772 -10.21686
 Alpha  occ. eigenvalues --  -10.21614 -10.21510 -10.21386 -10.21279 -10.21007
 Alpha  occ. eigenvalues --  -10.20937 -10.20761 -10.20601 -10.20576 -10.20460
 Alpha  occ. eigenvalues --  -10.19907 -10.19891 -10.19414 -10.19391 -10.19175
 Alpha  occ. eigenvalues --  -10.19087 -10.18851 -10.18180  -1.08318  -1.07358
 Alpha  occ. eigenvalues --   -1.04256  -1.00295  -0.99592  -0.98570  -0.97688
 Alpha  occ. eigenvalues --   -0.97499  -0.96226  -0.91682  -0.83303  -0.82790
 Alpha  occ. eigenvalues --   -0.81955  -0.80435  -0.80155  -0.79815  -0.78435
 Alpha  occ. eigenvalues --   -0.77196  -0.76265  -0.74844  -0.73989  -0.71694
 Alpha  occ. eigenvalues --   -0.71463  -0.70709  -0.69236  -0.68774  -0.68209
 Alpha  occ. eigenvalues --   -0.66780  -0.65570  -0.64021  -0.61615  -0.60839
 Alpha  occ. eigenvalues --   -0.59260  -0.58627  -0.58033  -0.57453  -0.57231
 Alpha  occ. eigenvalues --   -0.55895  -0.55200  -0.54943  -0.54747  -0.53168
 Alpha  occ. eigenvalues --   -0.52333  -0.51435  -0.51123  -0.50320  -0.49639
 Alpha  occ. eigenvalues --   -0.49130  -0.48857  -0.48085  -0.47610  -0.47443
 Alpha  occ. eigenvalues --   -0.46712  -0.46356  -0.46156  -0.45788  -0.45281
 Alpha  occ. eigenvalues --   -0.44802  -0.44760  -0.44527  -0.44056  -0.43913
 Alpha  occ. eigenvalues --   -0.43502  -0.43266  -0.43005  -0.42699  -0.42460
 Alpha  occ. eigenvalues --   -0.42323  -0.42125  -0.41795  -0.41461  -0.41250
 Alpha  occ. eigenvalues --   -0.40588  -0.40285  -0.40020  -0.39940  -0.39789
 Alpha  occ. eigenvalues --   -0.39531  -0.39478  -0.39024  -0.38655  -0.37979
 Alpha  occ. eigenvalues --   -0.37699  -0.37508  -0.37315  -0.37138  -0.36015
 Alpha  occ. eigenvalues --   -0.35355  -0.35239  -0.34211  -0.33839  -0.33048
 Alpha  occ. eigenvalues --   -0.32936  -0.32792  -0.32517  -0.31480  -0.31411
 Alpha  occ. eigenvalues --   -0.31055  -0.30848  -0.29059  -0.28480  -0.27738
 Alpha  occ. eigenvalues --   -0.27488  -0.26877  -0.26536  -0.26085  -0.24941
 Alpha  occ. eigenvalues --   -0.24685  -0.24187  -0.23765  -0.22694  -0.19020
 Alpha virt. eigenvalues --   -0.11250  -0.07500  -0.05107  -0.01786  -0.00901
 Alpha virt. eigenvalues --   -0.00285   0.00239   0.01197   0.01536   0.02505
 Alpha virt. eigenvalues --    0.02832   0.03624   0.04104   0.04259   0.04793

 Mulliken charges:
               1
     1  O   -0.192576
     2  O   -0.163926
     3  O   -0.255352
     4  O   -0.237332
     5  O   -0.277458
     6  O   -0.227078
     7  N   -0.198031
     8  N   -0.114634
     9  N   -0.127937
    10  N   -0.318116
    11  C    0.000150
    12  C    0.287169
    13  C   -0.052984
    14  C   -0.091843
    15  C   -0.058872
    16  C    0.090781
    17  C   -0.166505
    18  C   -0.024540
    19  C   -0.141284
    20  C    0.112654
    21  C    0.128109
    22  C    0.161611
    23  C   -0.039057
    24  C    0.041164
    25  C    0.076242
    26  C   -0.059368
    27  C   -0.064636
    28  C    0.134278
    29  C    0.076701
    30  C    0.021562
    31  C    0.052173
    32  C   -0.096032
    33  C   -0.085616
    34  C    0.194282
    35  C    0.060466
    36  C   -0.007481
    37  C    0.145772
    38  C    0.017567
    39  C   -0.176887
    40  C    0.162034
    41  C    0.015439
    42  C    0.043663
    43  C   -0.093662
    44  H    0.026907
    45  H   -0.003957
    46  H   -0.040902
    47  H    0.141718
    48  H    0.085323
    49  H    0.051575
    50  H    0.054604
    51  H   -0.191094
    52  H   -0.009305
    53  H    0.014095
    54  H    0.020611
    55  H    0.015990
    56  H    0.038278
    57  H    0.074092
    58  H    0.096562
    59  H    0.003242
    60  H    0.195886
    61  H   -0.028992
    62  H    0.014173
    63  H    0.056739
    64  H    0.053726
    65  H    0.012916
    66  H    0.073123
    67  H    0.076277
    68  H    0.058409
    69  H   -0.038696
    70  H   -0.004845
    71  H   -0.000709
    72  H    0.148018
    73  H   -0.008223
    74  H    0.050988
    75  H    0.049166
    76  H    0.023272
    77  H    0.232644
    78  H    0.057411
    79  H    0.050369
 Sum of Mulliken charges =  -0.00000

 Dipole moment (field-independent basis, Debye):
    X=              0.9694    Y=              1.8249    Z=              1.5312  Tot=              2.5719
 Quadrupole moment (field-independent basis, Debye-Ang):
   XX=           -219.7852   YY=           -241.9211   ZZ=           -264.7785
   XY=            -15.2612   XZ=             32.5090   YZ=              4.1184

 Normal termination of Gaussian 16 at Tue Sep 24 11:34:10 2019.
