 Gaussian 16, Revision A.03,
 Gaussian 16:  ES64L-G16RevA.03 25-Dec-2016

 --------------------------
 # td=(NStates=1) B3LYP/SVP
 --------------------------

 --
 TD
 --
 Symbolic Z-matrix:
 Charge =  0 Multiplicity = 1

                         Standard orientation:
 ---------------------------------------------------------------------
 Center     Atomic      Atomic             Coordinates (Angstroms)
 Number     Number       Type             X           Y           Z
 ---------------------------------------------------------------------
      1          8           0       -3.300809   -1.525703   -2.722058
      2          8           0        2.942622    3.529758    2.697824
      3          8           0        3.667459    1.986419    4.205764
      4          8           0        7.626793   -1.854976   -0.313853
      5          8           0        6.682580   -3.093509   -2.060250
      6          8           0       -2.699885    1.761175    1.280545
      7          7           0       -0.149311   -2.353883    1.232583
      8          7           0       -2.584366   -1.419102   -0.563874
      9          7           0        1.083503   -0.087932   -0.774894
     10          7           0       -1.040397    1.372070   -0.312480
     11          6           0       -3.268340   -1.401825    0.769268
     12          6           0       -2.602606   -2.213303    1.840097
     13          6           0       -1.187694   -1.801303    2.073614
     14          6           0       -0.662310   -0.833539    2.971281
     15          6           0        0.759040   -0.733516    2.532958
     16          6           0        0.960227   -1.666239    1.518408
     17          6           0       -4.624520   -1.947051    0.465549
     18          6           0        1.807734    0.113363    3.239896
     19          6           0       -4.831693   -2.207676   -0.887945
     20          6           0        2.141555   -1.780708    0.575405
     21          6           0        2.190934   -0.943788   -0.483302
     22          6           0       -3.515522   -1.669607   -1.567772
     23          6           0        3.160189   -0.814250   -1.664647
     24          6           0       -1.213129    0.112135    3.943426
     25          6           0       -5.659668   -2.143229    1.426685
     26          6           0        2.571445    0.222643   -2.437579
     27          6           0        1.798795    1.554161    2.677986
     28          6           0        1.322886    0.665021   -1.911870
     29          6           0        4.312114   -1.650351   -1.909689
     30          6           0       -5.905536   -2.661846   -1.725744
     31          6           0        5.428863   -1.287334   -0.907834
     32          6           0        3.086909    0.664637   -3.730844
     33          6           0        0.454127    1.669855   -2.308798
     34          6           0        2.880901    2.321530    3.329308
     35          6           0       -0.665721    2.029069   -1.393077
     36          6           0       -6.928113   -3.365836   -1.225659
     37          6           0        6.612381   -2.184777   -1.252540
     38          6           0       -1.462805    3.207767   -1.625762
     39          6           0       -2.379975    3.266636   -0.520762
     40          6           0       -2.037861    2.114375    0.271194
     41          6           0       -1.271921    4.152916   -2.786129
     42          6           0       -3.418115    4.348343   -0.265206
     43          6           0       -1.732269    5.479067   -2.859527
     44          1           0       -3.407573   -0.418011    1.088370
     45          1           0       -2.761413   -3.109732    1.427058
     46          1           0       -3.260452   -2.054047    2.683187
     47          1           0       -0.257753   -2.947276    0.428441
     48          1           0       -2.105550   -0.465117   -0.845976
     49          1           0        1.604212    0.064413    4.296990
     50          1           0        2.929431   -0.391431    3.071923
     51          1           0        2.999422   -2.344338    0.899786
     52          1           0       -1.765640   -0.451488    4.680177
     53          1           0       -0.430370    0.726821    4.266854
     54          1           0       -1.848775    0.811014    3.473434
     55          1           0       -5.127954   -1.573213    2.324517
     56          1           0       -5.841252   -3.159193    1.736501
     57          1           0       -6.725731   -1.772158    1.249536
     58          1           0        1.814416    1.398841    1.598683
     59          1           0        0.824687    2.118707    2.858338
     60          1           0        0.424975    0.210254    0.046559
     61          1           0        4.752248   -1.520089   -3.013722
     62          1           0        4.230262   -2.831746   -1.917643
     63          1           0       -5.847361   -2.476517   -2.782783
     64          1           0        5.330255   -1.298807    0.077743
     65          1           0        5.774699   -0.246833   -1.031563
     66          1           0        4.148564    0.214459   -3.864814
     67          1           0        3.446700    1.793195   -3.564723
     68          1           0        2.478447    0.596785   -4.665230
     69          1           0        0.405122    2.112981   -3.221360
     70          1           0       -7.156180   -3.391063   -0.147477
     71          1           0       -7.713878   -3.801011   -1.974587
     72          1           0        3.676998    4.213534    2.945425
     73          1           0       -0.693897    3.805498   -3.512678
     74          1           0       -3.982260    4.451296   -1.196232
     75          1           0       -4.291651    4.152748    0.430488
     76          1           0       -2.941443    5.421405    0.135380
     77          1           0        8.368948   -2.426306   -0.743888
     78          1           0       -1.837092    5.985470   -3.836873
     79          1           0       -2.451074    5.905532   -2.195296
 ---------------------------------------------------------------------

 SCF Done:  E(RB3LYP) =  -1947.87594332     A.U. after   17 cycles

 Excitation energies and oscillator strengths:

 Excited State   1:      Singlet-A      1.0195 eV 1216.18 nm  f=0.0002  <S**2>=0.000
     155 ->156         0.70389
 This state for optimization and/or second-order correction.
 Total Energy, E(TD-HF/TD-DFT) =  -1947.83847905
 Copying the excited state density for this state as the 1-particle RhoCI density.

 The electronic state is 1-A.
 Alpha  occ. eigenvalues --  -19.19540 -19.17269 -19.16035 -19.12279 -19.12128
 Alpha  occ. eigenvalues --  -19.08516 -14.37050 -14.36252 -14.32093 -14.30902
 Alpha  occ. eigenvalues --  -10.34175 -10.31710 -10.27995 -10.26383 -10.25871
 Alpha  occ. eigenvalues --  -10.25442 -10.25351 -10.23891 -10.23630 -10.22730
 Alpha  occ. eigenvalues --  -10.22283 -10.22108 -10.22015 -10.21943 -10.21896
 Alpha  occ. eigenvalues --  -10.21775 -10.21506 -10.21032 -10.20771 -10.20707
 Alpha  occ. eigenvalues --  -10.20636 -10.20565 -10.20091 -10.19644 -10.19625
 Alpha  occ. eigenvalues --  -10.19594 -10.18809 -10.18593 -10.18176 -10.17656
 Alpha  occ. eigenvalues --  -10.17326 -10.16834 -10.16223  -1.09411  -1.07170
 Alpha  occ. eigenvalues --   -1.02210  -1.01916  -1.01661  -0.98867  -0.97837
 Alpha  occ. eigenvalues --   -0.95655  -0.94477  -0.90674  -0.84108  -0.82229
 Alpha  occ. eigenvalues --   -0.80742  -0.80633  -0.80069  -0.79427  -0.78743
 Alpha  occ. eigenvalues --   -0.76835  -0.76397  -0.75284  -0.74511  -0.72946
 Alpha  occ. eigenvalues --   -0.70841  -0.70250  -0.69013  -0.68574  -0.67748
 Alpha  occ. eigenvalues --   -0.66544  -0.65681  -0.62695  -0.61446  -0.60329
 Alpha  occ. eigenvalues --   -0.58981  -0.58418  -0.58004  -0.57579  -0.56207
 Alpha  occ. eigenvalues --   -0.55278  -0.54725  -0.54474  -0.53706  -0.53087
 Alpha  occ. eigenvalues --   -0.52306  -0.51798  -0.51278  -0.50539  -0.50088
 Alpha  occ. eigenvalues --   -0.49806  -0.49257  -0.48817  -0.48185  -0.47802
 Alpha  occ. eigenvalues --   -0.47196  -0.46411  -0.46284  -0.45801  -0.45454
 Alpha  occ. eigenvalues --   -0.44939  -0.44628  -0.44552  -0.44273  -0.44053
 Alpha  occ. eigenvalues --   -0.43964  -0.43545  -0.42757  -0.42576  -0.42213
 Alpha  occ. eigenvalues --   -0.42140  -0.41534  -0.41284  -0.40831  -0.40752
 Alpha  occ. eigenvalues --   -0.40427  -0.40312  -0.40266  -0.39814  -0.39495
 Alpha  occ. eigenvalues --   -0.39234  -0.38862  -0.38685  -0.38348  -0.38054
 Alpha  occ. eigenvalues --   -0.37643  -0.37271  -0.37219  -0.36715  -0.36272
 Alpha  occ. eigenvalues --   -0.35961  -0.35671  -0.35420  -0.35121  -0.34946
 Alpha  occ. eigenvalues --   -0.34325  -0.33781  -0.33157  -0.31778  -0.31405
 Alpha  occ. eigenvalues --   -0.31047  -0.30748  -0.30209  -0.29342  -0.28741
 Alpha  occ. eigenvalues --   -0.27827  -0.26538  -0.25816  -0.25249  -0.23733
 Alpha  occ. eigenvalues --   -0.23207  -0.22411  -0.22157  -0.21948  -0.19164
 Alpha virt. eigenvalues --   -0.13071  -0.08257  -0.04040  -0.03132  -0.02418
 Alpha virt. eigenvalues --   -0.00035   0.01918   0.02722   0.03026   0.03226
 Alpha virt. eigenvalues --    0.03629   0.03725   0.04263   0.04741   0.04966

 Mulliken charges:
               1
     1  O   -0.195160
     2  O   -0.251427
     3  O   -0.227589
     4  O   -0.252517
     5  O   -0.217606
     6  O   -0.228604
     7  N   -0.052407
     8  N   -0.248177
     9  N   -0.180504
    10  N   -0.261713
    11  C    0.112593
    12  C    0.312356
    13  C   -0.079780
    14  C   -0.106807
    15  C   -0.160632
    16  C   -0.046147
    17  C   -0.206052
    18  C    0.055407
    19  C   -0.039776
    20  C   -0.109392
    21  C    0.137185
    22  C    0.094455
    23  C    0.036121
    24  C    0.190211
    25  C    0.023135
    26  C   -0.132454
    27  C   -0.026900
    28  C    0.215560
    29  C   -0.022504
    30  C    0.007289
    31  C    0.052480
    32  C    0.031628
    33  C   -0.072632
    34  C    0.178203
    35  C    0.053928
    36  C   -0.056838
    37  C    0.160356
    38  C   -0.002626
    39  C   -0.139916
    40  C    0.156652
    41  C    0.046569
    42  C    0.021079
    43  C   -0.009774
    44  H    0.008507
    45  H   -0.082768
    46  H   -0.030176
    47  H    0.116897
    48  H    0.172744
    49  H    0.017249
    50  H    0.024570
    51  H    0.005068
    52  H    0.007864
    53  H   -0.030825
    54  H    0.011931
    55  H    0.024573
    56  H    0.032022
    57  H    0.048879
    58  H    0.028199
    59  H    0.057411
    60  H    0.244425
    61  H    0.044841
    62  H    0.069898
    63  H   -0.002576
    64  H    0.003168
    65  H    0.035260
    66  H    0.015331
    67  H    0.033337
    68  H    0.063722
    69  H   -0.050401
    70  H    0.013198
    71  H    0.032427
    72  H    0.210148
    73  H   -0.056828
    74  H    0.033718
    75  H    0.031374
    76  H    0.065827
    77  H    0.198052
    78  H    0.032066
    79  H    0.013596
 Sum of Mulliken charges =  -0.00000

 Dipole moment (field-independent basis, Debye):
    X=              3.1689    Y=              3.1708    Z=             -2.1686  Tot=              4.9798
 Quadrupole moment (field-independent basis, Debye-Ang):
   XX=           -231.7690   YY=           -236.7912   ZZ=           -266.5792
   XY=             -0.5324   XZ=            -21.7380   YZ=            -14.9235

 Normal termination of Gaussian 16 at Tue Jul 30 12:19:11 2019.
