 Gaussian 16, Revision A.03,
 Gaussian 16:  ES64L-G16RevA.03 25-Dec-2016

 --------------------------
 # td=(NStates=1) B3LYP/SVP
 --------------------------

 --
 TD
 --
 Symbolic Z-matrix:
 Charge =  0 Multiplicity = 1

                         Standard orientation:
 ---------------------------------------------------------------------
 Center     Atomic      Atomic             Coordinates (Angstroms)
 Number     Number       Type             X           Y           Z
 ---------------------------------------------------------------------
      1          8           0        5.195250    0.039138   -3.317763
      2          8           0       -2.967461   -2.921268    3.347421
      3          8           0       -3.261139   -0.719113    3.027385
      4          8           0       -1.735457    7.242476    1.403960
      5          8           0       -0.444113    6.947503   -0.527091
      6          8           0       -1.716855   -3.944936    0.178739
      7          7           0        2.425165    1.029250    0.648841
      8          7           0        4.328037   -0.532250   -1.235539
      9          7           0       -1.998480    0.686456   -0.383212
     10          7           0       -2.566574   -1.886478   -0.337750
     11          6           0        4.711223   -1.170931    0.039954
     12          6           0        4.412250   -0.324717    1.285699
     13          6           0        2.985011    0.048176    1.488743
     14          6           0        1.931758   -0.428078    2.257946
     15          6           0        0.688187    0.142228    1.947958
     16          6           0        1.020508    0.992433    0.837591
     17          6           0        6.266992   -1.290478   -0.218833
     18          6           0       -0.569457   -0.085663    2.655968
     19          6           0        6.507229   -0.856481   -1.455172
     20          6           0        0.136293    1.976435    0.183844
     21          6           0       -1.194752    1.781589   -0.232970
     22          6           0        5.325334   -0.359507   -2.170430
     23          6           0       -2.043528    2.920170   -0.925285
     24          6           0        2.236226   -1.665089    3.167957
     25          6           0        7.119244   -1.988926    0.745520
     26          6           0       -3.173361    2.315425   -1.413020
     27          6           0       -1.102582   -1.568969    2.592926
     28          6           0       -3.082689    0.899431   -1.063804
     29          6           0       -1.691717    4.386686   -0.983538
     30          6           0        7.899009   -0.893684   -2.074135
     31          6           0       -1.835582    5.015341    0.385530
     32          6           0       -4.297748    2.934304   -2.076444
     33          6           0       -3.991159   -0.119153   -1.376678
     34          6           0       -2.520306   -1.696391    3.053095
     35          6           0       -3.666833   -1.498300   -1.001184
     36          6           0        9.039517   -0.860923   -1.549381
     37          6           0       -1.266853    6.467297    0.370567
     38          6           0       -4.484082   -2.664237   -1.488064
     39          6           0       -3.866248   -3.742661   -0.950377
     40          6           0       -2.610923   -3.294159   -0.277013
     41          6           0       -5.660529   -2.625190   -2.388903
     42          6           0       -4.115441   -5.290907   -1.059469
     43          6           0       -6.359334   -3.694594   -2.806207
     44          1           0        4.343981   -2.234672    0.228965
     45          1           0        4.999770    0.543172    1.138781
     46          1           0        4.849725   -0.930275    2.120363
     47          1           0        2.930257    1.692027    0.135070
     48          1           0        3.390712   -0.382476   -1.664869
     49          1           0       -0.585921    0.328296    3.586742
     50          1           0       -1.501466    0.480309    2.043543
     51          1           0        0.753511    3.067907   -0.012797
     52          1           0        3.213789   -1.698780    3.341453
     53          1           0        1.687638   -1.711172    4.155846
     54          1           0        1.923232   -2.595780    2.489844
     55          1           0        6.595075   -3.132473    1.201527
     56          1           0        7.068703   -1.333226    1.799324
     57          1           0        8.347169   -2.212139    0.322511
     58          1           0       -0.995887   -2.047439    1.510744
     59          1           0       -0.554869   -2.275062    3.300886
     60          1           0       -1.814943   -0.364735    0.007516
     61          1           0       -2.347259    4.773102   -1.861786
     62          1           0       -0.692490    4.680972   -1.238665
     63          1           0        7.783429   -0.926838   -3.247166
     64          1           0       -1.225448    4.349649    0.996865
     65          1           0       -2.852150    4.873693    0.853032
     66          1           0       -4.144676    4.053132   -2.480723
     67          1           0       -5.487912    3.102941   -1.273412
     68          1           0       -4.706531    2.140771   -2.861586
     69          1           0       -4.960688    0.008086   -1.903105
     70          1           0        9.098709   -0.575485   -0.445332
     71          1           0       10.010472   -0.820746   -2.215227
     72          1           0       -3.977989   -2.868212    3.462424
     73          1           0       -5.956720   -1.557857   -2.713251
     74          1           0       -5.185148   -5.738963   -0.589651
     75          1           0       -4.139334   -5.632649   -2.050658
     76          1           0       -3.259938   -5.855738   -0.317837
     77          1           0       -1.355761    8.177469    1.315941
     78          1           0       -7.387190   -3.381285   -3.283183
     79          1           0       -6.216643   -4.787646   -2.614056
 ---------------------------------------------------------------------

 SCF Done:  E(RB3LYP) =  -1947.81431633     A.U. after   16 cycles

 Excitation energies and oscillator strengths:

 Excited State   1:      Singlet-A      2.1300 eV  582.10 nm  f=0.4266  <S**2>=0.000
     155 ->156         0.70258
 This state for optimization and/or second-order correction.
 Total Energy, E(TD-HF/TD-DFT) =  -1947.73604178
 Copying the excited state density for this state as the 1-particle RhoCI density.

 The electronic state is 1-A.
 Alpha  occ. eigenvalues --  -19.20260 -19.17903 -19.13860 -19.11192 -19.10636
 Alpha  occ. eigenvalues --  -19.10553 -14.38243 -14.37120 -14.35652 -14.29867
 Alpha  occ. eigenvalues --  -10.34528 -10.30525 -10.28722 -10.26960 -10.26134
 Alpha  occ. eigenvalues --  -10.25548 -10.25399 -10.24844 -10.24251 -10.24116
 Alpha  occ. eigenvalues --  -10.24027 -10.23850 -10.22888 -10.22444 -10.22308
 Alpha  occ. eigenvalues --  -10.22052 -10.21996 -10.21691 -10.21332 -10.21089
 Alpha  occ. eigenvalues --  -10.20953 -10.20783 -10.20731 -10.20394 -10.20265
 Alpha  occ. eigenvalues --  -10.20008 -10.19976 -10.19790 -10.19786 -10.19577
 Alpha  occ. eigenvalues --  -10.19518 -10.19508 -10.19061  -1.08266  -1.08200
 Alpha  occ. eigenvalues --   -1.03370  -1.02622  -0.99862  -0.98358  -0.97631
 Alpha  occ. eigenvalues --   -0.97369  -0.93837  -0.92386  -0.83017  -0.82406
 Alpha  occ. eigenvalues --   -0.81712  -0.81028  -0.80300  -0.79996  -0.78181
 Alpha  occ. eigenvalues --   -0.77040  -0.75866  -0.75409  -0.74290  -0.72052
 Alpha  occ. eigenvalues --   -0.70773  -0.70265  -0.68929  -0.68266  -0.67593
 Alpha  occ. eigenvalues --   -0.67303  -0.65720  -0.63482  -0.60837  -0.60524
 Alpha  occ. eigenvalues --   -0.59370  -0.59154  -0.58463  -0.57462  -0.56940
 Alpha  occ. eigenvalues --   -0.56338  -0.55165  -0.54902  -0.54236  -0.52888
 Alpha  occ. eigenvalues --   -0.52143  -0.51532  -0.50780  -0.50482  -0.49022
 Alpha  occ. eigenvalues --   -0.48648  -0.48187  -0.47707  -0.47119  -0.47093
 Alpha  occ. eigenvalues --   -0.46842  -0.46641  -0.46165  -0.45605  -0.45260
 Alpha  occ. eigenvalues --   -0.45037  -0.44855  -0.44051  -0.43701  -0.43576
 Alpha  occ. eigenvalues --   -0.43085  -0.42829  -0.42703  -0.42665  -0.42517
 Alpha  occ. eigenvalues --   -0.42292  -0.42155  -0.41153  -0.40861  -0.40588
 Alpha  occ. eigenvalues --   -0.40412  -0.40302  -0.39892  -0.39762  -0.39723
 Alpha  occ. eigenvalues --   -0.39419  -0.39356  -0.38680  -0.38090  -0.37776
 Alpha  occ. eigenvalues --   -0.37580  -0.37267  -0.37065  -0.36829  -0.36431
 Alpha  occ. eigenvalues --   -0.36144  -0.35868  -0.35502  -0.35022  -0.34063
 Alpha  occ. eigenvalues --   -0.33767  -0.32238  -0.32022  -0.31713  -0.31416
 Alpha  occ. eigenvalues --   -0.30984  -0.30764  -0.29051  -0.28699  -0.28446
 Alpha  occ. eigenvalues --   -0.27081  -0.26241  -0.26179  -0.25606  -0.25298
 Alpha  occ. eigenvalues --   -0.24985  -0.24897  -0.23900  -0.22934  -0.19263
 Alpha virt. eigenvalues --   -0.10761  -0.06657  -0.05689  -0.03284  -0.01337
 Alpha virt. eigenvalues --   -0.00537   0.00845   0.01243   0.01609   0.02455
 Alpha virt. eigenvalues --    0.03284   0.03690   0.04106   0.04281   0.04892

 Mulliken charges:
               1
     1  O   -0.215186
     2  O   -0.190619
     3  O   -0.263761
     4  O   -0.206538
     5  O   -0.308093
     6  O   -0.174037
     7  N   -0.106707
     8  N   -0.224951
     9  N   -0.066301
    10  N   -0.312266
    11  C    0.076038
    12  C    0.218738
    13  C   -0.030676
    14  C   -0.166736
    15  C   -0.030163
    16  C    0.014494
    17  C   -0.110713
    18  C    0.057509
    19  C   -0.062900
    20  C   -0.116573
    21  C    0.095695
    22  C    0.143100
    23  C   -0.119754
    24  C    0.111758
    25  C   -0.117556
    26  C   -0.039686
    27  C   -0.070583
    28  C    0.130204
    29  C    0.083102
    30  C    0.002097
    31  C   -0.001498
    32  C   -0.091439
    33  C   -0.139887
    34  C    0.139053
    35  C    0.070126
    36  C   -0.080202
    37  C    0.212883
    38  C    0.023119
    39  C   -0.174319
    40  C    0.149906
    41  C   -0.011892
    42  C   -0.028058
    43  C   -0.055083
    44  H    0.040076
    45  H   -0.030932
    46  H    0.005474
    47  H    0.103078
    48  H    0.137123
    49  H   -0.009439
    50  H    0.047813
    51  H    0.057557
    52  H   -0.044056
    53  H    0.027500
    54  H    0.052518
    55  H    0.056474
    56  H    0.061478
    57  H    0.089527
    58  H    0.111571
    59  H    0.024622
    60  H    0.219663
    61  H    0.025209
    62  H    0.016300
    63  H    0.032823
    64  H    0.040113
    65  H    0.046001
    66  H    0.059870
    67  H    0.035640
    68  H    0.054439
    69  H   -0.011371
    70  H    0.035771
    71  H    0.050286
    72  H    0.205900
    73  H    0.014893
    74  H    0.040033
    75  H    0.034164
    76  H    0.068478
    77  H    0.212596
    78  H    0.039823
    79  H    0.037342
 Sum of Mulliken charges =  -0.00000

 Dipole moment (field-independent basis, Debye):
    X=             -0.3227    Y=              1.4467    Z=              3.2834  Tot=              3.6025
 Quadrupole moment (field-independent basis, Debye-Ang):
   XX=           -223.3063   YY=           -244.7695   ZZ=           -264.8956
   XY=             -5.2681   XZ=             30.8013   YZ=              7.2447

 Normal termination of Gaussian 16 at Sat Oct  5 03:02:39 2019.
