 Gaussian 16, Revision A.03,
 Gaussian 16:  ES64L-G16RevA.03 25-Dec-2016

 --------------------------
 # td=(NStates=1) B3LYP/SVP
 --------------------------

 --
 TD
 --
 Symbolic Z-matrix:
 Charge =  0 Multiplicity = 1

                         Standard orientation:
 ---------------------------------------------------------------------
 Center     Atomic      Atomic             Coordinates (Angstroms)
 Number     Number       Type             X           Y           Z
 ---------------------------------------------------------------------
      1          8           0       -3.139222   -1.771341   -2.698638
      2          8           0        2.977736    3.546994    2.772399
      3          8           0        3.644566    1.883839    4.180459
      4          8           0        7.745829   -1.605700   -0.626012
      5          8           0        6.671141   -3.397152   -1.579480
      6          8           0       -2.675111    1.723333    1.202289
      7          7           0       -0.236055   -2.218436    1.126091
      8          7           0       -2.636766   -1.184990   -0.504699
      9          7           0        1.214643    0.008443   -0.654830
     10          7           0       -1.061628    1.373872   -0.379331
     11          6           0       -3.314424   -1.280447    0.749527
     12          6           0       -2.621941   -2.178562    1.808326
     13          6           0       -1.207475   -1.812617    1.966381
     14          6           0       -0.624817   -0.796611    2.873727
     15          6           0        0.708243   -0.805530    2.561038
     16          6           0        0.979709   -1.659854    1.410787
     17          6           0       -4.658081   -1.796381    0.515380
     18          6           0        1.757199    0.103419    3.193092
     19          6           0       -4.827106   -2.224404   -0.809235
     20          6           0        2.072626   -1.858145    0.572514
     21          6           0        2.106467   -0.931692   -0.472524
     22          6           0       -3.502358   -1.656489   -1.542806
     23          6           0        3.089339   -0.815342   -1.510447
     24          6           0       -1.383207    0.101202    3.807194
     25          6           0       -5.859858   -1.844773    1.481865
     26          6           0        2.545041    0.198912   -2.383856
     27          6           0        1.850564    1.428115    2.674066
     28          6           0        1.330117    0.627880   -1.838569
     29          6           0        4.302831   -1.684392   -1.851973
     30          6           0       -5.907917   -2.786764   -1.654966
     31          6           0        5.456607   -1.244638   -1.068320
     32          6           0        3.309043    0.633748   -3.698597
     33          6           0        0.467094    1.654176   -2.181011
     34          6           0        2.988612    2.280670    3.344053
     35          6           0       -0.648316    2.025276   -1.411976
     36          6           0       -6.849054   -3.608928   -1.351145
     37          6           0        6.645996   -2.230019   -1.155296
     38          6           0       -1.439463    3.372279   -1.645173
     39          6           0       -2.338410    3.355666   -0.551538
     40          6           0       -2.046723    2.102956    0.229383
     41          6           0       -1.226786    4.209377   -2.773152
     42          6           0       -3.399843    4.308433   -0.265661
     43          6           0       -1.794064    5.431776   -3.036360
     44          1           0       -3.349761   -0.393730    1.277437
     45          1           0       -2.771212   -3.295543    1.398291
     46          1           0       -2.981005   -2.011139    2.725130
     47          1           0       -0.344008   -2.970733    0.409877
     48          1           0       -2.199883   -0.227550   -0.637677
     49          1           0        1.552181    0.265454    4.260548
     50          1           0        2.676320   -0.448584    3.250787
     51          1           0        2.902093   -2.569881    0.754574
     52          1           0       -2.489970   -0.563953    3.909000
     53          1           0       -0.904223    0.401348    4.917562
     54          1           0       -1.739523    1.165590    3.158173
     55          1           0       -5.709832   -0.886274    2.086857
     56          1           0       -5.964638   -2.656408    1.975496
     57          1           0       -6.796275   -1.577831    0.921623
     58          1           0        2.196271    1.451534    1.608977
     59          1           0        0.947413    2.237163    2.712380
     60          1           0        0.469867   -0.015879   -0.042365
     61          1           0        4.541304   -1.729690   -2.996893
     62          1           0        3.781673   -2.571232   -1.418606
     63          1           0       -5.844821   -2.719446   -2.638606
     64          1           0        5.187134   -1.079730    0.065457
     65          1           0        5.807519   -0.282165   -1.473488
     66          1           0        4.103517   -0.075454   -4.061829
     67          1           0        3.704323    1.672783   -3.731749
     68          1           0        2.307570    0.765717   -4.397326
     69          1           0        0.835884    2.214625   -3.055779
     70          1           0       -6.868964   -4.036847   -0.322201
     71          1           0       -7.583855   -4.143048   -2.004001
     72          1           0        3.527891    4.093927    3.598816
     73          1           0       -0.563743    3.670659   -3.542845
     74          1           0       -4.097511    4.601368   -1.267978
     75          1           0       -4.114747    3.879418    0.563016
     76          1           0       -3.130051    5.353511    0.056449
     77          1           0        8.563423   -2.176739   -0.699342
     78          1           0       -1.705950    6.062508   -3.955920
     79          1           0       -2.463152    5.994456   -2.430989
 ---------------------------------------------------------------------

 SCF Done:  E(RB3LYP) =  -1947.79877136     A.U. after   17 cycles

 Excitation energies and oscillator strengths:

 Excited State   1:      Singlet-A      0.8141 eV 1522.87 nm  f=0.0009  <S**2>=0.000
     155 ->156         0.70263
 This state for optimization and/or second-order correction.
 Total Energy, E(TD-HF/TD-DFT) =  -1947.76885200
 Copying the excited state density for this state as the 1-particle RhoCI density.

 The electronic state is 1-A.
 Alpha  occ. eigenvalues --  -19.19304 -19.18146 -19.14184 -19.13599 -19.12268
 Alpha  occ. eigenvalues --  -19.08953 -14.37542 -14.36877 -14.31825 -14.30784
 Alpha  occ. eigenvalues --  -10.33743 -10.30882 -10.28396 -10.27060 -10.26114
 Alpha  occ. eigenvalues --  -10.25326 -10.24820 -10.23343 -10.23092 -10.22778
 Alpha  occ. eigenvalues --  -10.22716 -10.22690 -10.22383 -10.22200 -10.21888
 Alpha  occ. eigenvalues --  -10.21699 -10.21448 -10.21303 -10.21287 -10.20591
 Alpha  occ. eigenvalues --  -10.20392 -10.20337 -10.20219 -10.20143 -10.19819
 Alpha  occ. eigenvalues --  -10.19321 -10.18917 -10.18523 -10.17871 -10.17737
 Alpha  occ. eigenvalues --  -10.17506 -10.17390 -10.17269  -1.10561  -1.08954
 Alpha  occ. eigenvalues --   -1.03853  -1.02928  -1.00762  -1.00317  -1.00262
 Alpha  occ. eigenvalues --   -0.97281  -0.94950  -0.91193  -0.84230  -0.83638
 Alpha  occ. eigenvalues --   -0.81450  -0.80587  -0.79755  -0.79233  -0.78995
 Alpha  occ. eigenvalues --   -0.77198  -0.76107  -0.75685  -0.74793  -0.72499
 Alpha  occ. eigenvalues --   -0.70512  -0.69694  -0.69002  -0.68757  -0.67060
 Alpha  occ. eigenvalues --   -0.65742  -0.64969  -0.63538  -0.61836  -0.61051
 Alpha  occ. eigenvalues --   -0.60455  -0.58628  -0.58467  -0.56510  -0.56257
 Alpha  occ. eigenvalues --   -0.55370  -0.54583  -0.54029  -0.53922  -0.52763
 Alpha  occ. eigenvalues --   -0.51994  -0.51732  -0.50908  -0.50381  -0.49922
 Alpha  occ. eigenvalues --   -0.48975  -0.48740  -0.48624  -0.48466  -0.48024
 Alpha  occ. eigenvalues --   -0.47940  -0.47364  -0.47064  -0.46710  -0.46296
 Alpha  occ. eigenvalues --   -0.45931  -0.45253  -0.45092  -0.44412  -0.44113
 Alpha  occ. eigenvalues --   -0.43855  -0.43472  -0.43104  -0.42599  -0.42226
 Alpha  occ. eigenvalues --   -0.41731  -0.41595  -0.41451  -0.41093  -0.40961
 Alpha  occ. eigenvalues --   -0.40882  -0.40513  -0.39838  -0.39493  -0.39400
 Alpha  occ. eigenvalues --   -0.38962  -0.38803  -0.38307  -0.38064  -0.37809
 Alpha  occ. eigenvalues --   -0.37567  -0.37184  -0.36558  -0.36509  -0.35752
 Alpha  occ. eigenvalues --   -0.35651  -0.35316  -0.35210  -0.34851  -0.34148
 Alpha  occ. eigenvalues --   -0.33687  -0.33132  -0.33075  -0.32314  -0.32151
 Alpha  occ. eigenvalues --   -0.31307  -0.30393  -0.29571  -0.29264  -0.29014
 Alpha  occ. eigenvalues --   -0.27752  -0.26619  -0.26228  -0.24481  -0.23664
 Alpha  occ. eigenvalues --   -0.23564  -0.23115  -0.22426  -0.22119  -0.18473
 Alpha virt. eigenvalues --   -0.12793  -0.08194  -0.03663  -0.02131  -0.01839
 Alpha virt. eigenvalues --    0.00476   0.01702   0.02180   0.02644   0.03164
 Alpha virt. eigenvalues --    0.03558   0.04124   0.04444   0.04624   0.05115

 Mulliken charges:
               1
     1  O   -0.222451
     2  O   -0.290289
     3  O   -0.134200
     4  O   -0.215908
     5  O   -0.237775
     6  O   -0.202073
     7  N   -0.019813
     8  N   -0.227089
     9  N    0.067893
    10  N   -0.238954
    11  C    0.137651
    12  C    0.235497
    13  C   -0.137698
    14  C   -0.053560
    15  C   -0.098785
    16  C   -0.038468
    17  C   -0.207277
    18  C    0.190583
    19  C   -0.060570
    20  C   -0.126066
    21  C    0.009198
    22  C    0.136468
    23  C   -0.106826
    24  C   -0.093759
    25  C    0.148071
    26  C   -0.115794
    27  C   -0.076175
    28  C    0.108098
    29  C    0.098615
    30  C    0.072803
    31  C   -0.040134
    32  C    0.025161
    33  C   -0.115886
    34  C    0.108412
    35  C    0.088012
    36  C   -0.067180
    37  C    0.168823
    38  C    0.056175
    39  C   -0.145501
    40  C    0.159720
    41  C   -0.019948
    42  C   -0.037361
    43  C   -0.041060
    44  H   -0.017690
    45  H   -0.008893
    46  H   -0.056869
    47  H    0.130126
    48  H    0.176213
    49  H   -0.019477
    50  H   -0.015009
    51  H    0.017057
    52  H    0.019715
    53  H    0.051054
    54  H    0.090812
    55  H    0.020119
    56  H   -0.008508
    57  H    0.029975
    58  H    0.021738
    59  H    0.062812
    60  H    0.143256
    61  H    0.052026
    62  H    0.034408
    63  H   -0.050177
    64  H    0.073805
    65  H    0.038145
    66  H    0.040776
    67  H    0.042772
    68  H    0.047305
    69  H   -0.022638
    70  H    0.003324
    71  H    0.029073
    72  H    0.223147
    73  H    0.023141
    74  H    0.045927
    75  H    0.048270
    76  H    0.045666
    77  H    0.200638
    78  H    0.035104
    79  H    0.012279
 Sum of Mulliken charges =  -0.00000

 Dipole moment (field-independent basis, Debye):
    X=              3.6793    Y=              3.6056    Z=             -0.9225  Tot=              5.2334
 Quadrupole moment (field-independent basis, Debye-Ang):
   XX=           -231.1906   YY=           -239.7094   ZZ=           -259.9924
   XY=              1.9062   XZ=            -15.9276   YZ=            -13.5169

 Normal termination of Gaussian 16 at Sat Jul 27 08:35:22 2019.
