 Gaussian 16, Revision A.03,
 Gaussian 16:  ES64L-G16RevA.03 25-Dec-2016

 --------------------------
 # td=(NStates=1) B3LYP/SVP
 --------------------------

 --
 TD
 --
 Symbolic Z-matrix:
 Charge =  0 Multiplicity = 1

                         Standard orientation:
 ---------------------------------------------------------------------
 Center     Atomic      Atomic             Coordinates (Angstroms)
 Number     Number       Type             X           Y           Z
 ---------------------------------------------------------------------
      1          8           0        5.481881   -0.004064   -3.202851
      2          8           0       -3.156317   -3.097840    2.999921
      3          8           0       -3.410424   -0.868791    3.227364
      4          8           0       -1.477258    7.136290    1.592383
      5          8           0       -0.821162    7.119827   -0.571201
      6          8           0       -1.759754   -3.963981   -0.050536
      7          7           0        2.379383    0.947570    0.755676
      8          7           0        4.388637   -0.356573   -1.267685
      9          7           0       -1.827752    0.772024   -0.423324
     10          7           0       -2.639805   -1.823895   -0.471690
     11          6           0        4.826036   -1.082528   -0.013642
     12          6           0        4.448938   -0.492482    1.210464
     13          6           0        2.936390   -0.155930    1.379390
     14          6           0        1.925517   -0.746239    2.114367
     15          6           0        0.630605   -0.111565    1.753443
     16          6           0        1.027437    0.984005    0.884293
     17          6           0        6.334531   -1.380506   -0.204899
     18          6           0       -0.687652   -0.317663    2.436635
     19          6           0        6.748646   -0.835331   -1.335142
     20          6           0        0.146738    2.019201    0.260061
     21          6           0       -1.074860    1.882524   -0.355901
     22          6           0        5.518165   -0.339915   -2.103258
     23          6           0       -1.931885    2.909051   -0.905203
     24          6           0        2.107496   -1.830720    3.175107
     25          6           0        7.166137   -2.066199    0.842786
     26          6           0       -3.077359    2.420899   -1.304971
     27          6           0       -1.215730   -1.699693    2.447970
     28          6           0       -3.087373    1.000636   -0.970821
     29          6           0       -1.409167    4.291003   -0.868292
     30          6           0        8.067917   -0.872904   -1.909536
     31          6           0       -1.677758    5.010205    0.476175
     32          6           0       -4.279885    3.020175   -1.921076
     33          6           0       -4.000896   -0.015379   -1.233001
     34          6           0       -2.734977   -1.727122    2.974122
     35          6           0       -3.823724   -1.347050   -1.031672
     36          6           0        9.344446   -0.692121   -1.403580
     37          6           0       -1.248368    6.508045    0.394667
     38          6           0       -4.667868   -2.521652   -1.395096
     39          6           0       -4.047542   -3.690838   -1.060543
     40          6           0       -2.694828   -3.258998   -0.528220
     41          6           0       -5.870169   -2.395085   -2.160920
     42          6           0       -4.280590   -5.170264   -1.342846
     43          6           0       -6.580339   -3.412734   -2.687425
     44          1           0        4.344054   -2.135648   -0.170846
     45          1           0        4.922380    0.553317    1.383978
     46          1           0        4.527354   -1.245142    2.058850
     47          1           0        2.989053    1.498482   -0.122917
     48          1           0        3.458643   -0.589603   -1.697627
     49          1           0       -0.605808   -0.170292    3.547655
     50          1           0       -1.296858    0.299336    2.061028
     51          1           0        0.619202    2.936711    0.349715
     52          1           0        3.168515   -1.776577    3.713698
     53          1           0        1.275753   -1.550767    4.034714
     54          1           0        1.848364   -2.871655    2.837901
     55          1           0        6.437000   -2.765711    1.296197
     56          1           0        7.516544   -1.544125    1.815051
     57          1           0        8.019310   -2.582257    0.453794
     58          1           0       -1.287666   -1.956728    1.389253
     59          1           0       -0.626718   -2.387568    3.034326
     60          1           0       -1.603725   -0.262351   -0.153822
     61          1           0       -1.916421    4.877395   -1.525304
     62          1           0       -0.376404    4.430075   -1.196827
     63          1           0        8.087388   -1.081795   -2.985564
     64          1           0       -0.938242    4.506074    1.162353
     65          1           0       -2.769684    4.962907    0.642187
     66          1           0       -4.322156    4.359208   -1.611614
     67          1           0       -5.237794    2.446829   -1.521105
     68          1           0       -4.354859    2.897693   -3.138233
     69          1           0       -4.908936    0.506886   -1.683836
     70          1           0        9.453079   -0.622234   -0.336166
     71          1           0       10.196235   -0.777917   -2.062478
     72          1           0       -4.046736   -3.110614    3.523303
     73          1           0       -6.308896   -1.406831   -2.134614
     74          1           0       -5.253111   -5.441311   -0.895568
     75          1           0       -4.404662   -5.340698   -2.467418
     76          1           0       -3.554576   -5.926889   -0.927680
     77          1           0       -1.455044    8.194477    1.323898
     78          1           0       -7.564339   -3.089694   -3.108047
     79          1           0       -6.017370   -4.475358   -2.680326
 ---------------------------------------------------------------------

 SCF Done:  E(RB3LYP) =  -1947.84722872     A.U. after   16 cycles

 Excitation energies and oscillator strengths:

 Excited State   1:      Singlet-A      2.0032 eV  618.94 nm  f=0.3147  <S**2>=0.000
     153 ->156        -0.13474
     154 ->156         0.12357
     155 ->156         0.68015
     155 <-156        -0.10551
 This state for optimization and/or second-order correction.
 Total Energy, E(TD-HF/TD-DFT) =  -1947.77361377
 Copying the excited state density for this state as the 1-particle RhoCI density.

 The electronic state is 1-A.
 Alpha  occ. eigenvalues --  -19.19277 -19.14560 -19.14032 -19.12805 -19.10808
 Alpha  occ. eigenvalues --  -19.09916 -14.39047 -14.36563 -14.35494 -14.29217
 Alpha  occ. eigenvalues --  -10.33170 -10.29890 -10.28639 -10.26349 -10.25197
 Alpha  occ. eigenvalues --  -10.25057 -10.24643 -10.24069 -10.23557 -10.23430
 Alpha  occ. eigenvalues --  -10.22650 -10.22533 -10.22503 -10.22326 -10.22000
 Alpha  occ. eigenvalues --  -10.21485 -10.21309 -10.20968 -10.20660 -10.20595
 Alpha  occ. eigenvalues --  -10.20264 -10.20246 -10.20233 -10.20191 -10.20183
 Alpha  occ. eigenvalues --  -10.20077 -10.19933 -10.19520 -10.19503 -10.19383
 Alpha  occ. eigenvalues --  -10.19177 -10.17309 -10.17049  -1.09787  -1.08816
 Alpha  occ. eigenvalues --   -1.06536  -1.00006  -0.99138  -0.98284  -0.97928
 Alpha  occ. eigenvalues --   -0.97363  -0.93443  -0.90159  -0.83662  -0.82847
 Alpha  occ. eigenvalues --   -0.82124  -0.80591  -0.80404  -0.80141  -0.78036
 Alpha  occ. eigenvalues --   -0.77144  -0.75830  -0.75285  -0.74354  -0.72089
 Alpha  occ. eigenvalues --   -0.71766  -0.70004  -0.69518  -0.67962  -0.67405
 Alpha  occ. eigenvalues --   -0.66053  -0.64644  -0.63687  -0.61321  -0.60374
 Alpha  occ. eigenvalues --   -0.59041  -0.58238  -0.57815  -0.56359  -0.56200
 Alpha  occ. eigenvalues --   -0.55913  -0.54500  -0.54241  -0.53560  -0.53059
 Alpha  occ. eigenvalues --   -0.51464  -0.51136  -0.51109  -0.50389  -0.49827
 Alpha  occ. eigenvalues --   -0.49022  -0.48884  -0.48554  -0.48508  -0.47824
 Alpha  occ. eigenvalues --   -0.47703  -0.46993  -0.46536  -0.45953  -0.45883
 Alpha  occ. eigenvalues --   -0.45383  -0.44764  -0.44531  -0.43918  -0.43590
 Alpha  occ. eigenvalues --   -0.43308  -0.43186  -0.43042  -0.42774  -0.42533
 Alpha  occ. eigenvalues --   -0.42105  -0.41598  -0.41273  -0.41014  -0.40763
 Alpha  occ. eigenvalues --   -0.40342  -0.40293  -0.40267  -0.40009  -0.39696
 Alpha  occ. eigenvalues --   -0.39422  -0.39070  -0.38994  -0.38678  -0.38356
 Alpha  occ. eigenvalues --   -0.38089  -0.37803  -0.37654  -0.37530  -0.36904
 Alpha  occ. eigenvalues --   -0.36305  -0.35953  -0.35728  -0.35184  -0.34162
 Alpha  occ. eigenvalues --   -0.34043  -0.33178  -0.32905  -0.32858  -0.31472
 Alpha  occ. eigenvalues --   -0.30659  -0.30394  -0.29152  -0.28229  -0.27545
 Alpha  occ. eigenvalues --   -0.27099  -0.26882  -0.26487  -0.26249  -0.24979
 Alpha  occ. eigenvalues --   -0.23921  -0.23657  -0.23281  -0.22071  -0.19387
 Alpha virt. eigenvalues --   -0.11288  -0.06461  -0.05238  -0.01317  -0.00564
 Alpha virt. eigenvalues --    0.00058   0.00978   0.01372   0.01884   0.02159
 Alpha virt. eigenvalues --    0.02629   0.03297   0.04325   0.04718   0.04789

 Mulliken charges:
               1
     1  O   -0.125145
     2  O   -0.286716
     3  O   -0.114493
     4  O   -0.254650
     5  O   -0.231182
     6  O   -0.242817
     7  N   -0.138643
     8  N   -0.249993
     9  N   -0.107299
    10  N   -0.358156
    11  C    0.035480
    12  C    0.248907
    13  C   -0.119975
    14  C   -0.125888
    15  C   -0.102656
    16  C    0.011232
    17  C   -0.130851
    18  C    0.219046
    19  C   -0.037094
    20  C   -0.069450
    21  C    0.129180
    22  C    0.117271
    23  C   -0.073813
    24  C   -0.019496
    25  C    0.076386
    26  C   -0.029526
    27  C   -0.032416
    28  C    0.019144
    29  C    0.129240
    30  C   -0.084091
    31  C   -0.003524
    32  C   -0.082405
    33  C   -0.091231
    34  C    0.114452
    35  C    0.175541
    36  C   -0.005551
    37  C    0.150664
    38  C    0.065312
    39  C   -0.185187
    40  C    0.184997
    41  C   -0.048827
    42  C    0.064860
    43  C   -0.030982
    44  H    0.029607
    45  H    0.018069
    46  H   -0.002101
    47  H    0.186593
    48  H    0.155622
    49  H    0.001760
    50  H   -0.090381
    51  H   -0.029223
    52  H    0.038441
    53  H    0.035573
    54  H    0.060173
    55  H    0.008605
    56  H    0.048885
    57  H    0.029347
    58  H    0.067897
    59  H    0.015647
    60  H    0.183578
    61  H   -0.040112
    62  H    0.014285
    63  H    0.014992
    64  H    0.052281
    65  H    0.053825
    66  H    0.048163
    67  H    0.063536
    68  H    0.070319
    69  H   -0.023772
    70  H    0.010142
    71  H    0.031359
    72  H    0.186155
    73  H   -0.020094
    74  H    0.025784
    75  H    0.051974
    76  H    0.045605
    77  H    0.231544
    78  H    0.031640
    79  H    0.034625
 Sum of Mulliken charges =  -0.00000

 Dipole moment (field-independent basis, Debye):
    X=              0.3480    Y=              1.9457    Z=              2.0057  Tot=              2.8159
 Quadrupole moment (field-independent basis, Debye-Ang):
   XX=           -216.5084   YY=           -246.9340   ZZ=           -262.1620
   XY=            -16.1365   XZ=             27.4199   YZ=              5.3186

 Normal termination of Gaussian 16 at Wed Sep 18 08:07:26 2019.
