 Gaussian 16, Revision A.03,
 Gaussian 16:  ES64L-G16RevA.03 25-Dec-2016

 --------------------------
 # td=(NStates=1) B3LYP/SVP
 --------------------------

 --
 TD
 --
 Symbolic Z-matrix:
 Charge =  0 Multiplicity = 1

                         Standard orientation:
 ---------------------------------------------------------------------
 Center     Atomic      Atomic             Coordinates (Angstroms)
 Number     Number       Type             X           Y           Z
 ---------------------------------------------------------------------
      1          8           0        5.340905    0.010793   -3.274919
      2          8           0       -3.216948   -2.761679    3.456047
      3          8           0       -3.260266   -0.526934    3.074343
      4          8           0       -1.324552    7.250345    1.478330
      5          8           0       -0.300097    6.906296   -0.554880
      6          8           0       -1.879268   -4.009526    0.214543
      7          7           0        2.317198    1.022121    0.689436
      8          7           0        4.295074   -0.530372   -1.161239
      9          7           0       -1.835385    0.704331   -0.410535
     10          7           0       -2.662555   -1.900798   -0.360217
     11          6           0        4.659480   -1.238500   -0.009300
     12          6           0        4.344307   -0.542187    1.355546
     13          6           0        2.890655   -0.046480    1.397177
     14          6           0        1.895002   -0.791217    2.016514
     15          6           0        0.630896   -0.060139    1.821429
     16          6           0        0.918246    0.995440    0.922030
     17          6           0        6.175402   -1.519568   -0.150338
     18          6           0       -0.680098   -0.118322    2.517647
     19          6           0        6.560610   -1.120726   -1.414404
     20          6           0        0.148273    2.039687    0.307359
     21          6           0       -1.084166    1.929685   -0.273645
     22          6           0        5.394260   -0.519557   -2.103274
     23          6           0       -1.864516    2.954380   -0.895190
     24          6           0        2.075342   -1.828256    3.103867
     25          6           0        6.954391   -2.228536    0.705025
     26          6           0       -3.060085    2.415900   -1.347799
     27          6           0       -1.206111   -1.602709    2.672735
     28          6           0       -2.957924    0.897371   -1.084820
     29          6           0       -1.460321    4.401520   -0.945046
     30          6           0        7.865531   -0.894430   -2.062380
     31          6           0       -1.521996    5.110974    0.381808
     32          6           0       -4.120038    3.173336   -2.022777
     33          6           0       -3.926219   -0.047539   -1.407001
     34          6           0       -2.682373   -1.570543    3.000113
     35          6           0       -3.694332   -1.434707   -1.156879
     36          6           0        9.143067   -1.013020   -1.500827
     37          6           0       -0.885741    6.454169    0.358840
     38          6           0       -4.563049   -2.516161   -1.585078
     39          6           0       -3.956878   -3.727670   -1.166047
     40          6           0       -2.675873   -3.269898   -0.373753
     41          6           0       -5.925527   -2.428252   -2.149499
     42          6           0       -4.394449   -5.179435   -1.162242
     43          6           0       -6.687435   -3.318891   -2.873135
     44          1           0        4.142171   -2.181523    0.222756
     45          1           0        5.045483    0.330322    1.293301
     46          1           0        4.624309   -1.167395    2.290804
     47          1           0        2.758077    1.416212   -0.165126
     48          1           0        3.476952   -0.706054   -1.532554
     49          1           0       -0.262685    0.040594    3.675905
     50          1           0       -1.441032    0.789806    2.462156
     51          1           0        0.822957    3.012351    0.173584
     52          1           0        3.161883   -2.159811    3.222996
     53          1           0        1.731144   -1.565135    4.178631
     54          1           0        1.437761   -2.684329    2.855233
     55          1           0        6.568352   -3.094424    1.446473
     56          1           0        7.618056   -1.587310    1.449931
     57          1           0        7.768336   -2.799282    0.223910
     58          1           0       -1.119089   -2.223114    1.643508
     59          1           0       -0.751373   -2.368456    3.335100
     60          1           0       -1.571678   -0.355729   -0.297876
     61          1           0       -2.142718    4.909877   -1.593298
     62          1           0       -0.393927    4.415637   -1.248810
     63          1           0        7.741375   -0.563509   -3.134205
     64          1           0       -0.814938    4.686622    1.055501
     65          1           0       -2.661557    5.081846    0.798323
     66          1           0       -3.705379    3.964503   -2.179831
     67          1           0       -5.292661    3.113582   -1.564049
     68          1           0       -4.177021    2.483807   -2.970328
     69          1           0       -4.791925    0.325137   -1.846128
     70          1           0        9.275978   -1.219141   -0.394447
     71          1           0       10.109398   -0.580963   -2.025329
     72          1           0       -4.208553   -2.462662    3.600523
     73          1           0       -6.245595   -1.488497   -2.021374
     74          1           0       -5.354313   -5.190110   -0.794280
     75          1           0       -4.601019   -5.340570   -2.249671
     76          1           0       -3.683145   -5.757881   -0.564127
     77          1           0       -0.672051    8.088296    1.370867
     78          1           0       -7.638263   -2.909475   -3.111076
     79          1           0       -6.281785   -4.408886   -3.316765
 ---------------------------------------------------------------------

 SCF Done:  E(RB3LYP) =  -1947.82468745     A.U. after   16 cycles

 Excitation energies and oscillator strengths:

 Excited State   1:      Singlet-A      2.1199 eV  584.87 nm  f=0.3232  <S**2>=0.000
     154 ->156         0.23354
     155 ->156         0.65964
 This state for optimization and/or second-order correction.
 Total Energy, E(TD-HF/TD-DFT) =  -1947.74678381
 Copying the excited state density for this state as the 1-particle RhoCI density.

 The electronic state is 1-A.
 Alpha  occ. eigenvalues --  -19.18066 -19.16787 -19.14778 -19.11532 -19.11046
 Alpha  occ. eigenvalues --  -19.10356 -14.38209 -14.37128 -14.35716 -14.29118
 Alpha  occ. eigenvalues --  -10.32739 -10.30116 -10.30021 -10.26488 -10.25214
 Alpha  occ. eigenvalues --  -10.25182 -10.24728 -10.24176 -10.23602 -10.23058
 Alpha  occ. eigenvalues --  -10.23018 -10.22822 -10.22659 -10.22367 -10.22024
 Alpha  occ. eigenvalues --  -10.21810 -10.21772 -10.21574 -10.21526 -10.21337
 Alpha  occ. eigenvalues --  -10.21119 -10.21044 -10.20962 -10.20703 -10.20656
 Alpha  occ. eigenvalues --  -10.20367 -10.20228 -10.19870 -10.19847 -10.19651
 Alpha  occ. eigenvalues --  -10.19628 -10.19160 -10.18641  -1.09557  -1.07160
 Alpha  occ. eigenvalues --   -1.00778  -1.00332  -0.99987  -0.98637  -0.97989
 Alpha  occ. eigenvalues --   -0.96742  -0.94912  -0.91031  -0.84365  -0.84207
 Alpha  occ. eigenvalues --   -0.81576  -0.80629  -0.79747  -0.79542  -0.79024
 Alpha  occ. eigenvalues --   -0.77196  -0.75932  -0.74824  -0.74645  -0.73386
 Alpha  occ. eigenvalues --   -0.72528  -0.71080  -0.69977  -0.68626  -0.68563
 Alpha  occ. eigenvalues --   -0.66031  -0.65587  -0.63440  -0.61442  -0.60070
 Alpha  occ. eigenvalues --   -0.59327  -0.58691  -0.57320  -0.56688  -0.56027
 Alpha  occ. eigenvalues --   -0.55633  -0.54902  -0.54470  -0.54258  -0.53165
 Alpha  occ. eigenvalues --   -0.52559  -0.51674  -0.51583  -0.50753  -0.50346
 Alpha  occ. eigenvalues --   -0.48882  -0.48790  -0.48355  -0.48024  -0.47681
 Alpha  occ. eigenvalues --   -0.47485  -0.46960  -0.46634  -0.45475  -0.45282
 Alpha  occ. eigenvalues --   -0.44784  -0.44726  -0.44588  -0.44196  -0.43677
 Alpha  occ. eigenvalues --   -0.43123  -0.42950  -0.42829  -0.42549  -0.42340
 Alpha  occ. eigenvalues --   -0.42179  -0.41918  -0.41661  -0.41567  -0.41251
 Alpha  occ. eigenvalues --   -0.41161  -0.40952  -0.40209  -0.40025  -0.39959
 Alpha  occ. eigenvalues --   -0.39509  -0.39492  -0.39131  -0.38804  -0.38360
 Alpha  occ. eigenvalues --   -0.38183  -0.37700  -0.37465  -0.37195  -0.36801
 Alpha  occ. eigenvalues --   -0.36544  -0.35914  -0.35714  -0.35283  -0.34895
 Alpha  occ. eigenvalues --   -0.33995  -0.33701  -0.32914  -0.31543  -0.31456
 Alpha  occ. eigenvalues --   -0.31205  -0.30726  -0.29540  -0.28502  -0.27516
 Alpha  occ. eigenvalues --   -0.27294  -0.26506  -0.26406  -0.25792  -0.24323
 Alpha  occ. eigenvalues --   -0.24225  -0.23615  -0.23475  -0.21644  -0.19497
 Alpha virt. eigenvalues --   -0.10846  -0.07946  -0.06553  -0.01654  -0.01500
 Alpha virt. eigenvalues --   -0.01159   0.00716   0.02115   0.02674   0.02828
 Alpha virt. eigenvalues --    0.03175   0.03710   0.03933   0.04521   0.04966

 Mulliken charges:
               1
     1  O   -0.275254
     2  O   -0.241445
     3  O   -0.227695
     4  O   -0.295579
     5  O   -0.173468
     6  O   -0.232227
     7  N   -0.127260
     8  N   -0.121283
     9  N   -0.096679
    10  N   -0.309218
    11  C    0.067931
    12  C    0.135735
    13  C   -0.057710
    14  C   -0.116550
    15  C   -0.038190
    16  C    0.033344
    17  C   -0.068177
    18  C    0.008475
    19  C   -0.047984
    20  C   -0.166358
    21  C    0.161454
    22  C    0.174233
    23  C   -0.079399
    24  C    0.034883
    25  C   -0.050127
    26  C   -0.173257
    27  C   -0.072103
    28  C    0.069391
    29  C    0.150936
    30  C   -0.005261
    31  C   -0.000091
    32  C    0.181200
    33  C   -0.076667
    34  C    0.153963
    35  C    0.141262
    36  C   -0.082853
    37  C    0.131901
    38  C   -0.010767
    39  C   -0.244081
    40  C    0.159930
    41  C    0.019534
    42  C    0.168743
    43  C   -0.045895
    44  H    0.015409
    45  H   -0.013353
    46  H    0.035499
    47  H    0.136130
    48  H    0.091668
    49  H    0.023172
    50  H    0.085695
    51  H    0.032367
    52  H    0.002380
    53  H    0.035425
    54  H    0.037198
    55  H    0.044606
    56  H    0.052365
    57  H    0.040159
    58  H    0.092978
    59  H    0.034985
    60  H    0.190174
    61  H    0.003851
    62  H    0.016376
    63  H    0.039572
    64  H    0.020768
    65  H    0.077604
    66  H   -0.102161
    67  H    0.068303
    68  H    0.043897
    69  H   -0.058057
    70  H    0.027064
    71  H    0.058829
    72  H    0.201098
    73  H   -0.052863
    74  H   -0.001369
    75  H    0.025642
    76  H    0.047360
    77  H    0.212016
    78  H    0.018158
    79  H    0.059721
 Sum of Mulliken charges =  -0.00000

 Dipole moment (field-independent basis, Debye):
    X=              1.2195    Y=              1.6009    Z=              2.1787  Tot=              2.9660
 Quadrupole moment (field-independent basis, Debye-Ang):
   XX=           -218.6495   YY=           -253.0084   ZZ=           -266.0784
   XY=            -11.4774   XZ=             34.7862   YZ=              2.5554

 Normal termination of Gaussian 16 at Tue Sep 17 12:25:25 2019.
