 Gaussian 16, Revision A.03,
 Gaussian 16:  ES64L-G16RevA.03 25-Dec-2016

 --------------------------
 # td=(NStates=1) B3LYP/SVP
 --------------------------

 --
 TD
 --
 Symbolic Z-matrix:
 Charge =  0 Multiplicity = 1

                         Standard orientation:
 ---------------------------------------------------------------------
 Center     Atomic      Atomic             Coordinates (Angstroms)
 Number     Number       Type             X           Y           Z
 ---------------------------------------------------------------------
      1          8           0        5.160722   -0.270870   -3.276201
      2          8           0       -2.978880   -2.812538    3.419642
      3          8           0       -3.403577   -0.701734    2.876004
      4          8           0       -1.493077    7.169685    1.418267
      5          8           0       -0.475365    6.959938   -0.520636
      6          8           0       -1.802941   -3.893597    0.162140
      7          7           0        2.409669    0.940967    0.759708
      8          7           0        4.315626   -0.584376   -1.186160
      9          7           0       -1.988211    0.657827   -0.263495
     10          7           0       -2.674187   -1.787798   -0.416444
     11          6           0        4.784309   -1.126349    0.031571
     12          6           0        4.444548   -0.265886    1.251511
     13          6           0        2.937786    0.021435    1.403824
     14          6           0        2.024399   -0.675859    2.166047
     15          6           0        0.726553    0.043967    1.873268
     16          6           0        1.024741    0.961058    0.885163
     17          6           0        6.277117   -1.241940   -0.256655
     18          6           0       -0.591846   -0.206425    2.495397
     19          6           0        6.570060   -0.851032   -1.454096
     20          6           0        0.183034    1.888779    0.186095
     21          6           0       -1.229021    1.902227   -0.236108
     22          6           0        5.313798   -0.521372   -2.102121
     23          6           0       -1.883661    2.910911   -0.890379
     24          6           0        2.253411   -1.756654    3.038063
     25          6           0        7.121208   -1.872199    0.848674
     26          6           0       -3.165408    2.257169   -1.310254
     27          6           0       -1.125494   -1.624585    2.694003
     28          6           0       -3.090169    0.875302   -0.979589
     29          6           0       -1.449301    4.291338   -0.967227
     30          6           0        7.854174   -0.885781   -2.139053
     31          6           0       -1.722061    5.063939    0.308286
     32          6           0       -4.157161    2.982657   -2.164377
     33          6           0       -4.031049   -0.069230   -1.308415
     34          6           0       -2.570563   -1.591946    2.990155
     35          6           0       -3.802459   -1.455609   -1.168085
     36          6           0        9.135802   -1.034783   -1.573451
     37          6           0       -1.126100    6.408826    0.339826
     38          6           0       -4.667959   -2.642860   -1.505586
     39          6           0       -3.916361   -3.741228   -1.117461
     40          6           0       -2.694101   -3.177050   -0.345161
     41          6           0       -5.871419   -2.424185   -2.128698
     42          6           0       -4.078820   -5.210666   -1.252196
     43          6           0       -6.779871   -3.430675   -2.360955
     44          1           0        4.415084   -2.150536    0.196818
     45          1           0        4.833165    0.779704    1.202796
     46          1           0        4.779047   -0.620771    2.130257
     47          1           0        2.824907    1.868017    0.121426
     48          1           0        3.291836   -0.789959   -1.352738
     49          1           0       -0.647056    0.101791    3.627348
     50          1           0       -1.274541    0.511117    1.987007
     51          1           0        0.714564    2.894802    0.191811
     52          1           0        3.193487   -1.671829    3.627855
     53          1           0        1.401890   -1.699182    3.785401
     54          1           0        2.259768   -2.952281    2.573460
     55          1           0        6.399587   -2.624269    1.568446
     56          1           0        7.611160   -1.116542    1.627023
     57          1           0        7.994140   -2.428366    0.465484
     58          1           0       -1.131619   -2.132182    1.663994
     59          1           0       -0.501322   -2.193941    3.319148
     60          1           0       -1.827046   -0.251983    0.028392
     61          1           0       -2.119252    4.798375   -1.812701
     62          1           0       -0.341576    4.433540   -1.283055
     63          1           0        7.998491   -0.775712   -3.266966
     64          1           0       -1.359345    4.516856    1.260883
     65          1           0       -2.819456    5.047862    0.686129
     66          1           0       -3.673708    4.076577   -2.448099
     67          1           0       -5.333212    3.011673   -1.739542
     68          1           0       -4.244100    2.623646   -3.183757
     69          1           0       -4.816149    0.414661   -1.979828
     70          1           0        9.298308   -1.188930   -0.596458
     71          1           0       10.046132   -0.820413   -2.187036
     72          1           0       -3.802123   -2.878251    3.575946
     73          1           0       -6.258439   -1.505600   -2.707952
     74          1           0       -5.203887   -5.596818   -0.931423
     75          1           0       -3.951307   -5.510898   -2.272071
     76          1           0       -2.958059   -5.523401   -0.908434
     77          1           0       -1.013577    8.087203    1.566827
     78          1           0       -7.756830   -3.200020   -2.813514
     79          1           0       -6.712992   -4.535117   -2.123963
 ---------------------------------------------------------------------

 SCF Done:  E(RB3LYP) =  -1947.80214140     A.U. after   21 cycles

 Excitation energies and oscillator strengths:

 Excited State   1:      Singlet-A      1.9375 eV  639.90 nm  f=0.3338  <S**2>=0.000
     154 ->156         0.29097
     155 ->156         0.64327
     155 <-156        -0.12140
 This state for optimization and/or second-order correction.
 Total Energy, E(TD-HF/TD-DFT) =  -1947.73093799
 Copying the excited state density for this state as the 1-particle RhoCI density.

 The electronic state is 1-A.
 Alpha  occ. eigenvalues --  -19.17592 -19.14659 -19.12748 -19.10775 -19.09817
 Alpha  occ. eigenvalues --  -19.09565 -14.40388 -14.35702 -14.35556 -14.28775
 Alpha  occ. eigenvalues --  -10.32653 -10.30601 -10.28344 -10.26013 -10.25440
 Alpha  occ. eigenvalues --  -10.24957 -10.24246 -10.23583 -10.23501 -10.23398
 Alpha  occ. eigenvalues --  -10.23354 -10.23312 -10.22996 -10.22805 -10.22300
 Alpha  occ. eigenvalues --  -10.22185 -10.21775 -10.21728 -10.21713 -10.21656
 Alpha  occ. eigenvalues --  -10.21097 -10.20380 -10.20305 -10.20241 -10.20000
 Alpha  occ. eigenvalues --  -10.19961 -10.19752 -10.19704 -10.19684 -10.19643
 Alpha  occ. eigenvalues --  -10.18977 -10.18889 -10.18839  -1.08936  -1.08493
 Alpha  occ. eigenvalues --   -1.03454  -1.02356  -0.99232  -0.99117  -0.98701
 Alpha  occ. eigenvalues --   -0.98052  -0.95921  -0.90131  -0.84069  -0.83386
 Alpha  occ. eigenvalues --   -0.82442  -0.81382  -0.80473  -0.79535  -0.78527
 Alpha  occ. eigenvalues --   -0.77812  -0.77036  -0.75194  -0.74630  -0.72956
 Alpha  occ. eigenvalues --   -0.71828  -0.71607  -0.69584  -0.68926  -0.68698
 Alpha  occ. eigenvalues --   -0.68075  -0.66399  -0.63986  -0.62667  -0.61190
 Alpha  occ. eigenvalues --   -0.60397  -0.60058  -0.58632  -0.58055  -0.56976
 Alpha  occ. eigenvalues --   -0.56391  -0.55706  -0.55082  -0.54444  -0.53613
 Alpha  occ. eigenvalues --   -0.52258  -0.52129  -0.51808  -0.50655  -0.50415
 Alpha  occ. eigenvalues --   -0.49517  -0.49292  -0.48495  -0.48012  -0.47397
 Alpha  occ. eigenvalues --   -0.47154  -0.47027  -0.46717  -0.46385  -0.45606
 Alpha  occ. eigenvalues --   -0.45386  -0.44613  -0.44412  -0.43851  -0.43189
 Alpha  occ. eigenvalues --   -0.42957  -0.42659  -0.42181  -0.42137  -0.41829
 Alpha  occ. eigenvalues --   -0.41584  -0.41338  -0.41239  -0.40878  -0.40810
 Alpha  occ. eigenvalues --   -0.40611  -0.40466  -0.40256  -0.39911  -0.39520
 Alpha  occ. eigenvalues --   -0.39354  -0.39160  -0.39054  -0.38539  -0.38457
 Alpha  occ. eigenvalues --   -0.38134  -0.37801  -0.37574  -0.37212  -0.37066
 Alpha  occ. eigenvalues --   -0.36126  -0.35497  -0.35314  -0.34152  -0.33779
 Alpha  occ. eigenvalues --   -0.33288  -0.33228  -0.32424  -0.32263  -0.32019
 Alpha  occ. eigenvalues --   -0.31389  -0.30402  -0.28421  -0.28258  -0.27359
 Alpha  occ. eigenvalues --   -0.27019  -0.26422  -0.25635  -0.25550  -0.24753
 Alpha  occ. eigenvalues --   -0.24363  -0.23830  -0.23290  -0.21432  -0.19101
 Alpha virt. eigenvalues --   -0.11631  -0.07278  -0.06226  -0.01724  -0.01108
 Alpha virt. eigenvalues --   -0.00808   0.00051   0.01285   0.01740   0.02078
 Alpha virt. eigenvalues --    0.02689   0.03038   0.03170   0.04590   0.04840

 Mulliken charges:
               1
     1  O   -0.204546
     2  O   -0.107585
     3  O   -0.238866
     4  O   -0.261936
     5  O   -0.219954
     6  O   -0.258993
     7  N   -0.028546
     8  N   -0.168201
     9  N   -0.026088
    10  N   -0.325931
    11  C    0.060728
    12  C    0.317178
    13  C   -0.186040
    14  C   -0.097702
    15  C   -0.033888
    16  C    0.031002
    17  C   -0.149150
    18  C   -0.003816
    19  C    0.054253
    20  C   -0.082994
    21  C    0.089657
    22  C    0.106545
    23  C   -0.064119
    24  C   -0.016548
    25  C   -0.019430
    26  C   -0.098941
    27  C    0.040271
    28  C    0.074811
    29  C    0.066440
    30  C   -0.078606
    31  C   -0.051604
    32  C   -0.019043
    33  C   -0.096440
    34  C    0.110524
    35  C    0.091170
    36  C   -0.016514
    37  C    0.155364
    38  C    0.162360
    39  C   -0.201828
    40  C    0.180862
    41  C   -0.096360
    42  C    0.044383
    43  C   -0.078415
    44  H    0.023579
    45  H   -0.020591
    46  H   -0.057548
    47  H    0.194352
    48  H    0.154084
    49  H    0.017695
    50  H    0.018051
    51  H    0.011581
    52  H    0.011794
    53  H    0.028927
    54  H    0.051456
    55  H    0.045297
    56  H    0.056746
    57  H    0.046928
    58  H    0.084194
    59  H    0.007128
    60  H    0.102059
    61  H    0.034593
    62  H    0.050943
    63  H    0.034726
    64  H    0.049757
    65  H    0.061757
    66  H    0.028705
    67  H    0.059641
    68  H    0.032120
    69  H   -0.014158
    70  H   -0.029620
    71  H    0.040529
    72  H    0.097479
    73  H    0.027209
    74  H    0.065435
    75  H    0.009799
    76  H    0.053937
    77  H    0.227695
    78  H    0.018894
    79  H    0.021360
 Sum of Mulliken charges =  -0.00000

 Dipole moment (field-independent basis, Debye):
    X=              2.5602    Y=              2.9738    Z=              3.2353  Tot=              5.0858
 Quadrupole moment (field-independent basis, Debye-Ang):
   XX=           -220.5612   YY=           -250.7094   ZZ=           -261.2460
   XY=             -5.7820   XZ=             35.0864   YZ=              8.3564

 Normal termination of Gaussian 16 at Fri Sep 20 10:36:45 2019.
