 Gaussian 16, Revision A.03,
 Gaussian 16:  ES64L-G16RevA.03 25-Dec-2016

 --------------------------
 # td=(NStates=1) B3LYP/SVP
 --------------------------

 --
 TD
 --
 Symbolic Z-matrix:
 Charge =  0 Multiplicity = 1

                         Standard orientation:
 ---------------------------------------------------------------------
 Center     Atomic      Atomic             Coordinates (Angstroms)
 Number     Number       Type             X           Y           Z
 ---------------------------------------------------------------------
      1          8           0        5.224951   -0.003167   -3.271170
      2          8           0       -3.036980   -3.136580    3.173587
      3          8           0       -3.306517   -0.929780    2.978640
      4          8           0       -1.197222    7.156739    1.600477
      5          8           0       -0.843376    7.196226   -0.656500
      6          8           0       -1.780650   -3.979322   -0.027032
      7          7           0        2.350626    0.915281    0.734488
      8          7           0        4.260748   -0.826180   -1.257878
      9          7           0       -1.788747    0.766281   -0.234860
     10          7           0       -2.595934   -1.877596   -0.448436
     11          6           0        4.781094   -1.367592    0.019429
     12          6           0        4.332099   -0.513385    1.282387
     13          6           0        2.883569   -0.159240    1.368077
     14          6           0        1.892879   -0.740668    2.158246
     15          6           0        0.706470   -0.091666    1.794347
     16          6           0        0.967027    0.929244    0.879513
     17          6           0        6.235186   -1.450064   -0.201002
     18          6           0       -0.571147   -0.322077    2.592395
     19          6           0        6.634897   -0.843031   -1.405354
     20          6           0        0.250798    1.981906    0.228315
     21          6           0       -1.075646    1.922033   -0.207097
     22          6           0        5.342368   -0.513256   -2.131723
     23          6           0       -1.940276    2.975218   -0.781291
     24          6           0        2.173533   -1.840348    3.162982
     25          6           0        7.102662   -2.153625    0.752899
     26          6           0       -3.078007    2.397232   -1.233887
     27          6           0       -1.203241   -1.765739    2.590159
     28          6           0       -3.058314    1.032788   -0.811359
     29          6           0       -1.354650    4.395466   -0.855514
     30          6           0        7.831094   -0.610491   -2.085416
     31          6           0       -1.633010    5.179527    0.415449
     32          6           0       -4.271847    3.149853   -1.782928
     33          6           0       -4.035796   -0.009280   -1.181394
     34          6           0       -2.599207   -1.818858    2.990648
     35          6           0       -3.703346   -1.413263   -0.977655
     36          6           0        9.036352   -0.510359   -1.624171
     37          6           0       -1.177847    6.602899    0.388553
     38          6           0       -4.631184   -2.540936   -1.581131
     39          6           0       -3.918457   -3.636177   -1.285981
     40          6           0       -2.647731   -3.351701   -0.612706
     41          6           0       -5.887502   -2.307649   -2.232733
     42          6           0       -4.228866   -5.096942   -1.329205
     43          6           0       -6.807810   -3.242799   -2.702637
     44          1           0        4.392399   -2.364899    0.258756
     45          1           0        4.851606    0.428112    1.101672
     46          1           0        4.793227   -1.088212    2.134176
     47          1           0        2.694624    1.407457   -0.153273
     48          1           0        3.237720   -0.766196   -1.396782
     49          1           0       -0.234725   -0.151915    3.664348
     50          1           0       -1.463687    0.373371    2.430633
     51          1           0        0.862670    2.932618    0.022710
     52          1           0        3.234953   -1.781942    3.593266
     53          1           0        1.514894   -1.729379    3.962348
     54          1           0        1.953969   -2.839848    2.736247
     55          1           0        6.676077   -3.027852    1.209867
     56          1           0        7.783747   -1.536270    1.600818
     57          1           0        8.000603   -2.438677    0.085173
     58          1           0       -1.081083   -1.985800    1.485236
     59          1           0       -0.604866   -2.369401    3.357289
     60          1           0       -1.432515   -0.145970   -0.100356
     61          1           0       -1.967851    5.099214   -1.493674
     62          1           0       -0.248016    4.519131   -1.149136
     63          1           0        7.638330   -0.284953   -3.096294
     64          1           0       -1.163984    4.514677    1.384160
     65          1           0       -2.773998    5.130775    0.834636
     66          1           0       -3.944484    4.304730   -1.939889
     67          1           0       -5.142940    3.059775   -1.130306
     68          1           0       -4.447972    2.540479   -2.735452
     69          1           0       -4.954435    0.518364   -1.634342
     70          1           0        9.382935   -0.659887   -0.606323
     71          1           0       10.000497   -0.318046   -2.300652
     72          1           0       -3.907450   -2.725191    3.103404
     73          1           0       -6.231858   -1.413593   -2.232213
     74          1           0       -5.295740   -5.443073   -0.995150
     75          1           0       -3.901575   -5.597222   -2.272693
     76          1           0       -3.378022   -5.703544   -0.756778
     77          1           0       -0.600659    7.814311    1.501569
     78          1           0       -7.687839   -2.834759   -3.355421
     79          1           0       -6.699953   -4.315949   -2.656064
 ---------------------------------------------------------------------

 SCF Done:  E(RB3LYP) =  -1947.87669062     A.U. after   17 cycles

 Excitation energies and oscillator strengths:

 Excited State   1:      Singlet-A      1.9593 eV  632.81 nm  f=0.4704  <S**2>=0.000
     155 ->156         0.70179
     155 <-156        -0.11778
 This state for optimization and/or second-order correction.
 Total Energy, E(TD-HF/TD-DFT) =  -1947.80468872
 Copying the excited state density for this state as the 1-particle RhoCI density.

 The electronic state is 1-A.
 Alpha  occ. eigenvalues --  -19.19558 -19.15583 -19.14011 -19.12868 -19.11562
 Alpha  occ. eigenvalues --  -19.10236 -14.38938 -14.36725 -14.35921 -14.29214
 Alpha  occ. eigenvalues --  -10.33628 -10.30031 -10.29355 -10.27242 -10.25293
 Alpha  occ. eigenvalues --  -10.24927 -10.24254 -10.23892 -10.23562 -10.23412
 Alpha  occ. eigenvalues --  -10.23046 -10.22785 -10.22554 -10.22352 -10.22309
 Alpha  occ. eigenvalues --  -10.22189 -10.22007 -10.21725 -10.21200 -10.21095
 Alpha  occ. eigenvalues --  -10.21049 -10.20787 -10.20759 -10.20311 -10.20064
 Alpha  occ. eigenvalues --  -10.20051 -10.19923 -10.19819 -10.19738 -10.19426
 Alpha  occ. eigenvalues --  -10.19355 -10.19296 -10.18631  -1.12836  -1.11594
 Alpha  occ. eigenvalues --   -1.02014  -1.01268  -1.01255  -1.00443  -0.99441
 Alpha  occ. eigenvalues --   -0.98201  -0.92851  -0.91111  -0.83046  -0.82832
 Alpha  occ. eigenvalues --   -0.81695  -0.81378  -0.80653  -0.79814  -0.78444
 Alpha  occ. eigenvalues --   -0.77380  -0.76267  -0.76067  -0.74239  -0.72147
 Alpha  occ. eigenvalues --   -0.71593  -0.71457  -0.69621  -0.69205  -0.68708
 Alpha  occ. eigenvalues --   -0.66282  -0.65944  -0.63778  -0.61861  -0.61129
 Alpha  occ. eigenvalues --   -0.60316  -0.58904  -0.57934  -0.57446  -0.57108
 Alpha  occ. eigenvalues --   -0.56213  -0.55171  -0.54681  -0.53410  -0.52791
 Alpha  occ. eigenvalues --   -0.51867  -0.51243  -0.51037  -0.50864  -0.50352
 Alpha  occ. eigenvalues --   -0.49882  -0.49447  -0.48807  -0.48674  -0.48372
 Alpha  occ. eigenvalues --   -0.47929  -0.47301  -0.46790  -0.46431  -0.45855
 Alpha  occ. eigenvalues --   -0.45281  -0.45162  -0.44667  -0.44043  -0.43940
 Alpha  occ. eigenvalues --   -0.43753  -0.43575  -0.43272  -0.42977  -0.42726
 Alpha  occ. eigenvalues --   -0.42333  -0.42025  -0.41709  -0.41578  -0.41294
 Alpha  occ. eigenvalues --   -0.40876  -0.40768  -0.40610  -0.40092  -0.40030
 Alpha  occ. eigenvalues --   -0.39967  -0.39565  -0.38885  -0.38745  -0.38595
 Alpha  occ. eigenvalues --   -0.38263  -0.38128  -0.37960  -0.37505  -0.36818
 Alpha  occ. eigenvalues --   -0.35737  -0.35468  -0.34778  -0.34465  -0.34228
 Alpha  occ. eigenvalues --   -0.33804  -0.33549  -0.32871  -0.32722  -0.32479
 Alpha  occ. eigenvalues --   -0.31701  -0.31042  -0.29515  -0.29093  -0.28319
 Alpha  occ. eigenvalues --   -0.27552  -0.26695  -0.26164  -0.25723  -0.25426
 Alpha  occ. eigenvalues --   -0.24610  -0.24419  -0.23853  -0.22654  -0.18661
 Alpha virt. eigenvalues --   -0.10995  -0.07394  -0.06978  -0.02758  -0.01192
 Alpha virt. eigenvalues --    0.00587   0.01097   0.01923   0.02510   0.02894
 Alpha virt. eigenvalues --    0.03041   0.03918   0.04740   0.05013   0.05754

 Mulliken charges:
               1
     1  O   -0.258696
     2  O   -0.205133
     3  O   -0.162001
     4  O   -0.099467
     5  O   -0.256228
     6  O   -0.177371
     7  N   -0.088761
     8  N   -0.245175
     9  N   -0.064250
    10  N   -0.289831
    11  C    0.081055
    12  C    0.208799
    13  C   -0.090563
    14  C   -0.143474
    15  C   -0.074851
    16  C    0.063939
    17  C   -0.141810
    18  C   -0.028379
    19  C   -0.022435
    20  C   -0.110841
    21  C    0.049208
    22  C    0.196143
    23  C   -0.033208
    24  C    0.136817
    25  C    0.002376
    26  C   -0.144098
    27  C   -0.009039
    28  C    0.066987
    29  C    0.087639
    30  C    0.034761
    31  C   -0.155455
    32  C    0.035535
    33  C   -0.107715
    34  C    0.120806
    35  C    0.089005
    36  C   -0.080347
    37  C    0.165935
    38  C    0.081313
    39  C   -0.194740
    40  C    0.173741
    41  C    0.049431
    42  C    0.019679
    43  C   -0.040003
    44  H    0.011509
    45  H   -0.021633
    46  H    0.011965
    47  H    0.144050
    48  H    0.140303
    49  H    0.011342
    50  H    0.036787
    51  H    0.012222
    52  H    0.019916
    53  H   -0.008968
    54  H    0.042272
    55  H    0.026614
    56  H    0.060226
    57  H    0.039804
    58  H    0.103209
    59  H    0.024982
    60  H    0.127240
    61  H    0.023879
    62  H    0.050022
    63  H    0.010551
    64  H    0.057260
    65  H    0.072971
    66  H    0.051428
    67  H    0.047339
    68  H    0.046885
    69  H    0.005390
    70  H    0.009926
    71  H    0.044231
    72  H    0.133600
    73  H   -0.088444
    74  H    0.054185
    75  H    0.019839
    76  H    0.033935
    77  H    0.136271
    78  H    0.045232
    79  H    0.024359
 Sum of Mulliken charges =  -0.00000

 Dipole moment (field-independent basis, Debye):
    X=              1.2139    Y=              1.8354    Z=              3.0952  Tot=              3.7977
 Quadrupole moment (field-independent basis, Debye-Ang):
   XX=           -217.3707   YY=           -255.6154   ZZ=           -267.5204
   XY=             -8.9646   XZ=             35.8385   YZ=             11.8905

 Normal termination of Gaussian 16 at Sat Sep 14 23:03:10 2019.
