 Gaussian 16, Revision A.03,
 Gaussian 16:  ES64L-G16RevA.03 25-Dec-2016

 --------------------------
 # td=(NStates=1) B3LYP/SVP
 --------------------------

 --
 TD
 --
 Symbolic Z-matrix:
 Charge =  0 Multiplicity = 1

                         Standard orientation:
 ---------------------------------------------------------------------
 Center     Atomic      Atomic             Coordinates (Angstroms)
 Number     Number       Type             X           Y           Z
 ---------------------------------------------------------------------
      1          8           0       -3.334864   -1.956088   -2.699247
      2          8           0        2.807088    3.543261    2.970911
      3          8           0        3.453475    1.893416    4.332277
      4          8           0        7.720911   -1.653872   -0.390607
      5          8           0        6.630839   -3.243166   -1.555001
      6          8           0       -2.571515    1.717613    1.288451
      7          7           0       -0.305765   -2.255956    1.117560
      8          7           0       -2.654290   -1.256448   -0.610773
      9          7           0        1.192903   -0.043354   -0.757981
     10          7           0       -0.838125    1.426026   -0.316304
     11          6           0       -3.364482   -1.195183    0.745870
     12          6           0       -2.664787   -2.186683    1.792081
     13          6           0       -1.256001   -1.735846    1.973860
     14          6           0       -0.558177   -0.852121    2.886730
     15          6           0        0.827481   -0.852843    2.544730
     16          6           0        0.875114   -1.690636    1.440230
     17          6           0       -4.813523   -1.675974    0.418310
     18          6           0        1.804084   -0.004818    3.187499
     19          6           0       -4.849206   -2.110613   -0.837470
     20          6           0        2.016462   -1.910947    0.528249
     21          6           0        2.029846   -1.140335   -0.556337
     22          6           0       -3.557717   -1.777431   -1.614858
     23          6           0        3.034001   -0.964760   -1.693770
     24          6           0       -1.231865   -0.027450    3.851314
     25          6           0       -5.715328   -1.934294    1.471648
     26          6           0        2.614737    0.205595   -2.516956
     27          6           0        1.779419    1.504206    2.677985
     28          6           0        1.395279    0.733003   -1.962120
     29          6           0        4.275994   -1.836576   -1.898773
     30          6           0       -5.833795   -2.717067   -1.650388
     31          6           0        5.443700   -1.266051   -1.085156
     32          6           0        3.319344    0.632749   -3.880753
     33          6           0        0.619666    1.780813   -2.248581
     34          6           0        2.708415    2.366477    3.418592
     35          6           0       -0.505675    2.175599   -1.436770
     36          6           0       -7.045684   -3.248009   -1.300869
     37          6           0        6.595395   -2.188721   -0.976581
     38          6           0       -1.323009    3.424307   -1.627268
     39          6           0       -2.242766    3.336915   -0.467644
     40          6           0       -1.994638    2.185441    0.259154
     41          6           0       -1.048783    4.289786   -2.684438
     42          6           0       -3.316222    4.353238   -0.224909
     43          6           0       -1.878388    5.332469   -3.145467
     44          1           0       -3.182171   -0.226216    1.234406
     45          1           0       -2.735149   -3.084348    1.634496
     46          1           0       -3.286661   -1.950765    2.843177
     47          1           0       -0.617082   -2.800580    0.333464
     48          1           0       -1.805070   -0.709249   -0.986294
     49          1           0        1.580900    0.243453    4.273729
     50          1           0        3.002807   -0.461998    3.110916
     51          1           0        2.783042   -2.679770    0.782671
     52          1           0       -2.132404   -0.318972    4.417533
     53          1           0       -0.440154    0.259154    4.568329
     54          1           0       -1.376035    1.093482    3.412427
     55          1           0       -5.373887   -1.606751    2.625097
     56          1           0       -5.945956   -3.259470    1.624643
     57          1           0       -6.664775   -1.562223    1.212730
     58          1           0        2.137601    1.416078    1.664147
     59          1           0        0.637822    1.892361    2.645376
     60          1           0        0.319592    0.203904   -0.137724
     61          1           0        4.646424   -1.927634   -2.935495
     62          1           0        4.095650   -2.921006   -1.498211
     63          1           0       -5.662099   -2.518924   -2.771540
     64          1           0        5.154770   -0.924232   -0.067682
     65          1           0        5.730813   -0.373986   -1.683539
     66          1           0        4.023674   -0.224159   -4.231538
     67          1           0        3.801040    1.617133   -4.057016
     68          1           0        2.624561    0.761516   -4.586112
     69          1           0        0.729201    2.446248   -3.258847
     70          1           0       -7.282701   -3.504369   -0.269805
     71          1           0       -7.868250   -3.472838   -1.960913
     72          1           0        3.418260    4.063085    3.557868
     73          1           0       -0.038617    4.078315   -3.186342
     74          1           0       -4.216427    4.408579   -1.014308
     75          1           0       -3.785473    4.072703    0.635681
     76          1           0       -2.727472    5.315910   -0.298367
     77          1           0        8.524931   -2.203439   -0.828889
     78          1           0       -1.402278    5.901800   -3.938386
     79          1           0       -2.912289    5.430570   -2.790361
 ---------------------------------------------------------------------

 SCF Done:  E(RB3LYP) =  -1947.77971845     A.U. after   20 cycles

 Excitation energies and oscillator strengths:

 Excited State   1:      Singlet-A      0.6175 eV 2007.82 nm  f=0.0016  <S**2>=0.000
     155 ->156         0.70465
 This state for optimization and/or second-order correction.
 Total Energy, E(TD-HF/TD-DFT) =  -1947.75702552
 Copying the excited state density for this state as the 1-particle RhoCI density.

 The electronic state is 1-A.
 Alpha  occ. eigenvalues --  -19.19806 -19.18845 -19.13639 -19.12800 -19.10428
 Alpha  occ. eigenvalues --  -19.09856 -14.36332 -14.35622 -14.32241 -14.31527
 Alpha  occ. eigenvalues --  -10.32632 -10.31065 -10.28611 -10.26283 -10.26100
 Alpha  occ. eigenvalues --  -10.25375 -10.24877 -10.24063 -10.23740 -10.23368
 Alpha  occ. eigenvalues --  -10.23328 -10.23030 -10.22333 -10.22328 -10.22232
 Alpha  occ. eigenvalues --  -10.21914 -10.21821 -10.21563 -10.21450 -10.21355
 Alpha  occ. eigenvalues --  -10.20774 -10.20558 -10.19948 -10.19787 -10.19725
 Alpha  occ. eigenvalues --  -10.19444 -10.18860 -10.18754 -10.18171 -10.17586
 Alpha  occ. eigenvalues --  -10.17249 -10.16739 -10.16419  -1.12323  -1.09312
 Alpha  occ. eigenvalues --   -1.06552  -1.00999  -1.00477  -0.97235  -0.97178
 Alpha  occ. eigenvalues --   -0.95742  -0.91301  -0.88771  -0.82620  -0.81821
 Alpha  occ. eigenvalues --   -0.81583  -0.80523  -0.80314  -0.78590  -0.77644
 Alpha  occ. eigenvalues --   -0.76687  -0.75889  -0.75553  -0.74057  -0.72065
 Alpha  occ. eigenvalues --   -0.71001  -0.70303  -0.68913  -0.68781  -0.67527
 Alpha  occ. eigenvalues --   -0.66576  -0.65667  -0.63374  -0.61562  -0.60797
 Alpha  occ. eigenvalues --   -0.59101  -0.58832  -0.58322  -0.56560  -0.55747
 Alpha  occ. eigenvalues --   -0.55095  -0.54737  -0.54465  -0.52851  -0.52136
 Alpha  occ. eigenvalues --   -0.51577  -0.50903  -0.50443  -0.50037  -0.49672
 Alpha  occ. eigenvalues --   -0.49355  -0.48736  -0.48423  -0.48272  -0.47851
 Alpha  occ. eigenvalues --   -0.47627  -0.46701  -0.46594  -0.46385  -0.45176
 Alpha  occ. eigenvalues --   -0.44612  -0.44490  -0.44165  -0.44063  -0.43698
 Alpha  occ. eigenvalues --   -0.43252  -0.42994  -0.42869  -0.42547  -0.42138
 Alpha  occ. eigenvalues --   -0.41614  -0.41501  -0.41189  -0.40853  -0.40781
 Alpha  occ. eigenvalues --   -0.40429  -0.40048  -0.39809  -0.39555  -0.39488
 Alpha  occ. eigenvalues --   -0.39406  -0.39183  -0.38417  -0.37766  -0.37642
 Alpha  occ. eigenvalues --   -0.37569  -0.37402  -0.37108  -0.36141  -0.36039
 Alpha  occ. eigenvalues --   -0.35833  -0.35419  -0.35329  -0.35039  -0.34606
 Alpha  occ. eigenvalues --   -0.33086  -0.33005  -0.32525  -0.32083  -0.31341
 Alpha  occ. eigenvalues --   -0.30408  -0.30051  -0.29568  -0.29141  -0.29100
 Alpha  occ. eigenvalues --   -0.26219  -0.26062  -0.25086  -0.24934  -0.23750
 Alpha  occ. eigenvalues --   -0.23496  -0.22345  -0.22024  -0.21811  -0.18265
 Alpha virt. eigenvalues --   -0.13803  -0.08866  -0.04601  -0.03095  -0.01802
 Alpha virt. eigenvalues --    0.00508   0.02523   0.02659   0.02851   0.03187
 Alpha virt. eigenvalues --    0.03390   0.03747   0.03958   0.04207   0.04492

 Mulliken charges:
               1
     1  O   -0.110892
     2  O   -0.099666
     3  O   -0.305682
     4  O   -0.256138
     5  O   -0.218167
     6  O   -0.237335
     7  N   -0.025238
     8  N   -0.333906
     9  N   -0.233931
    10  N   -0.368259
    11  C    0.088115
    12  C    0.253848
    13  C   -0.107940
    14  C   -0.117716
    15  C    0.040511
    16  C   -0.072107
    17  C   -0.055648
    18  C   -0.014684
    19  C   -0.075424
    20  C   -0.148030
    21  C    0.215503
    22  C    0.128862
    23  C   -0.108544
    24  C    0.062343
    25  C   -0.041522
    26  C   -0.102606
    27  C   -0.056261
    28  C    0.207970
    29  C    0.057985
    30  C   -0.024680
    31  C   -0.014375
    32  C    0.105248
    33  C   -0.145902
    34  C    0.124854
    35  C    0.049476
    36  C   -0.048644
    37  C    0.154367
    38  C    0.101228
    39  C   -0.164686
    40  C    0.224490
    41  C   -0.126201
    42  C    0.082452
    43  C    0.017377
    44  H    0.048792
    45  H   -0.117385
    46  H    0.012648
    47  H    0.109327
    48  H    0.150710
    49  H    0.028184
    50  H    0.031346
    51  H    0.026408
    52  H    0.015626
    53  H   -0.027525
    54  H    0.036312
    55  H    0.053048
    56  H    0.046858
    57  H    0.030459
    58  H    0.031101
    59  H    0.073558
    60  H    0.235808
    61  H    0.022294
    62  H    0.043165
    63  H    0.025016
    64  H    0.050914
    65  H    0.046393
    66  H    0.033843
    67  H    0.022798
    68  H   -0.016634
    69  H    0.026509
    70  H    0.005142
    71  H    0.017772
    72  H    0.195444
    73  H    0.028858
    74  H    0.052323
    75  H    0.001327
    76  H    0.047435
    77  H    0.227249
    78  H    0.037594
    79  H    0.046840
 Sum of Mulliken charges =  -0.00000

 Dipole moment (field-independent basis, Debye):
    X=              2.2601    Y=              5.2300    Z=             -3.6452  Tot=              6.7638
 Quadrupole moment (field-independent basis, Debye-Ang):
   XX=           -235.7998   YY=           -234.1848   ZZ=           -262.4028
   XY=              0.3977   XZ=            -24.2084   YZ=            -17.1241

 Normal termination of Gaussian 16 at Tue Jul 30 10:01:59 2019.
