 Gaussian 16, Revision A.03,
 Gaussian 16:  ES64L-G16RevA.03 25-Dec-2016

 --------------------------
 # td=(NStates=1) B3LYP/SVP
 --------------------------

 --
 TD
 --
 Symbolic Z-matrix:
 Charge =  0 Multiplicity = 1

                         Standard orientation:
 ---------------------------------------------------------------------
 Center     Atomic      Atomic             Coordinates (Angstroms)
 Number     Number       Type             X           Y           Z
 ---------------------------------------------------------------------
      1          8           0        5.162772   -0.276815   -3.295780
      2          8           0       -3.170247   -2.686927    3.348534
      3          8           0       -3.320577   -0.470608    3.101242
      4          8           0       -1.607327    7.166224    1.383325
      5          8           0       -0.805404    6.966531   -0.679054
      6          8           0       -1.800031   -3.914883    0.410994
      7          7           0        2.300352    1.012538    0.628551
      8          7           0        4.254305   -0.796478   -1.223951
      9          7           0       -1.792686    0.520404   -0.496228
     10          7           0       -2.529887   -1.931590   -0.558099
     11          6           0        4.791976   -1.231004   -0.036564
     12          6           0        4.402501   -0.325726    1.224413
     13          6           0        2.998918   -0.003623    1.312244
     14          6           0        1.952111   -0.583806    2.165742
     15          6           0        0.767466    0.022676    1.905168
     16          6           0        0.923043    1.085631    0.951458
     17          6           0        6.344600   -1.345292   -0.182172
     18          6           0       -0.593447   -0.167167    2.637095
     19          6           0        6.569811   -0.878297   -1.464410
     20          6           0        0.142119    2.029827    0.263203
     21          6           0       -1.078050    1.711380   -0.335849
     22          6           0        5.304528   -0.498075   -2.143351
     23          6           0       -1.938784    2.872072   -0.860269
     24          6           0        2.187773   -1.612696    3.229027
     25          6           0        7.159795   -1.931729    0.869146
     26          6           0       -3.015682    2.313105   -1.436215
     27          6           0       -1.213153   -1.474186    2.693764
     28          6           0       -2.962956    0.868182   -1.203124
     29          6           0       -1.461277    4.276786   -0.943257
     30          6           0        7.803365   -0.692241   -2.107042
     31          6           0       -1.830028    5.122703    0.343234
     32          6           0       -4.220507    2.960431   -1.974687
     33          6           0       -3.872997   -0.213704   -1.560950
     34          6           0       -2.683665   -1.451229    3.093282
     35          6           0       -3.560255   -1.592693   -1.160765
     36          6           0        9.033690   -0.443215   -1.396104
     37          6           0       -1.394240    6.549672    0.279125
     38          6           0       -4.442499   -2.798472   -1.531335
     39          6           0       -3.753482   -3.835164   -0.945539
     40          6           0       -2.629496   -3.366092   -0.280504
     41          6           0       -5.691112   -2.582436   -2.297039
     42          6           0       -4.055418   -5.332977   -1.106325
     43          6           0       -6.566787   -3.522484   -2.608568
     44          1           0        4.302951   -2.157304    0.259348
     45          1           0        5.091810    0.503022    1.284267
     46          1           0        4.767090   -0.970309    2.215595
     47          1           0        2.842732    1.547765    0.029230
     48          1           0        3.291501   -0.961272   -1.556610
     49          1           0       -0.363814    0.206419    3.599971
     50          1           0       -1.493843    0.430837    2.337819
     51          1           0        0.570974    2.982686    0.241933
     52          1           0        3.200246   -1.853779    3.379776
     53          1           0        1.977814   -1.158530    4.212513
     54          1           0        1.380956   -2.538394    3.123607
     55          1           0        6.954750   -3.264906    1.218341
     56          1           0        7.072002   -1.187961    1.794605
     57          1           0        8.215518   -1.888637    0.502142
     58          1           0       -0.987664   -2.017760    1.615416
     59          1           0       -0.626381   -2.119030    3.251651
     60          1           0       -1.630460   -0.595601   -0.301333
     61          1           0       -2.075100    4.757755   -1.688742
     62          1           0       -0.438175    4.447575   -1.113081
     63          1           0        7.788065   -0.872188   -3.372931
     64          1           0       -1.378139    4.627431    1.184484
     65          1           0       -3.052686    4.920193    0.586993
     66          1           0       -4.049205    4.006545   -2.486244
     67          1           0       -5.157095    2.893288   -1.295298
     68          1           0       -4.802858    2.480017   -2.884633
     69          1           0       -4.804399    0.140276   -2.007618
     70          1           0        8.845807   -0.314070   -0.278726
     71          1           0        9.904669   -0.567683   -2.027166
     72          1           0       -4.143836   -2.569159    3.618244
     73          1           0       -5.909422   -1.455813   -2.466642
     74          1           0       -4.860864   -5.719330   -0.607404
     75          1           0       -4.133004   -5.601272   -2.231161
     76          1           0       -3.283896   -5.973066   -0.570072
     77          1           0       -1.136306    8.072480    1.056227
     78          1           0       -7.383569   -3.119839   -3.228487
     79          1           0       -6.301432   -4.593618   -2.359005
 ---------------------------------------------------------------------

 SCF Done:  E(RB3LYP) =  -1947.83001419     A.U. after   16 cycles

 Excitation energies and oscillator strengths:

 Excited State   1:      Singlet-A      1.8495 eV  670.36 nm  f=0.3757  <S**2>=0.000
     155 ->156         0.70631
 This state for optimization and/or second-order correction.
 Total Energy, E(TD-HF/TD-DFT) =  -1947.76204614
 Copying the excited state density for this state as the 1-particle RhoCI density.

 The electronic state is 1-A.
 Alpha  occ. eigenvalues --  -19.20839 -19.17069 -19.13225 -19.11810 -19.11361
 Alpha  occ. eigenvalues --  -19.10581 -14.37309 -14.35525 -14.34743 -14.29349
 Alpha  occ. eigenvalues --  -10.32351 -10.30411 -10.28451 -10.26979 -10.24576
 Alpha  occ. eigenvalues --  -10.24030 -10.23976 -10.23868 -10.23079 -10.22701
 Alpha  occ. eigenvalues --  -10.22460 -10.21888 -10.21878 -10.21858 -10.21672
 Alpha  occ. eigenvalues --  -10.21568 -10.21254 -10.21235 -10.20960 -10.20863
 Alpha  occ. eigenvalues --  -10.20482 -10.20461 -10.20433 -10.20327 -10.19901
 Alpha  occ. eigenvalues --  -10.19806 -10.19373 -10.19369 -10.19292 -10.18328
 Alpha  occ. eigenvalues --  -10.18250 -10.17513 -10.16990  -1.13257  -1.09083
 Alpha  occ. eigenvalues --   -1.04463  -1.02809  -1.02447  -1.00544  -0.96397
 Alpha  occ. eigenvalues --   -0.95658  -0.94620  -0.93911  -0.82577  -0.82307
 Alpha  occ. eigenvalues --   -0.80982  -0.80818  -0.80379  -0.78405  -0.77479
 Alpha  occ. eigenvalues --   -0.76764  -0.76510  -0.75102  -0.73656  -0.71300
 Alpha  occ. eigenvalues --   -0.71008  -0.70231  -0.69616  -0.67646  -0.67485
 Alpha  occ. eigenvalues --   -0.65941  -0.65407  -0.63694  -0.61320  -0.60106
 Alpha  occ. eigenvalues --   -0.58945  -0.58349  -0.57658  -0.57254  -0.56206
 Alpha  occ. eigenvalues --   -0.55925  -0.54798  -0.54305  -0.53057  -0.52768
 Alpha  occ. eigenvalues --   -0.51612  -0.51397  -0.50989  -0.50298  -0.50120
 Alpha  occ. eigenvalues --   -0.49941  -0.49619  -0.48655  -0.48263  -0.47712
 Alpha  occ. eigenvalues --   -0.47388  -0.47095  -0.46558  -0.45926  -0.45735
 Alpha  occ. eigenvalues --   -0.45257  -0.44576  -0.44441  -0.44011  -0.43816
 Alpha  occ. eigenvalues --   -0.43572  -0.43084  -0.42735  -0.42418  -0.42205
 Alpha  occ. eigenvalues --   -0.41643  -0.41462  -0.40957  -0.40777  -0.40640
 Alpha  occ. eigenvalues --   -0.40485  -0.40239  -0.40078  -0.39790  -0.39477
 Alpha  occ. eigenvalues --   -0.39388  -0.39040  -0.38614  -0.38123  -0.37616
 Alpha  occ. eigenvalues --   -0.37426  -0.37031  -0.36907  -0.36485  -0.36206
 Alpha  occ. eigenvalues --   -0.35458  -0.35402  -0.34976  -0.34939  -0.34554
 Alpha  occ. eigenvalues --   -0.33937  -0.33694  -0.32840  -0.31834  -0.31552
 Alpha  occ. eigenvalues --   -0.30695  -0.30491  -0.29340  -0.28412  -0.28029
 Alpha  occ. eigenvalues --   -0.27576  -0.26395  -0.25659  -0.25620  -0.24935
 Alpha  occ. eigenvalues --   -0.24152  -0.23913  -0.23448  -0.21996  -0.18032
 Alpha virt. eigenvalues --   -0.10584  -0.07147  -0.06370  -0.00688  -0.00203
 Alpha virt. eigenvalues --    0.00034   0.00761   0.01917   0.02115   0.02465
 Alpha virt. eigenvalues --    0.03619   0.03773   0.04592   0.05002   0.05264

 Mulliken charges:
               1
     1  O   -0.172249
     2  O   -0.203271
     3  O   -0.187098
     4  O   -0.151743
     5  O   -0.236747
     6  O   -0.173573
     7  N   -0.081664
     8  N   -0.193216
     9  N   -0.176647
    10  N   -0.259058
    11  C    0.067182
    12  C    0.082516
    13  C   -0.055558
    14  C   -0.130637
    15  C   -0.086059
    16  C    0.096747
    17  C   -0.089609
    18  C    0.105238
    19  C   -0.054827
    20  C   -0.121341
    21  C    0.167250
    22  C    0.155004
    23  C   -0.119881
    24  C    0.091656
    25  C   -0.025282
    26  C   -0.026584
    27  C   -0.058901
    28  C    0.063765
    29  C    0.180652
    30  C   -0.131183
    31  C   -0.119095
    32  C   -0.027103
    33  C   -0.098863
    34  C    0.142148
    35  C    0.050870
    36  C   -0.027907
    37  C    0.146880
    38  C    0.044255
    39  C   -0.197016
    40  C    0.166194
    41  C   -0.049256
    42  C    0.084518
    43  C    0.003463
    44  H    0.000009
    45  H   -0.017312
    46  H    0.026687
    47  H    0.081523
    48  H    0.145003
    49  H   -0.018103
    50  H    0.023883
    51  H   -0.023152
    52  H   -0.027407
    53  H    0.008428
    54  H    0.062574
    55  H    0.071316
    56  H    0.061051
    57  H    0.032246
    58  H    0.092176
    59  H   -0.023033
    60  H    0.220306
    61  H   -0.002411
    62  H    0.007017
    63  H    0.064291
    64  H    0.033984
    65  H    0.065175
    66  H    0.040316
    67  H    0.047133
    68  H    0.020296
    69  H   -0.030979
    70  H    0.046908
    71  H    0.037952
    72  H    0.192920
    73  H    0.022575
    74  H   -0.000335
    75  H    0.045971
    76  H    0.021141
    77  H    0.208206
    78  H    0.031137
    79  H    0.038536
 Sum of Mulliken charges =  -0.00000

 Dipole moment (field-independent basis, Debye):
    X=             -0.6363    Y=              1.4081    Z=              2.4063  Tot=              2.8597
 Quadrupole moment (field-independent basis, Debye-Ang):
   XX=           -214.5836   YY=           -239.7482   ZZ=           -262.7035
   XY=             -2.7369   XZ=             29.3906   YZ=              6.9236

 Normal termination of Gaussian 16 at Wed Sep 25 03:20:13 2019.
