 Gaussian 16, Revision A.03,
 Gaussian 16:  ES64L-G16RevA.03 25-Dec-2016

 --------------------------
 # td=(NStates=1) B3LYP/SVP
 --------------------------

 --
 TD
 --
 Symbolic Z-matrix:
 Charge =  0 Multiplicity = 1

                         Standard orientation:
 ---------------------------------------------------------------------
 Center     Atomic      Atomic             Coordinates (Angstroms)
 Number     Number       Type             X           Y           Z
 ---------------------------------------------------------------------
      1          8           0        5.186321   -0.344198   -3.441202
      2          8           0       -2.871631   -2.912243    3.235099
      3          8           0       -3.243285   -0.741911    3.071943
      4          8           0       -1.301309    7.093700    1.476107
      5          8           0       -1.095372    7.047408   -0.899763
      6          8           0       -1.642502   -4.056020   -0.174280
      7          7           0        2.407022    1.002461    0.608802
      8          7           0        4.354924   -0.719306   -1.191602
      9          7           0       -1.796125    0.584633   -0.383451
     10          7           0       -2.585149   -1.974301   -0.537141
     11          6           0        4.886804   -1.152169    0.125167
     12          6           0        4.459208   -0.123390    1.242681
     13          6           0        3.043974    0.111372    1.404437
     14          6           0        2.080993   -0.483751    2.137147
     15          6           0        0.784285    0.024510    1.809940
     16          6           0        1.038648    0.953933    0.843137
     17          6           0        6.357920   -1.318891   -0.114968
     18          6           0       -0.512281   -0.127111    2.556571
     19          6           0        6.660816   -0.797798   -1.436642
     20          6           0        0.172145    1.910885    0.133544
     21          6           0       -1.103814    1.811318   -0.283223
     22          6           0        5.321462   -0.666893   -2.253302
     23          6           0       -2.041797    2.871778   -0.851783
     24          6           0        2.332613   -1.481724    3.249345
     25          6           0        7.283568   -1.712063    0.998519
     26          6           0       -3.307352    2.231484   -1.178769
     27          6           0       -1.070714   -1.544665    2.530374
     28          6           0       -3.059944    0.796342   -0.945625
     29          6           0       -1.744369    4.341574   -0.986843
     30          6           0        7.908378   -0.690793   -2.164968
     31          6           0       -1.830657    5.065577    0.373087
     32          6           0       -4.502765    2.946301   -1.790614
     33          6           0       -4.009624   -0.118861   -1.198866
     34          6           0       -2.484704   -1.657211    2.897331
     35          6           0       -3.741722   -1.511746   -0.902133
     36          6           0        9.092953   -0.684681   -1.578470
     37          6           0       -1.409839    6.509882    0.219826
     38          6           0       -4.736022   -2.660135   -1.311338
     39          6           0       -3.868809   -3.787191   -1.106417
     40          6           0       -2.624260   -3.324337   -0.508050
     41          6           0       -5.902799   -2.439641   -2.000285
     42          6           0       -4.240650   -5.168466   -1.143424
     43          6           0       -6.787559   -3.511089   -2.266044
     44          1           0        4.410465   -2.115685    0.358777
     45          1           0        4.905063    0.735629    0.839975
     46          1           0        4.933689   -0.486991    2.303221
     47          1           0        2.756070    1.500995   -0.144761
     48          1           0        3.375646   -0.889752   -1.474270
     49          1           0       -0.588003    0.286448    3.486270
     50          1           0       -1.355195    0.366153    2.047596
     51          1           0        0.634236    2.771542   -0.146398
     52          1           0        3.491150   -1.591931    3.553601
     53          1           0        1.810009   -1.392731    4.151719
     54          1           0        2.187663   -2.528764    2.872664
     55          1           0        6.771225   -2.317159    1.737848
     56          1           0        7.660389   -1.062773    1.624706
     57          1           0        8.130364   -2.435181    0.403113
     58          1           0       -0.974913   -2.094353    1.682918
     59          1           0       -0.566091   -2.344421    3.107588
     60          1           0       -1.516986   -0.362538   -0.141492
     61          1           0       -2.298965    4.899602   -1.898869
     62          1           0       -0.792089    4.291298   -1.237598
     63          1           0        7.842778   -0.591618   -3.308424
     64          1           0       -1.037761    4.638220    1.104548
     65          1           0       -2.879528    5.026788    0.878786
     66          1           0       -4.401161    3.932221   -2.000308
     67          1           0       -5.354690    2.945790   -1.366480
     68          1           0       -4.623357    2.544169   -2.824281
     69          1           0       -4.885569    0.070574   -1.615849
     70          1           0        9.217137   -0.810077   -0.660550
     71          1           0        9.854625   -0.675990   -2.143248
     72          1           0       -3.880812   -2.794296    3.521151
     73          1           0       -5.941041   -1.544334   -2.177772
     74          1           0       -4.992806   -5.536077   -0.464974
     75          1           0       -4.847381   -5.555005   -2.261729
     76          1           0       -3.304409   -5.826961   -0.796503
     77          1           0       -1.083078    8.098371    1.429370
     78          1           0       -7.702657   -3.275122   -3.004798
     79          1           0       -6.540998   -4.498449   -2.051093
 ---------------------------------------------------------------------

 SCF Done:  E(RB3LYP) =  -1947.76518361     A.U. after   17 cycles

 Excitation energies and oscillator strengths:

 Excited State   1:      Singlet-A      2.0431 eV  606.84 nm  f=0.3991  <S**2>=0.000
     154 ->156         0.20355
     155 ->156         0.67462
 This state for optimization and/or second-order correction.
 Total Energy, E(TD-HF/TD-DFT) =  -1947.69010009
 Copying the excited state density for this state as the 1-particle RhoCI density.

 The electronic state is 1-A.
 Alpha  occ. eigenvalues --  -19.20001 -19.16755 -19.13979 -19.11253 -19.11002
 Alpha  occ. eigenvalues --  -19.10165 -14.37601 -14.36669 -14.35624 -14.29387
 Alpha  occ. eigenvalues --  -10.33937 -10.30037 -10.29611 -10.26307 -10.25173
 Alpha  occ. eigenvalues --  -10.25118 -10.25001 -10.23790 -10.23271 -10.23116
 Alpha  occ. eigenvalues --  -10.22780 -10.22755 -10.22246 -10.22241 -10.22096
 Alpha  occ. eigenvalues --  -10.21370 -10.21278 -10.21255 -10.21160 -10.20999
 Alpha  occ. eigenvalues --  -10.20291 -10.20129 -10.19946 -10.19802 -10.19645
 Alpha  occ. eigenvalues --  -10.19509 -10.19071 -10.18876 -10.18692 -10.18610
 Alpha  occ. eigenvalues --  -10.18287 -10.17909 -10.16358  -1.07958  -1.07436
 Alpha  occ. eigenvalues --   -1.01212  -0.99730  -0.99637  -0.98935  -0.98324
 Alpha  occ. eigenvalues --   -0.96687  -0.92697  -0.92651  -0.82689  -0.82404
 Alpha  occ. eigenvalues --   -0.81754  -0.81673  -0.81396  -0.80349  -0.78226
 Alpha  occ. eigenvalues --   -0.78041  -0.77561  -0.76477  -0.75152  -0.73412
 Alpha  occ. eigenvalues --   -0.71949  -0.71482  -0.69838  -0.69399  -0.68574
 Alpha  occ. eigenvalues --   -0.68167  -0.66055  -0.64265  -0.62099  -0.61381
 Alpha  occ. eigenvalues --   -0.60663  -0.59971  -0.58248  -0.57626  -0.57124
 Alpha  occ. eigenvalues --   -0.56920  -0.56423  -0.55843  -0.54663  -0.53821
 Alpha  occ. eigenvalues --   -0.53204  -0.52828  -0.51180  -0.50110  -0.49684
 Alpha  occ. eigenvalues --   -0.49558  -0.48661  -0.48510  -0.48009  -0.47559
 Alpha  occ. eigenvalues --   -0.47268  -0.46810  -0.46608  -0.46251  -0.46123
 Alpha  occ. eigenvalues --   -0.45879  -0.45317  -0.45169  -0.44818  -0.44112
 Alpha  occ. eigenvalues --   -0.43575  -0.43287  -0.43046  -0.42820  -0.42745
 Alpha  occ. eigenvalues --   -0.42365  -0.42117  -0.41919  -0.41637  -0.41498
 Alpha  occ. eigenvalues --   -0.41354  -0.40775  -0.40461  -0.40116  -0.39842
 Alpha  occ. eigenvalues --   -0.39589  -0.39323  -0.39167  -0.38527  -0.38413
 Alpha  occ. eigenvalues --   -0.38252  -0.37995  -0.37663  -0.37369  -0.37140
 Alpha  occ. eigenvalues --   -0.36695  -0.36008  -0.35614  -0.34781  -0.34700
 Alpha  occ. eigenvalues --   -0.34373  -0.33707  -0.32682  -0.32123  -0.31864
 Alpha  occ. eigenvalues --   -0.31382  -0.30742  -0.28976  -0.28793  -0.26849
 Alpha  occ. eigenvalues --   -0.26834  -0.26711  -0.25898  -0.25676  -0.25210
 Alpha  occ. eigenvalues --   -0.24454  -0.24159  -0.23411  -0.21674  -0.19549
 Alpha virt. eigenvalues --   -0.11342  -0.07291  -0.06724  -0.02703  -0.01853
 Alpha virt. eigenvalues --    0.00650   0.01162   0.02109   0.02455   0.02966
 Alpha virt. eigenvalues --    0.03957   0.04498   0.04654   0.04888   0.05136

 Mulliken charges:
               1
     1  O   -0.235402
     2  O   -0.232862
     3  O   -0.239447
     4  O   -0.243259
     5  O   -0.278819
     6  O   -0.253430
     7  N   -0.030853
     8  N   -0.273829
     9  N   -0.113442
    10  N   -0.204729
    11  C    0.125284
    12  C    0.197900
    13  C   -0.064268
    14  C   -0.133326
    15  C   -0.061110
    16  C    0.031424
    17  C   -0.160700
    18  C    0.170194
    19  C   -0.075306
    20  C   -0.061072
    21  C    0.150616
    22  C    0.207941
    23  C   -0.124224
    24  C    0.066409
    25  C    0.096288
    26  C   -0.143294
    27  C    0.052112
    28  C    0.199013
    29  C    0.169409
    30  C   -0.073945
    31  C   -0.059150
    32  C    0.241459
    33  C   -0.078305
    34  C    0.103990
    35  C    0.046065
    36  C    0.182131
    37  C    0.197936
    38  C    0.011216
    39  C   -0.124526
    40  C    0.162427
    41  C    0.118983
    42  C   -0.041504
    43  C    0.005550
    44  H    0.014553
    45  H   -0.038408
    46  H    0.029897
    47  H    0.088033
    48  H    0.136941
    49  H   -0.015976
    50  H    0.003322
    51  H   -0.061972
    52  H   -0.004266
    53  H    0.014670
    54  H    0.025940
    55  H    0.000197
    56  H    0.002872
    57  H    0.067411
    58  H   -0.010008
    59  H    0.008040
    60  H    0.146495
    61  H    0.060823
    62  H   -0.041367
    63  H    0.032278
    64  H    0.065557
    65  H    0.069310
    66  H   -0.037427
    67  H   -0.032999
    68  H    0.020556
    69  H   -0.093505
    70  H   -0.080258
    71  H   -0.040996
    72  H    0.210114
    73  H   -0.162076
    74  H    0.031955
    75  H    0.035722
    76  H    0.052200
    77  H    0.219227
    78  H    0.046458
    79  H    0.007143
 Sum of Mulliken charges =  -0.00000

 Dipole moment (field-independent basis, Debye):
    X=             -0.2559    Y=              3.5685    Z=              3.7349  Tot=              5.1720
 Quadrupole moment (field-independent basis, Debye-Ang):
   XX=           -214.4806   YY=           -245.9840   ZZ=           -264.3008
   XY=             -9.2657   XZ=             31.0225   YZ=              4.8312

 Normal termination of Gaussian 16 at Sat Sep 28 03:11:52 2019.
