 Gaussian 16, Revision A.03,
 Gaussian 16:  ES64L-G16RevA.03 25-Dec-2016

 --------------------------
 # td=(NStates=1) B3LYP/SVP
 --------------------------

 --
 TD
 --
 Symbolic Z-matrix:
 Charge =  0 Multiplicity = 1

                         Standard orientation:
 ---------------------------------------------------------------------
 Center     Atomic      Atomic             Coordinates (Angstroms)
 Number     Number       Type             X           Y           Z
 ---------------------------------------------------------------------
      1          8           0       -3.379417   -1.539449   -2.777765
      2          8           0        3.217760    3.208934    2.915936
      3          8           0        3.542149    1.584363    4.464086
      4          8           0        7.646775   -1.787805   -0.409774
      5          8           0        6.742367   -2.980772   -2.127318
      6          8           0       -2.534606    1.701088    1.370363
      7          7           0       -0.302829   -2.371855    1.001104
      8          7           0       -2.709850   -1.299102   -0.601843
      9          7           0        1.227947    0.028981   -0.768575
     10          7           0       -1.018473    1.432862   -0.322627
     11          6           0       -3.339661   -1.235685    0.699216
     12          6           0       -2.760331   -2.218786    1.772533
     13          6           0       -1.302425   -1.926164    1.915105
     14          6           0       -0.530042   -1.082471    2.856428
     15          6           0        0.766567   -0.999772    2.476630
     16          6           0        0.922662   -1.770848    1.281057
     17          6           0       -4.795681   -1.842932    0.438274
     18          6           0        1.868263   -0.240134    3.187508
     19          6           0       -4.909409   -2.109856   -0.920437
     20          6           0        2.031659   -1.883542    0.386667
     21          6           0        2.195084   -1.038923   -0.701500
     22          6           0       -3.514647   -1.644671   -1.599470
     23          6           0        3.094817   -0.793162   -1.712899
     24          6           0       -1.302093   -0.270160    3.898434
     25          6           0       -5.873843   -1.937278    1.382621
     26          6           0        2.637866    0.348312   -2.469621
     27          6           0        1.953681    1.268505    2.751623
     28          6           0        1.391386    0.806618   -1.757794
     29          6           0        4.244922   -1.699602   -2.021631
     30          6           0       -5.863431   -2.585010   -1.898289
     31          6           0        5.394458   -1.177539   -1.132809
     32          6           0        3.158842    0.938060   -3.676314
     33          6           0        0.622680    1.964232   -2.182828
     34          6           0        3.008382    2.003594    3.529240
     35          6           0       -0.615897    2.201908   -1.400641
     36          6           0       -7.086519   -3.242023   -1.546744
     37          6           0        6.661609   -2.102828   -1.312215
     38          6           0       -1.424159    3.422560   -1.480634
     39          6           0       -2.250646    3.481036   -0.334316
     40          6           0       -2.086787    2.087362    0.357624
     41          6           0       -1.307392    4.424808   -2.516918
     42          6           0       -3.311246    4.304744    0.145913
     43          6           0       -1.818746    5.759824   -2.563614
     44          1           0       -3.297840   -0.301869    0.965395
     45          1           0       -2.709363   -3.354514    1.367993
     46          1           0       -3.182088   -1.997189    2.759600
     47          1           0       -0.391528   -3.017234    0.191946
     48          1           0       -1.958619   -0.521886   -0.841945
     49          1           0        1.864752   -0.509496    4.253970
     50          1           0        2.660448   -0.790700    3.001693
     51          1           0        2.795529   -2.683362    0.587440
     52          1           0       -1.927153   -0.824175    4.626129
     53          1           0       -0.438360    0.339184    4.603084
     54          1           0       -1.921547    0.608537    3.265377
     55          1           0       -5.803466   -1.315382    2.234167
     56          1           0       -6.084974   -2.912110    1.815187
     57          1           0       -6.782257   -1.801819    0.646508
     58          1           0        2.116092    1.349313    1.662690
     59          1           0        1.062145    1.693778    2.882776
     60          1           0        0.507491    0.330089   -0.183256
     61          1           0        4.538241   -1.579749   -3.055062
     62          1           0        4.019051   -2.762388   -1.670354
     63          1           0       -5.637373   -2.455342   -2.975444
     64          1           0        5.033656   -0.864749   -0.161077
     65          1           0        5.742188   -0.248864   -1.327916
     66          1           0        4.374529    0.726869   -3.988200
     67          1           0        2.867882    2.141447   -3.577188
     68          1           0        2.370782    0.275914   -4.591491
     69          1           0        0.783719    2.665130   -2.950434
     70          1           0       -7.327440   -3.692725   -0.589771
     71          1           0       -7.786590   -3.466337   -2.287227
     72          1           0        3.981658    3.718576    3.295232
     73          1           0       -0.604796    3.998069   -3.326532
     74          1           0       -3.996229    4.805127   -0.474708
     75          1           0       -4.078548    3.659136    0.788472
     76          1           0       -2.713193    5.097517    0.974257
     77          1           0        8.432971   -2.387676   -0.726551
     78          1           0       -1.621738    6.496302   -3.380818
     79          1           0       -2.305351    6.294416   -1.555793
 ---------------------------------------------------------------------

 SCF Done:  E(RB3LYP) =  -1947.77290788     A.U. after   16 cycles

 Excitation energies and oscillator strengths:

 Excited State   1:      Singlet-A      0.9013 eV 1375.58 nm  f=0.0012  <S**2>=0.000
     155 ->156         0.70130
 This state for optimization and/or second-order correction.
 Total Energy, E(TD-HF/TD-DFT) =  -1947.73978490
 Copying the excited state density for this state as the 1-particle RhoCI density.

 The electronic state is 1-A.
 Alpha  occ. eigenvalues --  -19.19928 -19.17443 -19.14833 -19.13000 -19.12838
 Alpha  occ. eigenvalues --  -19.07951 -14.37579 -14.37239 -14.33194 -14.30361
 Alpha  occ. eigenvalues --  -10.33826 -10.31177 -10.28346 -10.26959 -10.26313
 Alpha  occ. eigenvalues --  -10.25977 -10.25734 -10.25491 -10.23491 -10.23325
 Alpha  occ. eigenvalues --  -10.22683 -10.22628 -10.22472 -10.22257 -10.21555
 Alpha  occ. eigenvalues --  -10.21517 -10.21467 -10.21440 -10.21436 -10.21347
 Alpha  occ. eigenvalues --  -10.20733 -10.20622 -10.20587 -10.20144 -10.19606
 Alpha  occ. eigenvalues --  -10.19498 -10.18707 -10.18706 -10.18149 -10.17884
 Alpha  occ. eigenvalues --  -10.17537 -10.16961 -10.16766  -1.10264  -1.09799
 Alpha  occ. eigenvalues --   -1.06079  -1.02014  -1.01930  -1.01883  -1.01617
 Alpha  occ. eigenvalues --   -0.94828  -0.92042  -0.91627  -0.85127  -0.82042
 Alpha  occ. eigenvalues --   -0.80319  -0.80060  -0.79726  -0.79301  -0.77724
 Alpha  occ. eigenvalues --   -0.76577  -0.75599  -0.74847  -0.73568  -0.72884
 Alpha  occ. eigenvalues --   -0.69877  -0.69475  -0.68884  -0.68038  -0.67161
 Alpha  occ. eigenvalues --   -0.65826  -0.65482  -0.62785  -0.60515  -0.60325
 Alpha  occ. eigenvalues --   -0.59869  -0.59519  -0.59180  -0.58396  -0.56896
 Alpha  occ. eigenvalues --   -0.55618  -0.54868  -0.54434  -0.52878  -0.52462
 Alpha  occ. eigenvalues --   -0.51683  -0.51499  -0.50838  -0.50373  -0.49805
 Alpha  occ. eigenvalues --   -0.49625  -0.49117  -0.48621  -0.48029  -0.47892
 Alpha  occ. eigenvalues --   -0.47616  -0.46859  -0.46763  -0.46025  -0.45711
 Alpha  occ. eigenvalues --   -0.45106  -0.44599  -0.44500  -0.44242  -0.43808
 Alpha  occ. eigenvalues --   -0.43503  -0.43171  -0.42971  -0.42465  -0.42295
 Alpha  occ. eigenvalues --   -0.41868  -0.41519  -0.41338  -0.40964  -0.40920
 Alpha  occ. eigenvalues --   -0.40647  -0.40442  -0.40077  -0.40036  -0.39272
 Alpha  occ. eigenvalues --   -0.39124  -0.38643  -0.38338  -0.38299  -0.38114
 Alpha  occ. eigenvalues --   -0.37902  -0.37350  -0.37271  -0.37047  -0.36350
 Alpha  occ. eigenvalues --   -0.35887  -0.35599  -0.35247  -0.34803  -0.34496
 Alpha  occ. eigenvalues --   -0.34052  -0.33562  -0.32968  -0.32861  -0.31690
 Alpha  occ. eigenvalues --   -0.31208  -0.30255  -0.29323  -0.28939  -0.28717
 Alpha  occ. eigenvalues --   -0.28507  -0.25778  -0.25366  -0.25008  -0.23486
 Alpha  occ. eigenvalues --   -0.22916  -0.22744  -0.21814  -0.20996  -0.18221
 Alpha virt. eigenvalues --   -0.12284  -0.08611  -0.04107  -0.02982  -0.00922
 Alpha virt. eigenvalues --    0.00426   0.01108   0.01897   0.02065   0.02965
 Alpha virt. eigenvalues --    0.03516   0.03927   0.04231   0.04385   0.05101

 Mulliken charges:
               1
     1  O   -0.216697
     2  O   -0.228925
     3  O   -0.153956
     4  O   -0.226385
     5  O   -0.208065
     6  O   -0.153996
     7  N   -0.107493
     8  N   -0.206105
     9  N    0.023972
    10  N   -0.371794
    11  C    0.194204
    12  C    0.211503
    13  C   -0.112748
    14  C   -0.081154
    15  C   -0.127666
    16  C   -0.011523
    17  C   -0.182624
    18  C    0.202877
    19  C   -0.055038
    20  C   -0.160420
    21  C    0.177856
    22  C    0.087749
    23  C   -0.125315
    24  C   -0.065982
    25  C    0.080661
    26  C   -0.082714
    27  C    0.071044
    28  C    0.070790
    29  C    0.177588
    30  C   -0.033258
    31  C    0.002074
    32  C   -0.125203
    33  C   -0.072102
    34  C    0.122215
    35  C    0.098728
    36  C   -0.037830
    37  C    0.172737
    38  C    0.018393
    39  C   -0.166949
    40  C    0.172789
    41  C   -0.023904
    42  C   -0.002807
    43  C   -0.090258
    44  H   -0.045420
    45  H    0.018251
    46  H    0.001409
    47  H    0.123172
    48  H    0.166425
    49  H    0.002405
    50  H   -0.077317
    51  H    0.022628
    52  H    0.027103
    53  H    0.016882
    54  H    0.087423
    55  H    0.003278
    56  H    0.020845
    57  H    0.046685
    58  H    0.019373
    59  H   -0.000898
    60  H    0.137614
    61  H    0.008914
    62  H    0.040871
    63  H    0.029236
    64  H    0.022306
    65  H   -0.011630
    66  H    0.078720
    67  H    0.080344
    68  H    0.086896
    69  H   -0.036510
    70  H    0.020161
    71  H    0.004359
    72  H    0.185016
    73  H    0.012510
    74  H    0.027231
    75  H    0.049139
    76  H    0.061813
    77  H    0.207883
    78  H    0.047081
    79  H    0.061533
 Sum of Mulliken charges =  -0.00000

 Dipole moment (field-independent basis, Debye):
    X=              4.9342    Y=              2.7750    Z=             -0.8350  Tot=              5.7222
 Quadrupole moment (field-independent basis, Debye-Ang):
   XX=           -232.8912   YY=           -236.0575   ZZ=           -270.8289
   XY=              2.4106   XZ=            -22.2347   YZ=            -12.8931

 Normal termination of Gaussian 16 at Tue Jul 30 06:07:46 2019.
