 Gaussian 16, Revision A.03,
 Gaussian 16:  ES64L-G16RevA.03 25-Dec-2016

 --------------------------
 # td=(NStates=1) B3LYP/SVP
 --------------------------

 --
 TD
 --
 Symbolic Z-matrix:
 Charge =  0 Multiplicity = 1

                         Standard orientation:
 ---------------------------------------------------------------------
 Center     Atomic      Atomic             Coordinates (Angstroms)
 Number     Number       Type             X           Y           Z
 ---------------------------------------------------------------------
      1          8           0        5.263692   -0.206605   -3.405217
      2          8           0       -3.105255   -2.958832    3.122827
      3          8           0       -3.200038   -0.543050    3.074428
      4          8           0       -1.025823    7.080030    1.659150
      5          8           0       -0.246911    6.944666   -0.447162
      6          8           0       -2.011062   -3.842192    0.158135
      7          7           0        2.393594    0.991802    0.554206
      8          7           0        4.342185   -0.705867   -1.321121
      9          7           0       -1.839655    0.624293   -0.495718
     10          7           0       -2.744312   -1.837879   -0.441905
     11          6           0        4.767314   -1.233120   -0.073744
     12          6           0        4.421531   -0.418406    1.196340
     13          6           0        3.004332   -0.062566    1.343803
     14          6           0        1.919655   -0.573771    2.167292
     15          6           0        0.726925    0.108530    1.893309
     16          6           0        1.056472    0.919513    0.752760
     17          6           0        6.145481   -1.561825   -0.239540
     18          6           0       -0.642247   -0.110740    2.584002
     19          6           0        6.558114   -1.049329   -1.373494
     20          6           0        0.223032    1.959056    0.091097
     21          6           0       -1.026081    1.776557   -0.407559
     22          6           0        5.420828   -0.716861   -2.288534
     23          6           0       -1.838120    2.862137   -1.010400
     24          6           0        2.274230   -1.788606    3.104794
     25          6           0        7.054863   -2.037170    0.883824
     26          6           0       -3.063735    2.380772   -1.381625
     27          6           0       -1.146286   -1.545524    2.474786
     28          6           0       -2.996271    0.901960   -1.062396
     29          6           0       -1.380937    4.296550   -0.961918
     30          6           0        7.936251   -1.068332   -1.994616
     31          6           0       -1.495733    4.974010    0.398354
     32          6           0       -4.225947    3.200273   -1.842718
     33          6           0       -4.023564    0.041662   -1.377398
     34          6           0       -2.595992   -1.630675    2.999977
     35          6           0       -3.839811   -1.375048   -1.137018
     36          6           0        9.176475   -1.167048   -1.406382
     37          6           0       -0.820852    6.455908    0.434294
     38          6           0       -4.791937   -2.471990   -1.446601
     39          6           0       -4.139812   -3.577121   -0.908428
     40          6           0       -2.907299   -3.223171   -0.229476
     41          6           0       -6.103662   -2.206755   -2.154937
     42          6           0       -4.516883   -5.034653   -0.896326
     43          6           0       -7.015705   -3.124636   -2.545507
     44          1           0        4.217864   -2.141786    0.343109
     45          1           0        4.823867    0.779762    1.032475
     46          1           0        4.888333   -1.011557    2.059436
     47          1           0        3.028597    1.331512   -0.198182
     48          1           0        3.509752   -0.632747   -1.534128
     49          1           0       -0.495969    0.202295    3.745512
     50          1           0       -1.420149    0.798152    2.301098
     51          1           0        0.859338    2.854385   -0.121832
     52          1           0        3.429062   -2.153981    3.166114
     53          1           0        1.752698   -1.721297    4.183881
     54          1           0        1.904115   -2.637051    2.626324
     55          1           0        6.578223   -2.586680    1.704990
     56          1           0        7.618975   -1.079124    1.311231
     57          1           0        7.889401   -2.513415    0.454261
     58          1           0       -1.221444   -2.074750    1.438166
     59          1           0       -0.529622   -2.270870    3.069932
     60          1           0       -1.854498   -0.492733   -0.215070
     61          1           0       -2.275492    4.868226   -1.603380
     62          1           0       -0.371584    4.473928   -1.433974
     63          1           0        7.924503   -1.081308   -3.002119
     64          1           0       -0.996959    4.558433    1.109694
     65          1           0       -2.630149    5.140729    0.658509
     66          1           0       -4.393534    4.306555   -1.849447
     67          1           0       -5.230006    3.103280   -1.405885
     68          1           0       -4.680903    2.772713   -2.788139
     69          1           0       -4.884159    0.576429   -1.990731
     70          1           0        9.261756   -1.014978   -0.255551
     71          1           0       10.157363   -1.337524   -1.971122
     72          1           0       -3.973550   -2.824467    3.362883
     73          1           0       -6.335892   -1.180374   -2.391913
     74          1           0       -5.585463   -5.208628   -0.671538
     75          1           0       -4.806137   -5.562043   -1.962832
     76          1           0       -3.807377   -5.785471   -0.463269
     77          1           0       -0.799274    7.997120    1.564283
     78          1           0       -7.908431   -2.893127   -3.000650
     79          1           0       -6.790528   -4.255684   -2.153737
 ---------------------------------------------------------------------

 SCF Done:  E(RB3LYP) =  -1947.78016128     A.U. after   16 cycles

 Excitation energies and oscillator strengths:

 Excited State   1:      Singlet-A      1.9811 eV  625.82 nm  f=0.3684  <S**2>=0.000
     153 ->156        -0.10059
     155 ->156         0.69690
 This state for optimization and/or second-order correction.
 Total Energy, E(TD-HF/TD-DFT) =  -1947.70735597
 Copying the excited state density for this state as the 1-particle RhoCI density.

 The electronic state is 1-A.
 Alpha  occ. eigenvalues --  -19.17710 -19.17603 -19.14049 -19.12397 -19.11384
 Alpha  occ. eigenvalues --  -19.11162 -14.38585 -14.35799 -14.34036 -14.29018
 Alpha  occ. eigenvalues --  -10.32502 -10.31784 -10.29821 -10.26496 -10.24592
 Alpha  occ. eigenvalues --  -10.24391 -10.24189 -10.24133 -10.23833 -10.23341
 Alpha  occ. eigenvalues --  -10.22673 -10.21808 -10.21762 -10.21713 -10.21679
 Alpha  occ. eigenvalues --  -10.21570 -10.21381 -10.21347 -10.21300 -10.21285
 Alpha  occ. eigenvalues --  -10.21061 -10.21007 -10.20972 -10.20875 -10.20764
 Alpha  occ. eigenvalues --  -10.20715 -10.20654 -10.20434 -10.20332 -10.19983
 Alpha  occ. eigenvalues --  -10.19960 -10.19786 -10.19719  -1.10607  -1.06918
 Alpha  occ. eigenvalues --   -1.05760  -1.02381  -1.02313  -0.99539  -0.97819
 Alpha  occ. eigenvalues --   -0.97247  -0.95463  -0.91596  -0.83852  -0.82439
 Alpha  occ. eigenvalues --   -0.80889  -0.80117  -0.79773  -0.79359  -0.77243
 Alpha  occ. eigenvalues --   -0.76822  -0.75819  -0.75138  -0.74477  -0.72917
 Alpha  occ. eigenvalues --   -0.72044  -0.70636  -0.69787  -0.68464  -0.67318
 Alpha  occ. eigenvalues --   -0.65936  -0.65667  -0.63942  -0.61636  -0.60509
 Alpha  occ. eigenvalues --   -0.60111  -0.59302  -0.58790  -0.58191  -0.56261
 Alpha  occ. eigenvalues --   -0.55734  -0.55451  -0.54829  -0.54704  -0.53164
 Alpha  occ. eigenvalues --   -0.52237  -0.51682  -0.50993  -0.49739  -0.49296
 Alpha  occ. eigenvalues --   -0.48607  -0.48411  -0.48290  -0.48102  -0.47377
 Alpha  occ. eigenvalues --   -0.47315  -0.46612  -0.46149  -0.45893  -0.45536
 Alpha  occ. eigenvalues --   -0.45246  -0.44838  -0.44328  -0.44094  -0.43694
 Alpha  occ. eigenvalues --   -0.43447  -0.43200  -0.42967  -0.42887  -0.42647
 Alpha  occ. eigenvalues --   -0.42367  -0.41800  -0.41554  -0.41123  -0.41051
 Alpha  occ. eigenvalues --   -0.40653  -0.40329  -0.40069  -0.39878  -0.39780
 Alpha  occ. eigenvalues --   -0.39417  -0.39213  -0.39034  -0.38595  -0.38197
 Alpha  occ. eigenvalues --   -0.38015  -0.37555  -0.36834  -0.36525  -0.36288
 Alpha  occ. eigenvalues --   -0.36096  -0.35826  -0.35297  -0.35212  -0.34601
 Alpha  occ. eigenvalues --   -0.34082  -0.33442  -0.33261  -0.31740  -0.31506
 Alpha  occ. eigenvalues --   -0.31311  -0.30787  -0.28854  -0.28489  -0.28316
 Alpha  occ. eigenvalues --   -0.26835  -0.26675  -0.26423  -0.25502  -0.25047
 Alpha  occ. eigenvalues --   -0.24883  -0.24742  -0.23301  -0.22001  -0.18936
 Alpha virt. eigenvalues --   -0.10848  -0.06518  -0.06016  -0.01043  -0.00746
 Alpha virt. eigenvalues --   -0.00193   0.00208   0.00887   0.02314   0.02837
 Alpha virt. eigenvalues --    0.03889   0.04476   0.04774   0.04844   0.04905

 Mulliken charges:
               1
     1  O   -0.226955
     2  O   -0.187008
     3  O   -0.254012
     4  O   -0.210612
     5  O   -0.155451
     6  O   -0.132624
     7  N   -0.121390
     8  N   -0.119734
     9  N   -0.107216
    10  N   -0.368253
    11  C    0.132196
    12  C    0.058056
    13  C   -0.073586
    14  C   -0.094258
    15  C   -0.063329
    16  C    0.031394
    17  C   -0.133094
    18  C    0.011200
    19  C   -0.104350
    20  C   -0.150757
    21  C    0.194451
    22  C    0.202063
    23  C   -0.086562
    24  C    0.030851
    25  C    0.074968
    26  C   -0.039671
    27  C   -0.029508
    28  C    0.055507
    29  C    0.014710
    30  C    0.049364
    31  C    0.054969
    32  C    0.040039
    33  C   -0.129630
    34  C    0.176972
    35  C    0.096868
    36  C   -0.082042
    37  C    0.101681
    38  C    0.072774
    39  C   -0.181771
    40  C    0.157465
    41  C   -0.006521
    42  C    0.024829
    43  C   -0.007823
    44  H    0.001634
    45  H    0.016098
    46  H    0.024150
    47  H    0.135389
    48  H    0.031730
    49  H    0.025497
    50  H    0.063455
    51  H    0.016812
    52  H    0.014555
    53  H    0.045124
    54  H    0.021689
    55  H    0.029072
    56  H    0.054668
    57  H    0.021461
    58  H    0.098834
    59  H    0.022441
    60  H    0.221567
    61  H    0.030907
    62  H    0.039370
    63  H   -0.025565
    64  H   -0.017900
    65  H    0.055530
    66  H    0.030190
    67  H   -0.000408
    68  H    0.010065
    69  H    0.009148
    70  H    0.030409
    71  H    0.050905
    72  H    0.146312
    73  H   -0.013253
    74  H    0.019288
    75  H    0.020715
    76  H    0.049588
    77  H    0.167341
    78  H    0.005551
    79  H    0.033430
 Sum of Mulliken charges =  -0.00000

 Dipole moment (field-independent basis, Debye):
    X=             -0.8064    Y=              0.8547    Z=              2.6148  Tot=              2.8667
 Quadrupole moment (field-independent basis, Debye-Ang):
   XX=           -208.9987   YY=           -241.3490   ZZ=           -268.2382
   XY=            -12.1137   XZ=             31.3400   YZ=              1.0142

 Normal termination of Gaussian 16 at Thu Sep 26 16:36:44 2019.
