 Gaussian 16, Revision A.03,
 Gaussian 16:  ES64L-G16RevA.03 25-Dec-2016

 --------------------------
 # td=(NStates=1) B3LYP/SVP
 --------------------------

 --
 TD
 --
 Symbolic Z-matrix:
 Charge =  0 Multiplicity = 1

                         Standard orientation:
 ---------------------------------------------------------------------
 Center     Atomic      Atomic             Coordinates (Angstroms)
 Number     Number       Type             X           Y           Z
 ---------------------------------------------------------------------
      1          8           0        5.417540    0.050211   -3.234039
      2          8           0       -3.299504   -2.778688    3.026081
      3          8           0       -3.268559   -0.499593    3.175536
      4          8           0       -1.553895    7.148605    1.412931
      5          8           0       -0.526411    6.966757   -0.539896
      6          8           0       -1.720723   -3.947849   -0.061849
      7          7           0        2.459485    0.951239    0.679578
      8          7           0        4.402007   -0.484212   -1.277931
      9          7           0       -1.792492    0.738545   -0.480040
     10          7           0       -2.734195   -1.848749   -0.491626
     11          6           0        4.759682   -1.200774    0.002522
     12          6           0        4.492697   -0.398891    1.388829
     13          6           0        3.005991   -0.013570    1.427204
     14          6           0        2.034143   -0.685026    2.123822
     15          6           0        0.827702   -0.035778    1.834926
     16          6           0        1.120487    0.988538    0.744053
     17          6           0        6.264456   -1.414474   -0.127441
     18          6           0       -0.572296   -0.198258    2.505867
     19          6           0        6.670089   -0.980313   -1.415181
     20          6           0        0.217999    1.983367    0.177402
     21          6           0       -1.052227    1.859046   -0.327752
     22          6           0        5.417153   -0.491800   -2.071994
     23          6           0       -1.901614    2.914526   -0.900355
     24          6           0        2.199772   -1.852341    2.991244
     25          6           0        7.037869   -1.962874    0.910750
     26          6           0       -3.105428    2.380159   -1.277602
     27          6           0       -1.230475   -1.555380    2.521933
     28          6           0       -3.012380    0.904036   -1.021178
     29          6           0       -1.553092    4.284890   -0.928808
     30          6           0        8.069922   -1.015746   -1.959555
     31          6           0       -1.656131    5.037867    0.413108
     32          6           0       -4.254980    3.028248   -2.022635
     33          6           0       -4.003111   -0.067406   -1.372393
     34          6           0       -2.642737   -1.593420    2.991191
     35          6           0       -3.710519   -1.457249   -0.990816
     36          6           0        9.208503   -1.040440   -1.458408
     37          6           0       -1.228668    6.505999    0.335033
     38          6           0       -4.736136   -2.599365   -1.412969
     39          6           0       -4.078382   -3.752960   -0.964806
     40          6           0       -2.771153   -3.367655   -0.433551
     41          6           0       -5.948761   -2.425861   -2.047195
     42          6           0       -4.367296   -5.269446   -1.123217
     43          6           0       -6.988753   -3.377964   -2.313896
     44          1           0        4.142962   -2.154214    0.130977
     45          1           0        5.082406    0.474533    1.313998
     46          1           0        4.840838   -1.010561    2.224178
     47          1           0        3.025185    1.668737    0.169464
     48          1           0        3.530763   -0.324336   -1.503655
     49          1           0       -0.635805    0.210796    3.559591
     50          1           0       -1.299555    0.401761    1.849168
     51          1           0        0.787118    2.988503   -0.216583
     52          1           0        3.234713   -1.934912    3.060886
     53          1           0        1.503019   -1.764534    3.958132
     54          1           0        1.815427   -2.772524    2.303037
     55          1           0        6.547924   -2.774480    1.548167
     56          1           0        7.472569   -1.128834    1.487446
     57          1           0        8.175694   -2.239052    0.599371
     58          1           0       -0.886118   -2.013332    1.455621
     59          1           0       -0.653187   -2.362268    3.130144
     60          1           0       -1.565103   -0.163117   -0.210271
     61          1           0       -2.135300    4.699634   -1.519231
     62          1           0       -0.496665    4.240379   -1.331060
     63          1           0        8.047839   -0.956029   -3.069364
     64          1           0       -0.977800    4.760617    1.211543
     65          1           0       -2.714190    5.004489    0.662175
     66          1           0       -3.902405    3.920807   -2.476322
     67          1           0       -4.941591    3.035928   -1.132778
     68          1           0       -4.648199    2.500892   -2.977929
     69          1           0       -4.972593    0.243249   -1.901323
     70          1           0        9.371963   -0.872436   -0.428995
     71          1           0       10.035850   -1.067286   -2.096449
     72          1           0       -4.254309   -2.647029    3.253765
     73          1           0       -6.237317   -1.443098   -2.357258
     74          1           0       -5.045162   -5.457282   -0.258935
     75          1           0       -4.817937   -5.593485   -2.057755
     76          1           0       -3.349061   -5.887436   -1.103365
     77          1           0       -1.310693    8.056412    1.494803
     78          1           0       -7.867370   -3.043883   -2.926314
     79          1           0       -6.709104   -4.388024   -2.273644
 ---------------------------------------------------------------------

 SCF Done:  E(RB3LYP) =  -1947.81378527     A.U. after   16 cycles

 Excitation energies and oscillator strengths:

 Excited State   1:      Singlet-A      1.7400 eV  712.56 nm  f=0.3098  <S**2>=0.000
     155 ->156         0.70657
 This state for optimization and/or second-order correction.
 Total Energy, E(TD-HF/TD-DFT) =  -1947.74984203
 Copying the excited state density for this state as the 1-particle RhoCI density.

 The electronic state is 1-A.
 Alpha  occ. eigenvalues --  -19.18937 -19.17957 -19.12222 -19.11783 -19.10846
 Alpha  occ. eigenvalues --  -19.07476 -14.39642 -14.36153 -14.35926 -14.28694
 Alpha  occ. eigenvalues --  -10.31917 -10.31561 -10.28446 -10.27677 -10.26358
 Alpha  occ. eigenvalues --  -10.24317 -10.23819 -10.23533 -10.22584 -10.22551
 Alpha  occ. eigenvalues --  -10.22424 -10.22332 -10.22298 -10.22046 -10.21211
 Alpha  occ. eigenvalues --  -10.21183 -10.21150 -10.21131 -10.20916 -10.20732
 Alpha  occ. eigenvalues --  -10.20646 -10.20636 -10.20620 -10.20165 -10.20135
 Alpha  occ. eigenvalues --  -10.19619 -10.19494 -10.19493 -10.19471 -10.19219
 Alpha  occ. eigenvalues --  -10.18355 -10.18148 -10.17572  -1.11687  -1.07326
 Alpha  occ. eigenvalues --   -1.00987  -1.00825  -1.00662  -1.00182  -0.99295
 Alpha  occ. eigenvalues --   -0.96672  -0.94688  -0.92495  -0.83926  -0.83599
 Alpha  occ. eigenvalues --   -0.81640  -0.81399  -0.80585  -0.79431  -0.78225
 Alpha  occ. eigenvalues --   -0.77607  -0.76312  -0.76077  -0.74023  -0.73042
 Alpha  occ. eigenvalues --   -0.72250  -0.71048  -0.70148  -0.69453  -0.69212
 Alpha  occ. eigenvalues --   -0.66658  -0.66258  -0.64647  -0.63518  -0.63202
 Alpha  occ. eigenvalues --   -0.61436  -0.59521  -0.58143  -0.57526  -0.57230
 Alpha  occ. eigenvalues --   -0.56485  -0.56060  -0.55155  -0.54531  -0.54093
 Alpha  occ. eigenvalues --   -0.52597  -0.51400  -0.50976  -0.50663  -0.50076
 Alpha  occ. eigenvalues --   -0.49838  -0.49189  -0.48346  -0.47943  -0.47670
 Alpha  occ. eigenvalues --   -0.47114  -0.46923  -0.46576  -0.46133  -0.45846
 Alpha  occ. eigenvalues --   -0.45456  -0.45278  -0.44818  -0.44592  -0.44302
 Alpha  occ. eigenvalues --   -0.43662  -0.43402  -0.43269  -0.43093  -0.42725
 Alpha  occ. eigenvalues --   -0.42342  -0.42121  -0.41760  -0.41192  -0.41032
 Alpha  occ. eigenvalues --   -0.40743  -0.40538  -0.40304  -0.40132  -0.39801
 Alpha  occ. eigenvalues --   -0.39595  -0.39295  -0.38615  -0.38080  -0.37952
 Alpha  occ. eigenvalues --   -0.37530  -0.37427  -0.37270  -0.37062  -0.36899
 Alpha  occ. eigenvalues --   -0.36550  -0.35708  -0.35204  -0.34861  -0.34387
 Alpha  occ. eigenvalues --   -0.33474  -0.32983  -0.32582  -0.32011  -0.31513
 Alpha  occ. eigenvalues --   -0.31196  -0.29928  -0.29327  -0.27694  -0.27456
 Alpha  occ. eigenvalues --   -0.26181  -0.26009  -0.25080  -0.24730  -0.24362
 Alpha  occ. eigenvalues --   -0.24124  -0.23510  -0.23152  -0.22620  -0.18072
 Alpha virt. eigenvalues --   -0.10921  -0.07183  -0.05360  -0.01061  -0.00526
 Alpha virt. eigenvalues --    0.01135   0.01551   0.01923   0.02943   0.03798
 Alpha virt. eigenvalues --    0.04239   0.04407   0.04719   0.05143   0.05199

 Mulliken charges:
               1
     1  O   -0.308052
     2  O   -0.189220
     3  O   -0.297348
     4  O   -0.127180
     5  O   -0.233392
     6  O   -0.213389
     7  N   -0.008055
     8  N   -0.033562
     9  N    0.017325
    10  N   -0.169760
    11  C    0.033961
    12  C    0.202899
    13  C   -0.136590
    14  C   -0.134961
    15  C   -0.117307
    16  C   -0.011613
    17  C   -0.155372
    18  C    0.075976
    19  C   -0.024143
    20  C   -0.116609
    21  C    0.095151
    22  C    0.101979
    23  C   -0.127230
    24  C    0.097089
    25  C    0.042007
    26  C   -0.154638
    27  C   -0.109738
    28  C    0.074449
    29  C    0.263656
    30  C    0.012846
    31  C    0.023677
    32  C    0.072779
    33  C   -0.139156
    34  C    0.203170
    35  C    0.019529
    36  C    0.006725
    37  C    0.083195
    38  C    0.074299
    39  C   -0.205757
    40  C    0.186537
    41  C   -0.095526
    42  C    0.048283
    43  C    0.005605
    44  H    0.041509
    45  H   -0.029562
    46  H    0.019192
    47  H    0.134807
    48  H    0.074218
    49  H    0.022125
    50  H    0.022916
    51  H    0.017865
    52  H   -0.032421
    53  H    0.059885
    54  H    0.054429
    55  H    0.052461
    56  H    0.034299
    57  H    0.035306
    58  H    0.103071
    59  H    0.025042
    60  H    0.101158
    61  H   -0.114112
    62  H    0.017636
    63  H    0.012001
    64  H    0.039491
    65  H    0.025965
    66  H    0.011030
    67  H    0.058070
    68  H    0.042839
    69  H    0.009014
    70  H   -0.014966
    71  H    0.010239
    72  H    0.198400
    73  H   -0.019735
    74  H    0.042044
    75  H    0.033618
    76  H    0.055896
    77  H    0.173794
    78  H    0.043709
    79  H    0.006227
 Sum of Mulliken charges =  -0.00000

 Dipole moment (field-independent basis, Debye):
    X=             -1.0256    Y=              0.8903    Z=              3.8760  Tot=              4.1070
 Quadrupole moment (field-independent basis, Debye-Ang):
   XX=           -215.3939   YY=           -239.1522   ZZ=           -265.8070
   XY=             -6.5094   XZ=             41.3724   YZ=              8.4173

 Normal termination of Gaussian 16 at Sun Sep 15 17:54:34 2019.
