 Gaussian 16, Revision A.03,
 Gaussian 16:  ES64L-G16RevA.03 25-Dec-2016

 --------------------------
 # td=(NStates=1) B3LYP/SVP
 --------------------------

 --
 TD
 --
 Symbolic Z-matrix:
 Charge =  0 Multiplicity = 1

                         Standard orientation:
 ---------------------------------------------------------------------
 Center     Atomic      Atomic             Coordinates (Angstroms)
 Number     Number       Type             X           Y           Z
 ---------------------------------------------------------------------
      1          8           0        5.294528   -0.192247   -3.279916
      2          8           0       -3.130318   -2.853814    3.140680
      3          8           0       -3.251145   -0.597919    3.129480
      4          8           0       -2.008398    7.368485    1.342414
      5          8           0       -0.316736    6.919693   -0.350097
      6          8           0       -1.797078   -3.984635    0.139222
      7          7           0        2.395370    1.014821    0.594796
      8          7           0        4.368786   -0.670330   -1.212146
      9          7           0       -1.791972    0.665873   -0.528557
     10          7           0       -2.602269   -1.985162   -0.506558
     11          6           0        4.778590   -1.316058    0.039851
     12          6           0        4.455197   -0.353326    1.228787
     13          6           0        3.034643   -0.011794    1.370025
     14          6           0        1.963445   -0.636514    2.106671
     15          6           0        0.740167    0.002050    1.769339
     16          6           0        1.004520    0.939855    0.706131
     17          6           0        6.159371   -1.523510   -0.160887
     18          6           0       -0.637892   -0.095335    2.475891
     19          6           0        6.721927   -0.842358   -1.302946
     20          6           0        0.143073    2.006745    0.090698
     21          6           0       -1.106552    1.862059   -0.399195
     22          6           0        5.395292   -0.555433   -2.110483
     23          6           0       -1.877010    2.845944   -0.918809
     24          6           0        2.136624   -1.839763    3.081122
     25          6           0        7.124049   -1.926613    0.903127
     26          6           0       -3.057574    2.286725   -1.303760
     27          6           0       -1.239968   -1.619174    2.438392
     28          6           0       -2.950089    0.839111   -1.193671
     29          6           0       -1.542455    4.348928   -0.941381
     30          6           0        7.990900   -0.620878   -1.922527
     31          6           0       -1.891957    5.160678    0.323900
     32          6           0       -4.315011    2.964878   -1.889349
     33          6           0       -3.936235   -0.165046   -1.375721
     34          6           0       -2.655936   -1.657235    2.891849
     35          6           0       -3.677548   -1.558716   -1.148381
     36          6           0        9.213121   -0.529813   -1.283049
     37          6           0       -1.270913    6.556238    0.425841
     38          6           0       -4.591501   -2.670746   -1.473014
     39          6           0       -3.852349   -3.788860   -0.983521
     40          6           0       -2.617518   -3.351284   -0.402932
     41          6           0       -5.892928   -2.546378   -1.979785
     42          6           0       -4.151794   -5.175475   -1.051779
     43          6           0       -6.689428   -3.499910   -2.519009
     44          1           0        4.186829   -2.332487    0.312771
     45          1           0        4.964766    0.410182    1.132790
     46          1           0        4.784341   -0.904482    2.101225
     47          1           0        2.907592    1.405007   -0.161635
     48          1           0        3.576398   -0.754535   -1.739731
     49          1           0       -0.485403    0.047274    3.590098
     50          1           0       -1.277108    0.611291    2.021416
     51          1           0        0.672522    3.084060    0.104930
     52          1           0        3.123569   -2.097734    3.545127
     53          1           0        1.602090   -1.542615    4.132004
     54          1           0        1.733341   -2.896047    2.772885
     55          1           0        6.571295   -2.728593    1.474948
     56          1           0        7.402015   -1.226462    1.552639
     57          1           0        7.936038   -2.477648    0.421972
     58          1           0       -1.196538   -2.152835    1.523769
     59          1           0       -0.570335   -2.256740    3.037938
     60          1           0       -1.424668   -0.274997   -0.254432
     61          1           0       -2.233050    4.795717   -1.702189
     62          1           0       -0.628846    4.671431   -1.242873
     63          1           0        7.876300   -0.304192   -3.038281
     64          1           0       -1.488023    4.556004    1.143911
     65          1           0       -3.050760    5.331147    0.584568
     66          1           0       -3.988114    4.087154   -2.151875
     67          1           0       -5.093761    3.243482   -1.033499
     68          1           0       -4.622505    2.526437   -2.768849
     69          1           0       -4.835883    0.302711   -1.775562
     70          1           0        9.366127   -0.328384   -0.213366
     71          1           0       10.112719   -0.375702   -1.990121
     72          1           0       -3.944730   -2.518658    3.515056
     73          1           0       -6.152537   -1.580776   -2.136389
     74          1           0       -5.082030   -5.449066   -0.641668
     75          1           0       -4.288723   -5.445523   -2.200725
     76          1           0       -3.260028   -5.650856   -0.596334
     77          1           0       -1.388690    8.139644    1.516259
     78          1           0       -7.656759   -3.112038   -2.777997
     79          1           0       -6.501250   -4.428044   -2.414334
 ---------------------------------------------------------------------

 SCF Done:  E(RB3LYP) =  -1947.84711299     A.U. after   18 cycles

 Excitation energies and oscillator strengths:

 Excited State   1:      Singlet-A      1.9388 eV  639.49 nm  f=0.2819  <S**2>=0.000
     154 ->156         0.29548
     155 ->156         0.63567
 This state for optimization and/or second-order correction.
 Total Energy, E(TD-HF/TD-DFT) =  -1947.77586302
 Copying the excited state density for this state as the 1-particle RhoCI density.

 The electronic state is 1-A.
 Alpha  occ. eigenvalues --  -19.20203 -19.18248 -19.14870 -19.10715 -19.10619
 Alpha  occ. eigenvalues --  -19.10429 -14.38319 -14.36670 -14.35379 -14.27523
 Alpha  occ. eigenvalues --  -10.34549 -10.30380 -10.28514 -10.26301 -10.25178
 Alpha  occ. eigenvalues --  -10.24742 -10.23828 -10.23657 -10.23570 -10.23286
 Alpha  occ. eigenvalues --  -10.23235 -10.22743 -10.22201 -10.21753 -10.21671
 Alpha  occ. eigenvalues --  -10.21650 -10.21287 -10.21248 -10.21198 -10.20866
 Alpha  occ. eigenvalues --  -10.20824 -10.20557 -10.20458 -10.20070 -10.19698
 Alpha  occ. eigenvalues --  -10.19695 -10.19520 -10.19203 -10.18841 -10.18671
 Alpha  occ. eigenvalues --  -10.18148 -10.17819 -10.17799  -1.11059  -1.07140
 Alpha  occ. eigenvalues --   -1.04544  -1.02541  -0.99721  -0.99586  -0.98588
 Alpha  occ. eigenvalues --   -0.96780  -0.94862  -0.92625  -0.83363  -0.83154
 Alpha  occ. eigenvalues --   -0.81466  -0.80731  -0.80383  -0.79738  -0.78152
 Alpha  occ. eigenvalues --   -0.77374  -0.76785  -0.75156  -0.74877  -0.72514
 Alpha  occ. eigenvalues --   -0.71520  -0.70529  -0.69778  -0.68869  -0.68671
 Alpha  occ. eigenvalues --   -0.66970  -0.66673  -0.64455  -0.61365  -0.61182
 Alpha  occ. eigenvalues --   -0.59495  -0.59197  -0.58117  -0.57541  -0.57109
 Alpha  occ. eigenvalues --   -0.56648  -0.56324  -0.55668  -0.55115  -0.53950
 Alpha  occ. eigenvalues --   -0.52212  -0.51954  -0.50848  -0.50331  -0.49719
 Alpha  occ. eigenvalues --   -0.48982  -0.48876  -0.48396  -0.48221  -0.47791
 Alpha  occ. eigenvalues --   -0.47663  -0.47188  -0.46748  -0.46336  -0.46105
 Alpha  occ. eigenvalues --   -0.46048  -0.45615  -0.45110  -0.44422  -0.43956
 Alpha  occ. eigenvalues --   -0.43583  -0.43301  -0.43123  -0.42674  -0.42469
 Alpha  occ. eigenvalues --   -0.42215  -0.41905  -0.41658  -0.41280  -0.41018
 Alpha  occ. eigenvalues --   -0.40973  -0.40634  -0.40185  -0.40036  -0.39841
 Alpha  occ. eigenvalues --   -0.39424  -0.39246  -0.39072  -0.38952  -0.38835
 Alpha  occ. eigenvalues --   -0.38258  -0.37915  -0.37677  -0.37380  -0.37063
 Alpha  occ. eigenvalues --   -0.36563  -0.35791  -0.35484  -0.35309  -0.34677
 Alpha  occ. eigenvalues --   -0.34519  -0.34233  -0.33677  -0.33125  -0.31789
 Alpha  occ. eigenvalues --   -0.31495  -0.30847  -0.29272  -0.28997  -0.27378
 Alpha  occ. eigenvalues --   -0.27248  -0.26637  -0.26505  -0.25268  -0.24715
 Alpha  occ. eigenvalues --   -0.23887  -0.23792  -0.22985  -0.21173  -0.19341
 Alpha virt. eigenvalues --   -0.11253  -0.07714  -0.06934  -0.03622  -0.00889
 Alpha virt. eigenvalues --   -0.00088   0.00473   0.01868   0.02664   0.02967
 Alpha virt. eigenvalues --    0.03676   0.03932   0.04915   0.05315   0.05903

 Mulliken charges:
               1
     1  O   -0.240461
     2  O   -0.115366
     3  O   -0.283940
     4  O   -0.239301
     5  O   -0.272335
     6  O   -0.152347
     7  N   -0.109837
     8  N   -0.145884
     9  N   -0.065379
    10  N   -0.261883
    11  C    0.065867
    12  C    0.393924
    13  C   -0.099809
    14  C   -0.083216
    15  C   -0.097049
    16  C    0.021680
    17  C   -0.201372
    18  C    0.138973
    19  C   -0.061652
    20  C   -0.154508
    21  C    0.126219
    22  C    0.109883
    23  C   -0.050270
    24  C   -0.028142
    25  C    0.133496
    26  C   -0.151007
    27  C    0.006133
    28  C    0.053964
    29  C    0.156546
    30  C   -0.047466
    31  C   -0.040282
    32  C    0.067360
    33  C   -0.092076
    34  C    0.134890
    35  C    0.110230
    36  C   -0.056807
    37  C    0.202024
    38  C    0.069429
    39  C   -0.231413
    40  C    0.124948
    41  C   -0.027012
    42  C    0.086579
    43  C    0.092179
    44  H    0.049610
    45  H   -0.115140
    46  H   -0.013375
    47  H    0.109416
    48  H    0.097851
    49  H    0.020149
    50  H    0.006143
    51  H    0.050349
    52  H    0.009705
    53  H    0.030731
    54  H    0.066221
    55  H   -0.001260
    56  H    0.011623
    57  H    0.034797
    58  H    0.032174
    59  H    0.011730
    60  H    0.160238
    61  H    0.002274
    62  H   -0.008977
    63  H    0.056806
    64  H    0.043520
    65  H    0.062012
    66  H    0.013202
    67  H    0.056977
    68  H    0.030146
    69  H   -0.024358
    70  H    0.040268
    71  H    0.046484
    72  H    0.150745
    73  H   -0.062253
    74  H    0.014539
    75  H    0.038534
    76  H    0.033308
    77  H    0.204322
    78  H    0.016723
    79  H   -0.060744
 Sum of Mulliken charges =  -0.00000

 Dipole moment (field-independent basis, Debye):
    X=              0.7985    Y=              2.3280    Z=              3.2090  Tot=              4.0441
 Quadrupole moment (field-independent basis, Debye-Ang):
   XX=           -221.9115   YY=           -246.4286   ZZ=           -262.2881
   XY=             -9.5450   XZ=             30.7675   YZ=              3.5237

 Normal termination of Gaussian 16 at Tue Sep 17 00:16:33 2019.
