 Gaussian 16, Revision A.03,
 Gaussian 16:  ES64L-G16RevA.03 25-Dec-2016

 --------------------------
 # td=(NStates=1) B3LYP/SVP
 --------------------------

 --
 TD
 --
 Symbolic Z-matrix:
 Charge =  0 Multiplicity = 1

                         Standard orientation:
 ---------------------------------------------------------------------
 Center     Atomic      Atomic             Coordinates (Angstroms)
 Number     Number       Type             X           Y           Z
 ---------------------------------------------------------------------
      1          8           0       -3.268951   -1.007989   -2.878050
      2          8           0        3.061247    2.710342    3.403233
      3          8           0        3.703739    0.832806    4.382128
      4          8           0        7.784349   -1.402722   -0.970453
      5          8           0        6.597640   -2.744923   -2.181511
      6          8           0       -2.722312    1.511737    1.617950
      7          7           0       -0.283492   -2.458084    0.530253
      8          7           0       -2.715520   -1.052981   -0.686167
      9          7           0        1.202736    0.199704   -0.706551
     10          7           0       -0.903162    1.512865   -0.010488
     11          6           0       -3.379045   -1.420923    0.564218
     12          6           0       -2.569697   -2.564704    1.293092
     13          6           0       -1.158978   -2.235006    1.563351
     14          6           0       -0.542121   -1.573374    2.544096
     15          6           0        0.877072   -1.470945    2.212457
     16          6           0        0.956728   -2.109447    0.933126
     17          6           0       -4.769005   -1.824926    0.177266
     18          6           0        1.921089   -0.808186    3.002496
     19          6           0       -4.846549   -1.896671   -1.268276
     20          6           0        2.125851   -1.923196    0.012976
     21          6           0        2.163372   -0.796798   -0.752593
     22          6           0       -3.550594   -1.284756   -1.785684
     23          6           0        3.011303   -0.401162   -1.820709
     24          6           0       -1.191599   -0.968311    3.801437
     25          6           0       -5.708186   -2.392843    1.040247
     26          6           0        2.598385    0.785056   -2.333518
     27          6           0        1.888522    0.743072    2.836828
     28          6           0        1.304607    1.157340   -1.656450
     29          6           0        4.183992   -1.189042   -2.219647
     30          6           0       -5.924789   -2.273016   -2.231090
     31          6           0        5.398134   -0.855619   -1.220118
     32          6           0        3.158471    1.598260   -3.526296
     33          6           0        0.533277    2.280895   -1.730724
     34          6           0        3.007991    1.383860    3.630324
     35          6           0       -0.616524    2.369331   -0.950569
     36          6           0       -7.103263   -2.897426   -1.940695
     37          6           0        6.612528   -1.823223   -1.489144
     38          6           0       -1.495612    3.550228   -0.880807
     39          6           0       -2.322433    3.390053    0.233710
     40          6           0       -2.042038    2.022321    0.752180
     41          6           0       -1.340687    4.783410   -1.807112
     42          6           0       -3.418899    4.223017    0.802121
     43          6           0       -2.084676    5.847037   -1.681016
     44          1           0       -3.350912   -0.567024    1.342512
     45          1           0       -2.475518   -3.463332    0.725529
     46          1           0       -2.916785   -2.776825    2.159357
     47          1           0       -0.534786   -2.808652   -0.351618
     48          1           0       -1.897616   -0.425012   -0.967226
     49          1           0        1.925838   -0.878672    4.167700
     50          1           0        2.863905   -1.258798    2.676791
     51          1           0        2.596923   -2.934663   -0.147685
     52          1           0       -1.902114   -1.698728    4.059223
     53          1           0       -0.434533   -0.992210    4.615058
     54          1           0       -1.614066    0.072698    3.629143
     55          1           0       -5.395623   -2.113115    2.067059
     56          1           0       -5.716370   -3.479442    1.206597
     57          1           0       -6.865446   -1.862422    0.812594
     58          1           0        2.244695    0.945885    1.649486
     59          1           0        0.874522    1.160017    2.920713
     60          1           0        0.293003    0.514242   -0.032043
     61          1           0        4.550965   -0.874138   -3.184990
     62          1           0        4.264912   -2.117540   -2.321324
     63          1           0       -5.746094   -1.908474   -3.256712
     64          1           0        5.150269   -1.007963   -0.152363
     65          1           0        5.798385    0.244748   -1.201568
     66          1           0        4.215219    1.038080   -3.860512
     67          1           0        3.289507    2.628523   -3.179588
     68          1           0        2.487157    1.345885   -4.628121
     69          1           0        1.021542    2.983647   -2.329575
     70          1           0       -7.450189   -3.183254   -0.878540
     71          1           0       -7.662878   -3.270978   -2.790814
     72          1           0        3.821557    2.993652    3.873619
     73          1           0       -0.814574    4.597276   -2.852224
     74          1           0       -4.259321    4.598649    0.069648
     75          1           0       -3.783612    3.608052    1.689594
     76          1           0       -2.851950    5.094913    1.452220
     77          1           0        8.379912   -2.226723   -1.173091
     78          1           0       -1.775140    6.577598   -2.375081
     79          1           0       -2.740184    6.293730   -0.942324
 ---------------------------------------------------------------------

 SCF Done:  E(RB3LYP) =  -1947.82755442     A.U. after   16 cycles

 Excitation energies and oscillator strengths:

 Excited State   1:      Singlet-A      1.2899 eV  961.23 nm  f=0.0017  <S**2>=0.000
     155 ->156         0.70076
 This state for optimization and/or second-order correction.
 Total Energy, E(TD-HF/TD-DFT) =  -1947.78015321
 Copying the excited state density for this state as the 1-particle RhoCI density.

 The electronic state is 1-A.
 Alpha  occ. eigenvalues --  -19.18505 -19.17226 -19.13849 -19.13790 -19.12571
 Alpha  occ. eigenvalues --  -19.08281 -14.36009 -14.35569 -14.32539 -14.31930
 Alpha  occ. eigenvalues --  -10.32331 -10.31076 -10.29618 -10.25816 -10.25324
 Alpha  occ. eigenvalues --  -10.25015 -10.24900 -10.24174 -10.23072 -10.22756
 Alpha  occ. eigenvalues --  -10.22437 -10.22237 -10.22166 -10.21782 -10.21617
 Alpha  occ. eigenvalues --  -10.21564 -10.21076 -10.20645 -10.20617 -10.20522
 Alpha  occ. eigenvalues --  -10.20457 -10.20044 -10.19732 -10.19625 -10.19595
 Alpha  occ. eigenvalues --  -10.19088 -10.18978 -10.18872 -10.18814 -10.17599
 Alpha  occ. eigenvalues --  -10.17517 -10.16736 -10.16046  -1.12242  -1.11100
 Alpha  occ. eigenvalues --   -1.04570  -1.03466  -1.02256  -1.02024  -0.98972
 Alpha  occ. eigenvalues --   -0.97266  -0.94759  -0.90831  -0.83778  -0.81787
 Alpha  occ. eigenvalues --   -0.80896  -0.80132  -0.79693  -0.78926  -0.77687
 Alpha  occ. eigenvalues --   -0.76657  -0.76017  -0.75651  -0.74700  -0.71921
 Alpha  occ. eigenvalues --   -0.70230  -0.69740  -0.69098  -0.68039  -0.67487
 Alpha  occ. eigenvalues --   -0.66922  -0.66084  -0.63749  -0.60699  -0.59357
 Alpha  occ. eigenvalues --   -0.58935  -0.58614  -0.58211  -0.57833  -0.56132
 Alpha  occ. eigenvalues --   -0.54971  -0.54753  -0.54584  -0.53879  -0.53609
 Alpha  occ. eigenvalues --   -0.51613  -0.51142  -0.50605  -0.49626  -0.49534
 Alpha  occ. eigenvalues --   -0.49141  -0.48749  -0.48645  -0.48229  -0.48132
 Alpha  occ. eigenvalues --   -0.47584  -0.47048  -0.46300  -0.46050  -0.45396
 Alpha  occ. eigenvalues --   -0.45369  -0.45171  -0.44576  -0.44362  -0.44133
 Alpha  occ. eigenvalues --   -0.43934  -0.43459  -0.43108  -0.42678  -0.42403
 Alpha  occ. eigenvalues --   -0.41656  -0.41488  -0.41359  -0.41231  -0.40863
 Alpha  occ. eigenvalues --   -0.40285  -0.40245  -0.39800  -0.39725  -0.39337
 Alpha  occ. eigenvalues --   -0.39264  -0.39009  -0.38762  -0.38241  -0.37962
 Alpha  occ. eigenvalues --   -0.37863  -0.37708  -0.37361  -0.37198  -0.37028
 Alpha  occ. eigenvalues --   -0.36492  -0.35911  -0.35642  -0.35271  -0.34673
 Alpha  occ. eigenvalues --   -0.33626  -0.33500  -0.32955  -0.32575  -0.31969
 Alpha  occ. eigenvalues --   -0.30890  -0.30041  -0.29705  -0.29279  -0.29222
 Alpha  occ. eigenvalues --   -0.28380  -0.26453  -0.26228  -0.24427  -0.24112
 Alpha  occ. eigenvalues --   -0.23966  -0.22398  -0.22183  -0.21802  -0.19424
 Alpha virt. eigenvalues --   -0.12175  -0.07360  -0.05293  -0.01268   0.00806
 Alpha virt. eigenvalues --    0.01398   0.02142   0.02470   0.02954   0.02982
 Alpha virt. eigenvalues --    0.03742   0.04615   0.05092   0.05176   0.05314

 Mulliken charges:
               1
     1  O   -0.179315
     2  O   -0.160431
     3  O   -0.178158
     4  O   -0.216548
     5  O   -0.177805
     6  O   -0.189222
     7  N   -0.025328
     8  N   -0.266253
     9  N   -0.184345
    10  N   -0.354115
    11  C    0.107506
    12  C    0.361540
    13  C   -0.156042
    14  C   -0.157503
    15  C   -0.094814
    16  C   -0.061620
    17  C   -0.122242
    18  C    0.078303
    19  C   -0.084201
    20  C   -0.143242
    21  C    0.199661
    22  C    0.093327
    23  C   -0.035197
    24  C    0.121503
    25  C    0.021554
    26  C   -0.123382
    27  C   -0.102051
    28  C    0.062242
    29  C    0.257343
    30  C   -0.012121
    31  C   -0.088933
    32  C   -0.027409
    33  C   -0.077442
    34  C    0.123998
    35  C    0.169440
    36  C   -0.050032
    37  C    0.112907
    38  C    0.006111
    39  C   -0.212560
    40  C    0.230886
    41  C   -0.015756
    42  C    0.017763
    43  C    0.000503
    44  H    0.060524
    45  H   -0.044807
    46  H   -0.100513
    47  H    0.094598
    48  H    0.153387
    49  H    0.027175
    50  H   -0.005372
    51  H    0.038274
    52  H   -0.016899
    53  H   -0.001154
    54  H    0.054867
    55  H    0.000605
    56  H    0.041985
    57  H    0.069371
    58  H    0.052751
    59  H    0.056654
    60  H    0.252176
    61  H   -0.014424
    62  H   -0.067455
    63  H    0.016076
    64  H    0.045267
    65  H    0.050111
    66  H    0.043193
    67  H    0.055116
    68  H    0.076649
    69  H   -0.048207
    70  H    0.035372
    71  H    0.022330
    72  H    0.149165
    73  H    0.043937
    74  H    0.074665
    75  H    0.035861
    76  H    0.045439
    77  H    0.201093
    78  H    0.007747
    79  H    0.025922
 Sum of Mulliken charges =  -0.00000

 Dipole moment (field-independent basis, Debye):
    X=              2.3478    Y=              2.6227    Z=             -0.7529  Tot=              3.5997
 Quadrupole moment (field-independent basis, Debye-Ang):
   XX=           -240.8323   YY=           -230.3829   ZZ=           -266.8538
   XY=              3.6048   XZ=            -18.7358   YZ=             -7.4095

 Normal termination of Gaussian 16 at Wed Jul 24 15:57:32 2019.
