 Gaussian 16, Revision A.03,
 Gaussian 16:  ES64L-G16RevA.03 25-Dec-2016

 --------------------------
 # td=(NStates=1) B3LYP/SVP
 --------------------------

 --
 TD
 --
 Symbolic Z-matrix:
 Charge =  0 Multiplicity = 1

                         Standard orientation:
 ---------------------------------------------------------------------
 Center     Atomic      Atomic             Coordinates (Angstroms)
 Number     Number       Type             X           Y           Z
 ---------------------------------------------------------------------
      1          8           0       -3.538227   -1.566410   -2.783824
      2          8           0        3.331655    3.238239    2.888858
      3          8           0        3.790961    1.657738    4.312384
      4          8           0        7.583523   -1.659577   -0.416601
      5          8           0        6.742001   -3.089141   -2.071191
      6          8           0       -2.506657    1.757385    1.542880
      7          7           0       -0.241149   -2.344944    1.018844
      8          7           0       -2.819730   -1.185704   -0.631361
      9          7           0        1.041587    0.073322   -0.837901
     10          7           0       -1.105278    1.417254   -0.313541
     11          6           0       -3.381717   -1.341420    0.684623
     12          6           0       -2.536003   -2.278751    1.714499
     13          6           0       -1.136965   -1.856847    1.836249
     14          6           0       -0.420759   -0.980996    2.804775
     15          6           0        0.895139   -0.982754    2.540906
     16          6           0        1.034202   -1.777945    1.364316
     17          6           0       -4.776150   -1.851251    0.498641
     18          6           0        1.942176   -0.167735    3.221395
     19          6           0       -4.931310   -2.002109   -0.925265
     20          6           0        2.161433   -1.822457    0.420552
     21          6           0        2.149605   -0.882595   -0.636034
     22          6           0       -3.728399   -1.543253   -1.600203
     23          6           0        3.031808   -0.702718   -1.737579
     24          6           0       -1.321695   -0.211020    3.836973
     25          6           0       -5.697622   -2.073386    1.593485
     26          6           0        2.437955    0.302177   -2.568327
     27          6           0        2.122837    1.170375    2.460540
     28          6           0        1.289931    0.808084   -1.939396
     29          6           0        4.219970   -1.539275   -2.090680
     30          6           0       -5.903335   -2.624589   -1.726383
     31          6           0        5.374072   -1.402700   -1.002684
     32          6           0        3.025924    0.831253   -3.948118
     33          6           0        0.470656    1.900299   -2.199452
     34          6           0        3.169616    2.029061    3.341787
     35          6           0       -0.700622    2.178429   -1.452438
     36          6           0       -7.003317   -3.452988   -1.339918
     37          6           0        6.597404   -2.217615   -1.317818
     38          6           0       -1.511036    3.489922   -1.383857
     39          6           0       -2.249281    3.447340   -0.286959
     40          6           0       -2.047843    2.195211    0.414978
     41          6           0       -1.280702    4.429270   -2.487092
     42          6           0       -3.240832    4.395839    0.276010
     43          6           0       -1.998245    5.578106   -2.545180
     44          1           0       -3.250239   -0.237252    1.237477
     45          1           0       -2.604116   -3.462028    1.436120
     46          1           0       -3.181790   -2.205953    2.628815
     47          1           0       -0.130002   -3.009829    0.203696
     48          1           0       -2.274476   -0.283835   -0.743380
     49          1           0        1.518082    0.108444    4.287141
     50          1           0        2.921589   -0.784990    3.234133
     51          1           0        2.756032   -2.635650    0.448302
     52          1           0       -2.072533   -0.980728    4.325820
     53          1           0       -0.836293    0.233944    4.861134
     54          1           0       -1.794683    0.499410    3.279891
     55          1           0       -5.513569   -1.298480    2.476038
     56          1           0       -5.409249   -3.035388    1.948674
     57          1           0       -6.794165   -2.019708    1.337743
     58          1           0        2.696604    0.939167    1.503013
     59          1           0        1.121394    1.771858    2.337221
     60          1           0        0.174080    0.314621   -0.534727
     61          1           0        4.592253   -1.439824   -3.132160
     62          1           0        3.928333   -2.596792   -1.936695
     63          1           0       -5.995455   -2.464116   -2.778303
     64          1           0        4.936625   -1.743771   -0.001600
     65          1           0        5.581154   -0.200635   -1.019590
     66          1           0        3.992164    0.295124   -4.159101
     67          1           0        3.247584    1.963465   -3.975220
     68          1           0        2.304265    0.745078   -4.834269
     69          1           0        0.785333    2.260474   -3.215543
     70          1           0       -7.073510   -3.794472   -0.469868
     71          1           0       -7.720936   -3.925709   -2.028763
     72          1           0        3.796273    3.844193    3.590941
     73          1           0       -0.748835    4.059636   -3.272857
     74          1           0       -4.249559    4.450221   -0.316682
     75          1           0       -3.608319    4.310468    1.287743
     76          1           0       -2.823078    5.368302    0.396281
     77          1           0        8.285578   -2.258854   -0.623409
     78          1           0       -1.602494    6.328322   -3.389563
     79          1           0       -2.649452    6.202151   -1.754866
 ---------------------------------------------------------------------

 SCF Done:  E(RB3LYP) =  -1947.80936001     A.U. after   28 cycles

 Excitation energies and oscillator strengths:

 Excited State   1:      Singlet-A      0.3710 eV 3342.16 nm  f=0.0014  <S**2>=0.000
     155 ->156         0.70259
 This state for optimization and/or second-order correction.
 Total Energy, E(TD-HF/TD-DFT) =  -1947.79572711
 Copying the excited state density for this state as the 1-particle RhoCI density.

 The electronic state is 1-A.
 Alpha  occ. eigenvalues --  -19.18193 -19.18038 -19.16905 -19.12327 -19.11181
 Alpha  occ. eigenvalues --  -19.07308 -14.37828 -14.36534 -14.31419 -14.31393
 Alpha  occ. eigenvalues --  -10.34201 -10.30958 -10.28627 -10.27413 -10.26253
 Alpha  occ. eigenvalues --  -10.25851 -10.25034 -10.24092 -10.24048 -10.23763
 Alpha  occ. eigenvalues --  -10.23480 -10.23409 -10.23066 -10.22861 -10.22395
 Alpha  occ. eigenvalues --  -10.22076 -10.21991 -10.21652 -10.21371 -10.20888
 Alpha  occ. eigenvalues --  -10.20885 -10.20669 -10.20647 -10.20015 -10.19999
 Alpha  occ. eigenvalues --  -10.19795 -10.19567 -10.18347 -10.17979 -10.17863
 Alpha  occ. eigenvalues --  -10.16997 -10.16865 -10.16789  -1.11857  -1.09822
 Alpha  occ. eigenvalues --   -1.03442  -1.00830  -1.00029  -0.99460  -0.98999
 Alpha  occ. eigenvalues --   -0.96825  -0.91602  -0.91306  -0.84907  -0.81933
 Alpha  occ. eigenvalues --   -0.81621  -0.80144  -0.79785  -0.79116  -0.78320
 Alpha  occ. eigenvalues --   -0.76814  -0.75831  -0.74716  -0.73932  -0.72383
 Alpha  occ. eigenvalues --   -0.70623  -0.70096  -0.69411  -0.68708  -0.67457
 Alpha  occ. eigenvalues --   -0.66008  -0.65283  -0.63588  -0.61299  -0.60500
 Alpha  occ. eigenvalues --   -0.59744  -0.59253  -0.58910  -0.57330  -0.57033
 Alpha  occ. eigenvalues --   -0.56194  -0.55581  -0.53987  -0.52791  -0.52355
 Alpha  occ. eigenvalues --   -0.51979  -0.51626  -0.51400  -0.50479  -0.50226
 Alpha  occ. eigenvalues --   -0.49647  -0.49271  -0.48511  -0.48139  -0.47584
 Alpha  occ. eigenvalues --   -0.47142  -0.46744  -0.46524  -0.45782  -0.45604
 Alpha  occ. eigenvalues --   -0.45506  -0.45000  -0.44717  -0.44331  -0.44071
 Alpha  occ. eigenvalues --   -0.43902  -0.43286  -0.42702  -0.42246  -0.41958
 Alpha  occ. eigenvalues --   -0.41752  -0.41516  -0.40992  -0.40741  -0.40467
 Alpha  occ. eigenvalues --   -0.40296  -0.39820  -0.39645  -0.39549  -0.39375
 Alpha  occ. eigenvalues --   -0.39183  -0.38994  -0.38591  -0.38312  -0.38223
 Alpha  occ. eigenvalues --   -0.37639  -0.37472  -0.37163  -0.36901  -0.35802
 Alpha  occ. eigenvalues --   -0.35696  -0.35370  -0.34695  -0.34479  -0.34219
 Alpha  occ. eigenvalues --   -0.33853  -0.33595  -0.33189  -0.32224  -0.32009
 Alpha  occ. eigenvalues --   -0.31477  -0.31191  -0.29204  -0.28778  -0.28180
 Alpha  occ. eigenvalues --   -0.27279  -0.26767  -0.26233  -0.24827  -0.23998
 Alpha  occ. eigenvalues --   -0.23624  -0.23087  -0.22509  -0.20612  -0.17794
 Alpha virt. eigenvalues --   -0.13760  -0.08971  -0.05263  -0.02944  -0.02019
 Alpha virt. eigenvalues --    0.01226   0.01370   0.01808   0.02440   0.02706
 Alpha virt. eigenvalues --    0.03475   0.03594   0.04225   0.05217   0.05442

 Mulliken charges:
               1
     1  O   -0.212796
     2  O   -0.181085
     3  O   -0.238873
     4  O   -0.227696
     5  O   -0.141613
     6  O   -0.261512
     7  N   -0.046218
     8  N   -0.201165
     9  N   -0.029808
    10  N   -0.380262
    11  C   -0.043822
    12  C    0.086968
    13  C   -0.035752
    14  C   -0.112691
    15  C   -0.052884
    16  C   -0.087286
    17  C   -0.107773
    18  C    0.079300
    19  C   -0.020307
    20  C   -0.062528
    21  C    0.176089
    22  C    0.110420
    23  C   -0.053313
    24  C    0.045955
    25  C    0.071473
    26  C   -0.105385
    27  C   -0.062951
    28  C    0.003713
    29  C    0.094530
    30  C   -0.057237
    31  C   -0.114274
    32  C    0.022833
    33  C   -0.036257
    34  C    0.111540
    35  C    0.107211
    36  C    0.011914
    37  C    0.161805
    38  C    0.053329
    39  C   -0.166046
    40  C    0.218615
    41  C    0.062414
    42  C    0.077432
    43  C   -0.076465
    44  H    0.089634
    45  H    0.007174
    46  H   -0.007091
    47  H    0.145512
    48  H    0.165090
    49  H    0.031690
    50  H    0.020793
    51  H   -0.023062
    52  H    0.014167
    53  H    0.016835
    54  H    0.026280
    55  H    0.045456
    56  H    0.030187
    57  H    0.045291
    58  H    0.049832
    59  H    0.078966
    60  H    0.089597
    61  H    0.031846
    62  H    0.021941
    63  H   -0.002792
    64  H    0.074944
    65  H    0.078778
    66  H    0.029178
    67  H    0.044345
    68  H    0.051982
    69  H    0.002779
    70  H   -0.067690
    71  H    0.021431
    72  H    0.211327
    73  H   -0.029387
    74  H    0.046784
    75  H    0.009226
    76  H    0.007521
    77  H    0.150932
    78  H    0.037137
    79  H    0.073828
 Sum of Mulliken charges =  -0.00000

 Dipole moment (field-independent basis, Debye):
    X=              4.0861    Y=              3.0159    Z=             -1.9384  Tot=              5.4360
 Quadrupole moment (field-independent basis, Debye-Ang):
   XX=           -246.7712   YY=           -227.2865   ZZ=           -267.3219
   XY=             -4.7145   XZ=            -27.4517   YZ=            -13.4430

 Normal termination of Gaussian 16 at Mon Jul 29 06:42:11 2019.
