 Gaussian 16, Revision A.03,
 Gaussian 16:  ES64L-G16RevA.03 25-Dec-2016

 --------------------------
 # td=(NStates=1) B3LYP/SVP
 --------------------------

 --
 TD
 --
 Symbolic Z-matrix:
 Charge =  0 Multiplicity = 1

                         Standard orientation:
 ---------------------------------------------------------------------
 Center     Atomic      Atomic             Coordinates (Angstroms)
 Number     Number       Type             X           Y           Z
 ---------------------------------------------------------------------
      1          8           0        5.283095   -0.036581   -3.365383
      2          8           0       -2.884327   -2.875611    3.206066
      3          8           0       -3.175541   -0.642950    3.241404
      4          8           0       -1.903070    7.162056    1.421106
      5          8           0       -1.213125    7.070264   -0.672005
      6          8           0       -1.642520   -4.147588    0.270929
      7          7           0        2.260932    1.000330    0.534115
      8          7           0        4.363573   -0.551096   -1.230794
      9          7           0       -1.861657    0.601969   -0.315631
     10          7           0       -2.418947   -1.975740   -0.448891
     11          6           0        4.799918   -0.992915    0.032535
     12          6           0        4.413036   -0.032956    1.221159
     13          6           0        2.906085    0.136614    1.395416
     14          6           0        1.997135   -0.515912    2.156343
     15          6           0        0.742515    0.036146    1.827517
     16          6           0        0.947454    0.880440    0.727063
     17          6           0        6.299673   -1.179697   -0.186294
     18          6           0       -0.599967   -0.150962    2.502500
     19          6           0        6.676206   -0.773916   -1.364886
     20          6           0        0.147185    1.976087    0.105681
     21          6           0       -1.150496    1.737407   -0.374265
     22          6           0        5.391312   -0.402472   -2.190874
     23          6           0       -1.973049    2.837941   -0.878871
     24          6           0        2.238985   -1.477435    3.269641
     25          6           0        7.149286   -1.692737    1.003479
     26          6           0       -3.132508    2.135285   -1.304953
     27          6           0       -1.110163   -1.577309    2.437543
     28          6           0       -3.013846    0.782614   -1.002898
     29          6           0       -1.693505    4.369138   -0.952515
     30          6           0        7.941794   -0.659424   -1.995610
     31          6           0       -2.018386    5.006892    0.382147
     32          6           0       -4.414473    2.718603   -1.903000
     33          6           0       -3.876584   -0.299779   -1.335254
     34          6           0       -2.499038   -1.616650    3.006169
     35          6           0       -3.578376   -1.529106   -1.152412
     36          6           0        9.170059   -0.620158   -1.532444
     37          6           0       -1.706901    6.442586    0.285022
     38          6           0       -4.438266   -2.845900   -1.452546
     39          6           0       -3.650639   -3.875647   -0.972787
     40          6           0       -2.455114   -3.487133   -0.320800
     41          6           0       -5.708666   -2.640517   -2.228936
     42          6           0       -4.064876   -5.365607   -0.961930
     43          6           0       -6.394104   -3.569559   -2.810778
     44          1           0        4.509989   -2.187460    0.347045
     45          1           0        4.854867    0.998481    1.022539
     46          1           0        4.735489   -0.411477    2.047959
     47          1           0        2.703092    1.533363   -0.103092
     48          1           0        3.306828   -0.495820   -1.422818
     49          1           0       -0.459820   -0.049228    3.431888
     50          1           0       -1.298258    0.532118    1.930659
     51          1           0        0.556476    2.911986   -0.208409
     52          1           0        3.240067   -1.790927    3.525471
     53          1           0        1.557410   -1.134094    4.133041
     54          1           0        1.624354   -2.388234    3.116955
     55          1           0        6.610839   -2.413057    1.674589
     56          1           0        7.447294   -0.904703    1.807577
     57          1           0        8.055524   -2.085978    0.562430
     58          1           0       -1.214654   -2.083041    1.602697
     59          1           0       -0.420681   -2.156692    3.207906
     60          1           0       -1.445626   -0.470527   -0.201046
     61          1           0       -2.352792    4.878267   -1.593497
     62          1           0       -0.685759    4.646448   -1.293253
     63          1           0        7.917875   -0.529823   -3.174550
     64          1           0       -1.420559    4.808931    1.292655
     65          1           0       -3.021382    4.903218    0.608862
     66          1           0       -4.439834    3.804227   -1.919807
     67          1           0       -5.309959    2.292922   -1.631911
     68          1           0       -4.346692    2.398213   -2.994043
     69          1           0       -5.052966   -0.003911   -1.702695
     70          1           0        9.335361   -0.679223   -0.333235
     71          1           0       10.189074   -0.623980   -2.170422
     72          1           0       -3.848479   -2.875800    3.406583
     73          1           0       -5.798224   -1.395636   -2.544012
     74          1           0       -5.107358   -5.474793   -0.625388
     75          1           0       -4.133687   -5.859163   -2.030204
     76          1           0       -3.194213   -5.902655   -0.342881
     77          1           0       -1.682966    8.011238    1.241128
     78          1           0       -7.508509   -3.496615   -3.296616
     79          1           0       -6.075634   -4.595279   -2.541606
 ---------------------------------------------------------------------

 SCF Done:  E(RB3LYP) =  -1947.81670141     A.U. after   18 cycles

 Excitation energies and oscillator strengths:

 Excited State   1:      Singlet-A      1.8957 eV  654.03 nm  f=0.2725  <S**2>=0.000
     154 ->156         0.15067
     155 ->156         0.67878
     155 <-156        -0.10680
 This state for optimization and/or second-order correction.
 Total Energy, E(TD-HF/TD-DFT) =  -1947.74703540
 Copying the excited state density for this state as the 1-particle RhoCI density.

 The electronic state is 1-A.
 Alpha  occ. eigenvalues --  -19.18226 -19.16961 -19.13267 -19.11428 -19.10854
 Alpha  occ. eigenvalues --  -19.10778 -14.37939 -14.36911 -14.36586 -14.28561
 Alpha  occ. eigenvalues --  -10.33126 -10.30113 -10.29847 -10.26434 -10.26157
 Alpha  occ. eigenvalues --  -10.24665 -10.24402 -10.23067 -10.23046 -10.22924
 Alpha  occ. eigenvalues --  -10.22428 -10.22212 -10.22195 -10.22001 -10.21952
 Alpha  occ. eigenvalues --  -10.21860 -10.21723 -10.21663 -10.21427 -10.21258
 Alpha  occ. eigenvalues --  -10.21223 -10.20479 -10.20478 -10.20356 -10.20331
 Alpha  occ. eigenvalues --  -10.20170 -10.19927 -10.19818 -10.19620 -10.19380
 Alpha  occ. eigenvalues --  -10.19255 -10.17636 -10.17594  -1.11203  -1.08504
 Alpha  occ. eigenvalues --   -1.02068  -1.02054  -1.00877  -0.99992  -0.99844
 Alpha  occ. eigenvalues --   -0.99179  -0.94705  -0.88227  -0.83771  -0.83039
 Alpha  occ. eigenvalues --   -0.82654  -0.82020  -0.80242  -0.79917  -0.78722
 Alpha  occ. eigenvalues --   -0.77861  -0.77184  -0.75992  -0.74095  -0.72988
 Alpha  occ. eigenvalues --   -0.72261  -0.71285  -0.69936  -0.69784  -0.68574
 Alpha  occ. eigenvalues --   -0.67570  -0.66260  -0.64318  -0.61440  -0.61114
 Alpha  occ. eigenvalues --   -0.60969  -0.59880  -0.58265  -0.57997  -0.57534
 Alpha  occ. eigenvalues --   -0.56928  -0.56255  -0.55508  -0.54447  -0.52901
 Alpha  occ. eigenvalues --   -0.52554  -0.52133  -0.50812  -0.49960  -0.49618
 Alpha  occ. eigenvalues --   -0.48997  -0.48643  -0.48200  -0.47769  -0.47558
 Alpha  occ. eigenvalues --   -0.47189  -0.46830  -0.46599  -0.46217  -0.46052
 Alpha  occ. eigenvalues --   -0.45609  -0.45509  -0.44695  -0.44276  -0.43809
 Alpha  occ. eigenvalues --   -0.43601  -0.43094  -0.43046  -0.42576  -0.42560
 Alpha  occ. eigenvalues --   -0.42159  -0.41995  -0.41857  -0.41797  -0.41500
 Alpha  occ. eigenvalues --   -0.41450  -0.40564  -0.40521  -0.40179  -0.39962
 Alpha  occ. eigenvalues --   -0.39548  -0.39301  -0.39034  -0.38909  -0.38631
 Alpha  occ. eigenvalues --   -0.38610  -0.38313  -0.38138  -0.37719  -0.37100
 Alpha  occ. eigenvalues --   -0.36405  -0.36148  -0.35493  -0.35296  -0.34098
 Alpha  occ. eigenvalues --   -0.33341  -0.33066  -0.32979  -0.32658  -0.32614
 Alpha  occ. eigenvalues --   -0.31564  -0.31011  -0.28886  -0.28679  -0.27012
 Alpha  occ. eigenvalues --   -0.26798  -0.26601  -0.26430  -0.26218  -0.25113
 Alpha  occ. eigenvalues --   -0.24913  -0.24279  -0.23289  -0.22120  -0.19359
 Alpha virt. eigenvalues --   -0.11494  -0.06756  -0.05526  -0.01369   0.00022
 Alpha virt. eigenvalues --    0.00797   0.01310   0.02353   0.02571   0.03220
 Alpha virt. eigenvalues --    0.03624   0.04279   0.04596   0.04799   0.05263

 Mulliken charges:
               1
     1  O   -0.220752
     2  O   -0.170815
     3  O   -0.237839
     4  O   -0.138757
     5  O   -0.270326
     6  O   -0.192388
     7  N   -0.002717
     8  N   -0.226718
     9  N   -0.089892
    10  N   -0.458579
    11  C    0.012447
    12  C    0.330553
    13  C   -0.171864
    14  C   -0.091065
    15  C   -0.118957
    16  C    0.011356
    17  C   -0.163915
    18  C    0.271053
    19  C   -0.016923
    20  C   -0.057145
    21  C    0.035153
    22  C    0.201932
    23  C   -0.077325
    24  C    0.111349
    25  C    0.051199
    26  C   -0.158237
    27  C    0.012699
    28  C    0.106391
    29  C    0.135825
    30  C   -0.027288
    31  C    0.064701
    32  C    0.149241
    33  C   -0.170254
    34  C    0.113309
    35  C    0.115040
    36  C   -0.125409
    37  C    0.096829
    38  C    0.059258
    39  C   -0.194131
    40  C    0.208116
    41  C   -0.016303
    42  C    0.007612
    43  C   -0.080229
    44  H    0.042008
    45  H    0.004079
    46  H   -0.085557
    47  H    0.072214
    48  H    0.154754
    49  H   -0.087749
    50  H    0.037824
    51  H   -0.017633
    52  H    0.012236
    53  H    0.012816
    54  H    0.025379
    55  H    0.019295
    56  H    0.044257
    57  H    0.037258
    58  H   -0.004606
    59  H    0.024739
    60  H    0.223926
    61  H   -0.004241
    62  H    0.030359
    63  H    0.038879
    64  H    0.051715
    65  H    0.023420
    66  H    0.007943
    67  H    0.006448
    68  H    0.021737
    69  H    0.037039
    70  H    0.028091
    71  H    0.059728
    72  H    0.180532
    73  H    0.038240
    74  H    0.030098
    75  H    0.038333
    76  H    0.060017
    77  H    0.139837
    78  H    0.060101
    79  H    0.020248
 Sum of Mulliken charges =  -0.00000

 Dipole moment (field-independent basis, Debye):
    X=              0.1139    Y=              2.7576    Z=              2.9884  Tot=              4.0679
 Quadrupole moment (field-independent basis, Debye-Ang):
   XX=           -220.0392   YY=           -253.8452   ZZ=           -265.9321
   XY=             -6.7034   XZ=             32.8562   YZ=              3.3377

 Normal termination of Gaussian 16 at Fri Oct  4 12:26:56 2019.
