 Gaussian 16, Revision A.03,
 Gaussian 16:  ES64L-G16RevA.03 25-Dec-2016

 --------------------------
 # td=(NStates=1) B3LYP/SVP
 --------------------------

 --
 TD
 --
 Symbolic Z-matrix:
 Charge =  0 Multiplicity = 1

                         Standard orientation:
 ---------------------------------------------------------------------
 Center     Atomic      Atomic             Coordinates (Angstroms)
 Number     Number       Type             X           Y           Z
 ---------------------------------------------------------------------
      1          8           0        5.278536   -0.095312   -3.301377
      2          8           0       -3.259349   -2.765702    3.097522
      3          8           0       -3.386755   -0.588229    2.862941
      4          8           0       -1.827192    7.206071    1.500359
      5          8           0       -0.541651    7.079521   -0.397149
      6          8           0       -1.969568   -4.078951    0.143467
      7          7           0        2.470100    0.857141    0.679544
      8          7           0        4.300383   -0.649366   -1.215894
      9          7           0       -1.793264    0.622303   -0.369717
     10          7           0       -2.559720   -1.894462   -0.489814
     11          6           0        4.871797   -1.257045    0.027109
     12          6           0        4.475674   -0.443127    1.343829
     13          6           0        3.053249   -0.131553    1.375211
     14          6           0        1.911768   -0.788414    2.131788
     15          6           0        0.807578   -0.113989    1.791493
     16          6           0        1.108190    0.949618    0.858746
     17          6           0        6.339398   -1.325872   -0.140886
     18          6           0       -0.495034   -0.266048    2.515871
     19          6           0        6.611693   -0.703948   -1.349299
     20          6           0        0.185532    1.935373    0.202277
     21          6           0       -1.027729    1.810777   -0.264890
     22          6           0        5.379210   -0.369871   -2.121446
     23          6           0       -1.837882    2.872465   -0.871289
     24          6           0        2.259998   -1.836028    3.241981
     25          6           0        7.168496   -2.038365    0.875741
     26          6           0       -2.948796    2.287817   -1.371949
     27          6           0       -1.320735   -1.674579    2.498595
     28          6           0       -2.916524    0.884166   -0.981690
     29          6           0       -1.338720    4.332823   -0.912784
     30          6           0        7.847489   -0.650029   -2.035862
     31          6           0       -1.638972    5.028532    0.442334
     32          6           0       -4.287869    2.980351   -1.927661
     33          6           0       -3.900460   -0.011518   -1.352323
     34          6           0       -2.666827   -1.560738    2.813241
     35          6           0       -3.641187   -1.500834   -1.121307
     36          6           0        9.104800   -0.737958   -1.630697
     37          6           0       -1.345757    6.450097    0.428646
     38          6           0       -4.571176   -2.587435   -1.533430
     39          6           0       -4.013888   -3.700922   -1.110118
     40          6           0       -2.776054   -3.287721   -0.365424
     41          6           0       -5.873017   -2.309084   -2.151072
     42          6           0       -4.404443   -5.133456   -1.018024
     43          6           0       -6.667185   -3.205206   -2.687653
     44          1           0        4.432686   -2.303146    0.207825
     45          1           0        5.064441    0.458939    1.311387
     46          1           0        4.762649   -1.051493    2.205024
     47          1           0        2.669462    1.370703   -0.127496
     48          1           0        3.164910   -0.810079   -1.476305
     49          1           0       -0.176397    0.142305    3.624047
     50          1           0       -1.466664    0.204242    2.141359
     51          1           0        0.648360    2.759443   -0.104380
     52          1           0        3.430270   -2.309566    3.199918
     53          1           0        1.944771   -1.394107    4.184265
     54          1           0        1.568319   -2.693744    3.050188
     55          1           0        6.730975   -3.154060    1.314389
     56          1           0        7.428674   -1.412895    1.792781
     57          1           0        8.103505   -2.470896    0.393353
     58          1           0       -1.112288   -1.907515    1.434650
     59          1           0       -0.786283   -2.238950    3.095038
     60          1           0       -1.605800   -0.311110   -0.190171
     61          1           0       -2.080743    4.794467   -1.633211
     62          1           0       -0.399116    4.624217   -1.236825
     63          1           0        7.680565   -0.495415   -3.132724
     64          1           0       -0.778202    4.657623    1.223853
     65          1           0       -2.658868    4.752299    0.849722
     66          1           0       -3.731392    3.917051   -2.698519
     67          1           0       -4.948811    3.196177   -1.111577
     68          1           0       -4.659901    2.271647   -2.784644
     69          1           0       -4.827884    0.228074   -1.795068
     70          1           0        9.320973   -0.745491   -0.723751
     71          1           0       10.021963   -0.665417   -2.264175
     72          1           0       -4.129464   -2.554842    3.365217
     73          1           0       -6.478648   -1.272650   -2.000240
     74          1           0       -5.488416   -5.243588   -0.695978
     75          1           0       -4.366100   -5.567395   -1.928371
     76          1           0       -3.660118   -5.743356   -0.324560
     77          1           0       -1.309417    8.059563    1.430451
     78          1           0       -7.786352   -2.783273   -2.972681
     79          1           0       -6.512021   -4.305934   -2.692072
 ---------------------------------------------------------------------

 SCF Done:  E(RB3LYP) =  -1947.78546796     A.U. after   17 cycles

 Excitation energies and oscillator strengths:

 Excited State   1:      Singlet-A      2.0813 eV  595.72 nm  f=0.4227  <S**2>=0.000
     155 ->156         0.70428
 This state for optimization and/or second-order correction.
 Total Energy, E(TD-HF/TD-DFT) =  -1947.70898302
 Copying the excited state density for this state as the 1-particle RhoCI density.

 The electronic state is 1-A.
 Alpha  occ. eigenvalues --  -19.18778 -19.15752 -19.12922 -19.11637 -19.11187
 Alpha  occ. eigenvalues --  -19.11155 -14.39168 -14.36598 -14.36186 -14.30116
 Alpha  occ. eigenvalues --  -10.33553 -10.30616 -10.29561 -10.27112 -10.25268
 Alpha  occ. eigenvalues --  -10.24184 -10.24058 -10.23895 -10.23807 -10.23667
 Alpha  occ. eigenvalues --  -10.23495 -10.23466 -10.22981 -10.22939 -10.21793
 Alpha  occ. eigenvalues --  -10.21752 -10.21738 -10.21613 -10.21320 -10.21240
 Alpha  occ. eigenvalues --  -10.21015 -10.20752 -10.20702 -10.20449 -10.20233
 Alpha  occ. eigenvalues --  -10.19925 -10.19715 -10.19363 -10.19023 -10.19013
 Alpha  occ. eigenvalues --  -10.18929 -10.17964 -10.17877  -1.08851  -1.07296
 Alpha  occ. eigenvalues --   -1.02799  -1.01284  -0.99930  -0.99622  -0.98939
 Alpha  occ. eigenvalues --   -0.96436  -0.93292  -0.92576  -0.83852  -0.82136
 Alpha  occ. eigenvalues --   -0.81857  -0.81688  -0.81446  -0.79754  -0.79200
 Alpha  occ. eigenvalues --   -0.78109  -0.77039  -0.76505  -0.74822  -0.72051
 Alpha  occ. eigenvalues --   -0.71235  -0.70717  -0.70397  -0.69380  -0.68873
 Alpha  occ. eigenvalues --   -0.67040  -0.65953  -0.64385  -0.61549  -0.60669
 Alpha  occ. eigenvalues --   -0.59778  -0.59376  -0.58093  -0.57703  -0.57250
 Alpha  occ. eigenvalues --   -0.57116  -0.55852  -0.54808  -0.53732  -0.53447
 Alpha  occ. eigenvalues --   -0.52468  -0.51905  -0.51357  -0.51073  -0.50310
 Alpha  occ. eigenvalues --   -0.49708  -0.48919  -0.48303  -0.47849  -0.47672
 Alpha  occ. eigenvalues --   -0.47602  -0.47054  -0.46666  -0.46319  -0.46098
 Alpha  occ. eigenvalues --   -0.45708  -0.44848  -0.44674  -0.44366  -0.43849
 Alpha  occ. eigenvalues --   -0.43661  -0.43468  -0.43150  -0.42680  -0.42406
 Alpha  occ. eigenvalues --   -0.42247  -0.41854  -0.41611  -0.41468  -0.41346
 Alpha  occ. eigenvalues --   -0.41078  -0.40777  -0.40057  -0.40008  -0.39926
 Alpha  occ. eigenvalues --   -0.39703  -0.39555  -0.39127  -0.38630  -0.38302
 Alpha  occ. eigenvalues --   -0.38189  -0.38031  -0.37570  -0.37451  -0.36469
 Alpha  occ. eigenvalues --   -0.35828  -0.35605  -0.34580  -0.34390  -0.34006
 Alpha  occ. eigenvalues --   -0.33899  -0.33455  -0.32427  -0.31965  -0.31139
 Alpha  occ. eigenvalues --   -0.31015  -0.30114  -0.29687  -0.28945  -0.28002
 Alpha  occ. eigenvalues --   -0.27364  -0.27203  -0.26993  -0.26287  -0.25552
 Alpha  occ. eigenvalues --   -0.25147  -0.24343  -0.24078  -0.22810  -0.18734
 Alpha virt. eigenvalues --   -0.10384  -0.06922  -0.05984  -0.03426  -0.00582
 Alpha virt. eigenvalues --    0.00375   0.00508   0.00684   0.01685   0.02306
 Alpha virt. eigenvalues --    0.02861   0.03579   0.03838   0.04503   0.05058

 Mulliken charges:
               1
     1  O   -0.205286
     2  O   -0.177358
     3  O   -0.238373
     4  O   -0.222562
     5  O   -0.326218
     6  O   -0.214130
     7  N    0.026452
     8  N   -0.319915
     9  N    0.014735
    10  N   -0.273962
    11  C    0.032393
    12  C    0.254407
    13  C   -0.133278
    14  C   -0.118825
    15  C   -0.062812
    16  C   -0.044310
    17  C   -0.081022
    18  C   -0.113786
    19  C   -0.058165
    20  C   -0.054184
    21  C    0.176885
    22  C    0.209514
    23  C   -0.062564
    24  C    0.048624
    25  C   -0.021988
    26  C   -0.170423
    27  C    0.101573
    28  C    0.130664
    29  C    0.138472
    30  C   -0.044944
    31  C   -0.032502
    32  C    0.000845
    33  C   -0.098330
    34  C    0.134552
    35  C    0.015814
    36  C    0.051766
    37  C    0.182584
    38  C    0.075171
    39  C   -0.192776
    40  C    0.153190
    41  C   -0.051663
    42  C    0.104116
    43  C   -0.092060
    44  H    0.028009
    45  H   -0.021094
    46  H   -0.005567
    47  H    0.100963
    48  H    0.194505
    49  H    0.035644
    50  H    0.043070
    51  H   -0.078162
    52  H    0.045797
    53  H    0.029447
    54  H    0.039993
    55  H    0.046540
    56  H    0.063862
    57  H    0.047517
    58  H    0.092297
    59  H   -0.027527
    60  H    0.096566
    61  H    0.011228
    62  H    0.013468
    63  H    0.018876
    64  H    0.085695
    65  H    0.062350
    66  H    0.055570
    67  H    0.066004
    68  H    0.055442
    69  H   -0.050487
    70  H   -0.072932
    71  H    0.031489
    72  H    0.151459
    73  H    0.046179
    74  H    0.028979
    75  H   -0.004448
    76  H    0.057916
    77  H    0.202271
    78  H    0.042179
    79  H    0.026580
 Sum of Mulliken charges =  -0.00000

 Dipole moment (field-independent basis, Debye):
    X=              0.3080    Y=              0.3095    Z=              3.0756  Tot=              3.1065
 Quadrupole moment (field-independent basis, Debye-Ang):
   XX=           -217.4903   YY=           -259.5938   ZZ=           -264.6851
   XY=             -8.8206   XZ=             32.7006   YZ=              5.1329

 Normal termination of Gaussian 16 at Fri Sep 13 17:40:10 2019.
