 Gaussian 16, Revision A.03,
 Gaussian 16:  ES64L-G16RevA.03 25-Dec-2016

 --------------------------
 # td=(NStates=1) B3LYP/SVP
 --------------------------

 --
 TD
 --
 Symbolic Z-matrix:
 Charge =  0 Multiplicity = 1

                         Standard orientation:
 ---------------------------------------------------------------------
 Center     Atomic      Atomic             Coordinates (Angstroms)
 Number     Number       Type             X           Y           Z
 ---------------------------------------------------------------------
      1          8           0       -3.192223   -2.030864   -2.707520
      2          8           0        2.971380    3.515186    2.768669
      3          8           0        3.580306    1.948061    4.234435
      4          8           0        7.660195   -1.676485   -0.401500
      5          8           0        6.593822   -3.291623   -1.491068
      6          8           0       -2.594614    1.737785    1.241108
      7          7           0       -0.334282   -2.165869    1.257152
      8          7           0       -2.663409   -1.415869   -0.545343
      9          7           0        1.209626   -0.019348   -0.748227
     10          7           0       -0.976173    1.442717   -0.457448
     11          6           0       -3.349443   -1.161477    0.756423
     12          6           0       -2.698907   -1.991811    1.914138
     13          6           0       -1.273711   -1.637421    2.033074
     14          6           0       -0.631220   -0.707924    2.890350
     15          6           0        0.719541   -0.703728    2.612042
     16          6           0        0.857143   -1.649465    1.475125
     17          6           0       -4.670838   -1.778747    0.472793
     18          6           0        1.876587    0.055773    3.306184
     19          6           0       -4.737027   -2.226805   -0.827338
     20          6           0        1.983583   -1.771069    0.469143
     21          6           0        2.149156   -1.006185   -0.605892
     22          6           0       -3.499177   -1.863144   -1.482747
     23          6           0        3.036514   -0.919673   -1.656721
     24          6           0       -1.401135    0.157895    3.937809
     25          6           0       -5.796829   -1.681957    1.480181
     26          6           0        2.531814    0.058263   -2.567386
     27          6           0        1.943471    1.423642    2.549609
     28          6           0        1.420253    0.686013   -1.900128
     29          6           0        4.222843   -1.775437   -1.871222
     30          6           0       -5.795194   -2.829452   -1.602581
     31          6           0        5.341208   -1.312640   -0.983719
     32          6           0        3.051052    0.378850   -3.839070
     33          6           0        0.616197    1.716417   -2.373575
     34          6           0        2.938653    2.243705    3.285831
     35          6           0       -0.563786    2.101613   -1.543127
     36          6           0       -6.843218   -3.576603   -1.152870
     37          6           0        6.605566   -2.243234   -1.016312
     38          6           0       -1.411331    3.291412   -1.785044
     39          6           0       -2.215891    3.372749   -0.651709
     40          6           0       -1.963230    2.178260    0.148013
     41          6           0       -1.161048    4.279919   -2.724312
     42          6           0       -3.256563    4.363276   -0.323615
     43          6           0       -1.801102    5.479803   -2.969247
     44          1           0       -3.432362   -0.167687    1.095202
     45          1           0       -2.688618   -3.106245    1.791234
     46          1           0       -3.345563   -1.891922    2.801933
     47          1           0       -0.476542   -2.791090    0.429720
     48          1           0       -1.944695   -0.703496   -0.655805
     49          1           0        1.716702    0.097441    4.349660
     50          1           0        2.720383   -0.509851    3.025965
     51          1           0        2.751640   -2.548538    0.767509
     52          1           0       -2.092030   -0.212691    4.588953
     53          1           0       -0.635576    0.583237    4.609101
     54          1           0       -1.886021    0.858932    3.324284
     55          1           0       -5.811522   -0.775291    2.090502
     56          1           0       -5.687081   -2.479745    2.102243
     57          1           0       -6.800730   -1.854601    0.852750
     58          1           0        2.003332    1.298368    1.489215
     59          1           0        0.887450    1.926054    2.827644
     60          1           0        0.311109    0.488049   -0.221449
     61          1           0        4.665571   -1.659532   -2.898295
     62          1           0        3.842650   -2.861376   -1.658306
     63          1           0       -5.671531   -2.540297   -2.576217
     64          1           0        5.008698   -1.055008    0.154319
     65          1           0        5.734885   -0.418261   -1.366592
     66          1           0        3.821956   -0.406264   -4.330319
     67          1           0        3.601997    1.492779   -3.786138
     68          1           0        2.351266    0.420715   -4.523915
     69          1           0        0.950426    2.207565   -3.289388
     70          1           0       -7.083828   -3.767727   -0.041326
     71          1           0       -7.780559   -3.784900   -1.779621
     72          1           0        3.527142    4.082739    3.400102
     73          1           0       -0.298069    4.068941   -3.641638
     74          1           0       -4.136345    4.521804   -1.134565
     75          1           0       -3.647166    3.970234    0.402610
     76          1           0       -2.843911    5.381830   -0.121314
     77          1           0        8.433019   -2.214711   -0.578353
     78          1           0       -1.669557    6.317652   -3.735518
     79          1           0       -2.541364    5.820098   -2.184716
 ---------------------------------------------------------------------

 SCF Done:  E(RB3LYP) =  -1947.84425945     A.U. after   23 cycles

 Excitation energies and oscillator strengths:

 Excited State   1:      Singlet-A      0.6302 eV 1967.24 nm  f=0.0015  <S**2>=0.000
     155 ->156         0.70290
 This state for optimization and/or second-order correction.
 Total Energy, E(TD-HF/TD-DFT) =  -1947.82109843
 Copying the excited state density for this state as the 1-particle RhoCI density.

 The electronic state is 1-A.
 Alpha  occ. eigenvalues --  -19.19047 -19.16752 -19.14115 -19.12410 -19.12409
 Alpha  occ. eigenvalues --  -19.06965 -14.37555 -14.36252 -14.33105 -14.32694
 Alpha  occ. eigenvalues --  -10.32778 -10.30973 -10.29377 -10.26776 -10.25840
 Alpha  occ. eigenvalues --  -10.25759 -10.24700 -10.23305 -10.23037 -10.22347
 Alpha  occ. eigenvalues --  -10.22334 -10.22316 -10.22230 -10.22223 -10.22098
 Alpha  occ. eigenvalues --  -10.22037 -10.22027 -10.21745 -10.21436 -10.20696
 Alpha  occ. eigenvalues --  -10.20366 -10.20295 -10.19747 -10.19263 -10.19252
 Alpha  occ. eigenvalues --  -10.19225 -10.19143 -10.18270 -10.18242 -10.17859
 Alpha  occ. eigenvalues --  -10.17227 -10.16526 -10.16009  -1.12457  -1.08804
 Alpha  occ. eigenvalues --   -1.04058  -1.00376  -0.99923  -0.99523  -0.98843
 Alpha  occ. eigenvalues --   -0.98358  -0.93781  -0.91244  -0.84439  -0.83449
 Alpha  occ. eigenvalues --   -0.82793  -0.80527  -0.79975  -0.79264  -0.78687
 Alpha  occ. eigenvalues --   -0.77588  -0.76088  -0.75686  -0.74291  -0.73542
 Alpha  occ. eigenvalues --   -0.71758  -0.70252  -0.69794  -0.69069  -0.68247
 Alpha  occ. eigenvalues --   -0.67188  -0.66403  -0.63990  -0.61969  -0.61341
 Alpha  occ. eigenvalues --   -0.60313  -0.60222  -0.57987  -0.57600  -0.56571
 Alpha  occ. eigenvalues --   -0.55977  -0.55800  -0.55498  -0.53794  -0.53632
 Alpha  occ. eigenvalues --   -0.52457  -0.51575  -0.51281  -0.50701  -0.49942
 Alpha  occ. eigenvalues --   -0.49466  -0.49048  -0.48693  -0.48038  -0.47869
 Alpha  occ. eigenvalues --   -0.47553  -0.47156  -0.46980  -0.46644  -0.46171
 Alpha  occ. eigenvalues --   -0.45534  -0.45238  -0.45043  -0.44294  -0.44142
 Alpha  occ. eigenvalues --   -0.43741  -0.43541  -0.43131  -0.42797  -0.42433
 Alpha  occ. eigenvalues --   -0.42304  -0.42097  -0.41647  -0.41198  -0.41077
 Alpha  occ. eigenvalues --   -0.40882  -0.40415  -0.40244  -0.40175  -0.39900
 Alpha  occ. eigenvalues --   -0.39562  -0.39341  -0.38973  -0.38685  -0.38363
 Alpha  occ. eigenvalues --   -0.37645  -0.37069  -0.36828  -0.36374  -0.36003
 Alpha  occ. eigenvalues --   -0.35919  -0.35599  -0.35172  -0.34825  -0.34570
 Alpha  occ. eigenvalues --   -0.34112  -0.33996  -0.33037  -0.32598  -0.31815
 Alpha  occ. eigenvalues --   -0.31680  -0.30130  -0.29649  -0.29343  -0.29243
 Alpha  occ. eigenvalues --   -0.28174  -0.26554  -0.26151  -0.24532  -0.24043
 Alpha  occ. eigenvalues --   -0.23129  -0.22897  -0.22633  -0.22085  -0.18423
 Alpha virt. eigenvalues --   -0.13662  -0.08899  -0.04137  -0.02970   0.00382
 Alpha virt. eigenvalues --    0.00900   0.01890   0.02041   0.03009   0.03475
 Alpha virt. eigenvalues --    0.03570   0.04164   0.05062   0.05302   0.05323

 Mulliken charges:
               1
     1  O   -0.301997
     2  O   -0.235885
     3  O   -0.195894
     4  O   -0.174312
     5  O   -0.151411
     6  O   -0.310810
     7  N    0.036719
     8  N   -0.167758
     9  N   -0.174223
    10  N   -0.287948
    11  C    0.093345
    12  C    0.181163
    13  C   -0.132690
    14  C   -0.123902
    15  C   -0.181785
    16  C   -0.088229
    17  C   -0.194678
    18  C    0.219121
    19  C   -0.043429
    20  C   -0.216843
    21  C    0.236831
    22  C    0.133794
    23  C   -0.065897
    24  C    0.152186
    25  C    0.110676
    26  C   -0.096151
    27  C   -0.063456
    28  C    0.076201
    29  C    0.121691
    30  C    0.046428
    31  C   -0.061328
    32  C    0.059074
    33  C   -0.061675
    34  C    0.148553
    35  C    0.094408
    36  C   -0.079144
    37  C    0.107727
    38  C    0.111176
    39  C   -0.207971
    40  C    0.221721
    41  C   -0.096849
    42  C    0.189639
    43  C   -0.074348
    44  H    0.031545
    45  H   -0.015059
    46  H   -0.010257
    47  H    0.131465
    48  H    0.133604
    49  H    0.007998
    50  H   -0.023798
    51  H    0.026719
    52  H   -0.023898
    53  H   -0.013140
    54  H    0.019863
    55  H    0.027879
    56  H    0.004013
    57  H    0.044546
    58  H    0.030801
    59  H    0.072607
    60  H    0.260612
    61  H    0.006973
    62  H    0.051069
    63  H   -0.021853
    64  H    0.069623
    65  H    0.009577
    66  H    0.041612
    67  H    0.054052
    68  H   -0.005887
    69  H   -0.014242
    70  H    0.026933
    71  H    0.033587
    72  H    0.190374
    73  H    0.037625
    74  H    0.049720
    75  H   -0.077337
    76  H    0.042998
    77  H    0.173238
    78  H    0.055948
    79  H    0.018646
 Sum of Mulliken charges =  -0.00000

 Dipole moment (field-independent basis, Debye):
    X=              3.9607    Y=              4.0956    Z=             -1.3476  Tot=              5.8547
 Quadrupole moment (field-independent basis, Debye-Ang):
   XX=           -230.5830   YY=           -241.7272   ZZ=           -261.7184
   XY=             -6.4238   XZ=            -27.6675   YZ=            -20.2734

 Normal termination of Gaussian 16 at Sun Jul 28 07:49:23 2019.
