 Gaussian 16, Revision A.03,
 Gaussian 16:  ES64L-G16RevA.03 25-Dec-2016

 --------------------------
 # td=(NStates=1) B3LYP/SVP
 --------------------------

 --
 TD
 --
 Symbolic Z-matrix:
 Charge =  0 Multiplicity = 1

                         Standard orientation:
 ---------------------------------------------------------------------
 Center     Atomic      Atomic             Coordinates (Angstroms)
 Number     Number       Type             X           Y           Z
 ---------------------------------------------------------------------
      1          8           0        4.972229   -0.237890   -3.272553
      2          8           0       -3.127220   -2.948019    3.365601
      3          8           0       -3.312809   -0.629273    3.199699
      4          8           0       -0.893104    7.100538    1.601300
      5          8           0        0.007936    6.891733   -0.382088
      6          8           0       -2.041907   -3.914221    0.033808
      7          7           0        2.386502    0.670883    0.429883
      8          7           0        4.221504   -0.820213   -1.193877
      9          7           0       -1.886277    0.750673   -0.341781
     10          7           0       -2.684874   -1.815196   -0.519841
     11          6           0        4.839014   -1.498325    0.025030
     12          6           0        4.405972   -0.424469    1.237697
     13          6           0        2.912213   -0.262685    1.366374
     14          6           0        1.858701   -0.669703    2.135603
     15          6           0        0.701685   -0.067827    1.786047
     16          6           0        1.032029    0.756485    0.730989
     17          6           0        6.208427   -1.507469   -0.251660
     18          6           0       -0.578952   -0.237296    2.604190
     19          6           0        6.479112   -0.955604   -1.459624
     20          6           0        0.252987    1.832333    0.089497
     21          6           0       -1.077826    1.906000   -0.284576
     22          6           0        5.199226   -0.692475   -2.109059
     23          6           0       -1.839185    3.013973   -0.886264
     24          6           0        2.111244   -1.732170    3.294390
     25          6           0        7.058606   -2.156656    0.760017
     26          6           0       -3.043335    2.563130   -1.263633
     27          6           0       -1.154595   -1.675130    2.740299
     28          6           0       -3.113709    1.085752   -0.959919
     29          6           0       -1.386090    4.395142   -0.851048
     30          6           0        7.803715   -0.800969   -2.200372
     31          6           0       -1.620030    5.155906    0.405135
     32          6           0       -4.107899    3.301863   -2.050968
     33          6           0       -4.002650    0.096303   -1.197822
     34          6           0       -2.652652   -1.750613    3.152742
     35          6           0       -3.818741   -1.278455   -1.054278
     36          6           0        9.026351   -0.857341   -1.638446
     37          6           0       -0.790596    6.454251    0.468003
     38          6           0       -4.737917   -2.386011   -1.557814
     39          6           0       -4.072124   -3.602915   -1.166639
     40          6           0       -2.875343   -3.166616   -0.388322
     41          6           0       -6.011048   -2.143920   -2.174063
     42          6           0       -4.429842   -5.025384   -1.219221
     43          6           0       -6.688289   -3.123580   -2.931703
     44          1           0        4.570959   -2.480986    0.299206
     45          1           0        4.962795    0.367206    0.987155
     46          1           0        4.997511   -0.789198    2.177890
     47          1           0        2.924450    1.040828   -0.267756
     48          1           0        3.224418   -1.013667   -1.492395
     49          1           0       -0.282845    0.366873    3.563522
     50          1           0       -1.202242    0.470865    2.089220
     51          1           0        0.848892    2.546757   -0.362991
     52          1           0        3.197776   -1.753452    3.774028
     53          1           0        1.310723   -1.840249    4.165052
     54          1           0        1.917961   -2.840790    2.813666
     55          1           0        6.497073   -2.972140    1.229080
     56          1           0        7.589990   -1.671072    1.681247
     57          1           0        8.136520   -2.499344    0.518901
     58          1           0       -0.971646   -2.263294    1.763317
     59          1           0       -0.657440   -2.211396    3.354256
     60          1           0       -1.770535   -0.226821   -0.049996
     61          1           0       -1.953153    5.002966   -1.595830
     62          1           0       -0.309371    4.401122   -1.093895
     63          1           0        7.745563   -0.114525   -3.060748
     64          1           0       -1.348439    4.633901    1.404796
     65          1           0       -2.641142    5.434874    0.517535
     66          1           0       -3.818336    4.266624   -2.237783
     67          1           0       -5.017330    3.446254   -1.497420
     68          1           0       -4.446637    2.807460   -2.980903
     69          1           0       -4.888936    0.474160   -1.912668
     70          1           0        9.187523   -1.453511   -0.684145
     71          1           0        9.968849   -0.601813   -2.406024
     72          1           0       -3.964218   -2.625682    3.713630
     73          1           0       -6.585450   -1.015795   -2.115365
     74          1           0       -5.388614   -5.390514   -0.760300
     75          1           0       -4.430672   -5.624745   -2.412081
     76          1           0       -3.635781   -5.486677   -0.644931
     77          1           0       -0.286977    7.893399    1.672974
     78          1           0       -7.722165   -2.955753   -3.106146
     79          1           0       -6.188819   -4.201013   -2.934406
 ---------------------------------------------------------------------

 SCF Done:  E(RB3LYP) =  -1947.82195985     A.U. after   16 cycles

 Excitation energies and oscillator strengths:

 Excited State   1:      Singlet-A      1.9835 eV  625.09 nm  f=0.3686  <S**2>=0.000
     154 ->156        -0.25740
     155 ->156         0.65407
 This state for optimization and/or second-order correction.
 Total Energy, E(TD-HF/TD-DFT) =  -1947.74906898
 Copying the excited state density for this state as the 1-particle RhoCI density.

 The electronic state is 1-A.
 Alpha  occ. eigenvalues --  -19.20397 -19.19205 -19.12175 -19.11426 -19.10048
 Alpha  occ. eigenvalues --  -19.08943 -14.37517 -14.36211 -14.36034 -14.28647
 Alpha  occ. eigenvalues --  -10.32718 -10.32272 -10.28020 -10.25669 -10.24956
 Alpha  occ. eigenvalues --  -10.24874 -10.24562 -10.23640 -10.23405 -10.23066
 Alpha  occ. eigenvalues --  -10.22528 -10.22506 -10.22465 -10.22288 -10.22199
 Alpha  occ. eigenvalues --  -10.21978 -10.21584 -10.21473 -10.21279 -10.21223
 Alpha  occ. eigenvalues --  -10.21186 -10.21042 -10.20863 -10.20753 -10.20155
 Alpha  occ. eigenvalues --  -10.20143 -10.20122 -10.19904 -10.19805 -10.19520
 Alpha  occ. eigenvalues --  -10.19299 -10.19129 -10.18756  -1.12086  -1.10791
 Alpha  occ. eigenvalues --   -1.02575  -1.00766  -0.98819  -0.98317  -0.96530
 Alpha  occ. eigenvalues --   -0.96487  -0.93366  -0.91155  -0.84111  -0.83233
 Alpha  occ. eigenvalues --   -0.82330  -0.80951  -0.79260  -0.79171  -0.78601
 Alpha  occ. eigenvalues --   -0.77338  -0.76496  -0.75286  -0.74019  -0.72969
 Alpha  occ. eigenvalues --   -0.72597  -0.70986  -0.69359  -0.68646  -0.68181
 Alpha  occ. eigenvalues --   -0.68088  -0.66130  -0.64138  -0.61871  -0.61037
 Alpha  occ. eigenvalues --   -0.59973  -0.59733  -0.58870  -0.58560  -0.57748
 Alpha  occ. eigenvalues --   -0.56227  -0.55633  -0.55064  -0.54346  -0.53228
 Alpha  occ. eigenvalues --   -0.52323  -0.51554  -0.51037  -0.50851  -0.50244
 Alpha  occ. eigenvalues --   -0.50103  -0.49001  -0.48124  -0.47953  -0.47746
 Alpha  occ. eigenvalues --   -0.47333  -0.47100  -0.46725  -0.46439  -0.45558
 Alpha  occ. eigenvalues --   -0.44947  -0.44650  -0.44229  -0.44043  -0.43582
 Alpha  occ. eigenvalues --   -0.43192  -0.42995  -0.42806  -0.42484  -0.42290
 Alpha  occ. eigenvalues --   -0.41899  -0.41495  -0.41311  -0.41204  -0.41025
 Alpha  occ. eigenvalues --   -0.40492  -0.40255  -0.40129  -0.39870  -0.39302
 Alpha  occ. eigenvalues --   -0.39080  -0.38569  -0.38519  -0.38422  -0.38382
 Alpha  occ. eigenvalues --   -0.37763  -0.37424  -0.37122  -0.36604  -0.36537
 Alpha  occ. eigenvalues --   -0.36424  -0.36090  -0.35725  -0.34661  -0.34454
 Alpha  occ. eigenvalues --   -0.34381  -0.33939  -0.33574  -0.31931  -0.31566
 Alpha  occ. eigenvalues --   -0.30636  -0.30543  -0.28111  -0.27922  -0.27148
 Alpha  occ. eigenvalues --   -0.26751  -0.26498  -0.26396  -0.25617  -0.25078
 Alpha  occ. eigenvalues --   -0.24455  -0.24266  -0.23637  -0.21264  -0.18999
 Alpha virt. eigenvalues --   -0.11059  -0.07213  -0.06595  -0.01684  -0.00568
 Alpha virt. eigenvalues --   -0.00375  -0.00249   0.01048   0.02724   0.03374
 Alpha virt. eigenvalues --    0.03889   0.04047   0.04484   0.04951   0.05193

 Mulliken charges:
               1
     1  O   -0.281336
     2  O   -0.096787
     3  O   -0.324387
     4  O   -0.164878
     5  O   -0.269039
     6  O   -0.192526
     7  N   -0.080999
     8  N   -0.203228
     9  N   -0.134606
    10  N   -0.278214
    11  C    0.056036
    12  C    0.200318
    13  C   -0.008726
    14  C   -0.093921
    15  C   -0.139427
    16  C    0.034706
    17  C   -0.077203
    18  C    0.154312
    19  C   -0.059258
    20  C   -0.054344
    21  C    0.126275
    22  C    0.131828
    23  C   -0.057543
    24  C   -0.044529
    25  C   -0.003897
    26  C   -0.110224
    27  C    0.092473
    28  C    0.086002
    29  C    0.103858
    30  C    0.034738
    31  C    0.008711
    32  C    0.172468
    33  C   -0.119800
    34  C    0.151802
    35  C    0.085316
    36  C   -0.094425
    37  C    0.111131
    38  C    0.077633
    39  C   -0.150106
    40  C    0.138098
    41  C   -0.130245
    42  C   -0.015623
    43  C   -0.037057
    44  H    0.016284
    45  H   -0.050209
    46  H    0.013272
    47  H    0.094251
    48  H    0.161190
    49  H    0.027296
    50  H   -0.014546
    51  H   -0.038685
    52  H    0.041026
    53  H    0.043662
    54  H    0.040859
    55  H    0.022135
    56  H    0.044979
    57  H    0.030969
    58  H    0.078834
    59  H   -0.061615
    60  H    0.146406
    61  H    0.016086
    62  H    0.024658
    63  H    0.028899
    64  H    0.056457
    65  H    0.022947
    66  H   -0.031988
    67  H    0.005771
    68  H    0.035458
    69  H    0.005267
    70  H    0.025796
    71  H    0.062532
    72  H    0.166454
    73  H    0.047945
    74  H    0.040983
    75  H    0.047181
    76  H    0.025791
    77  H    0.207486
    78  H    0.021451
    79  H    0.051341
 Sum of Mulliken charges =  -0.00000

 Dipole moment (field-independent basis, Debye):
    X=              0.8518    Y=              1.7922    Z=              4.8295  Tot=              5.2213
 Quadrupole moment (field-independent basis, Debye-Ang):
   XX=           -214.9679   YY=           -242.5223   ZZ=           -263.7567
   XY=            -17.1804   XZ=             31.4707   YZ=             -0.5659

 Normal termination of Gaussian 16 at Wed Sep 25 18:59:10 2019.
