 Gaussian 16, Revision A.03,
 Gaussian 16:  ES64L-G16RevA.03 25-Dec-2016

 --------------------------
 # td=(NStates=1) B3LYP/SVP
 --------------------------

 --
 TD
 --
 Symbolic Z-matrix:
 Charge =  0 Multiplicity = 1

                         Standard orientation:
 ---------------------------------------------------------------------
 Center     Atomic      Atomic             Coordinates (Angstroms)
 Number     Number       Type             X           Y           Z
 ---------------------------------------------------------------------
      1          8           0       -3.312278   -1.126440   -2.983710
      2          8           0        3.391222    2.843484    2.999240
      3          8           0        3.278691    1.186779    4.897783
      4          8           0        7.552917   -1.883153   -0.422078
      5          8           0        6.662847   -2.641311   -2.555785
      6          8           0       -2.604025    1.437116    1.576906
      7          7           0       -0.271430   -2.537412    0.655669
      8          7           0       -2.715085   -1.234761   -0.669902
      9          7           0        1.188721    0.192848   -0.809740
     10          7           0       -1.030245    1.450649   -0.130179
     11          6           0       -3.338193   -1.435683    0.520669
     12          6           0       -2.623949   -2.424927    1.428641
     13          6           0       -1.214553   -2.237991    1.595217
     14          6           0       -0.580171   -1.506586    2.662941
     15          6           0        0.799663   -1.353859    2.311115
     16          6           0        0.966438   -1.946765    0.922028
     17          6           0       -4.710354   -1.933753    0.073747
     18          6           0        1.817063   -0.717740    3.096291
     19          6           0       -4.868918   -1.904682   -1.239447
     20          6           0        2.195374   -1.861794    0.081418
     21          6           0        2.190139   -0.764204   -0.768461
     22          6           0       -3.628725   -1.377569   -1.781440
     23          6           0        3.104138   -0.490419   -1.814756
     24          6           0       -1.185811   -0.899718    3.799698
     25          6           0       -5.775451   -2.131000    1.248982
     26          6           0        2.603896    0.715205   -2.486327
     27          6           0        2.044189    0.863097    2.626565
     28          6           0        1.412299    1.164961   -1.731186
     29          6           0        4.252945   -1.252852   -2.130215
     30          6           0       -5.980150   -2.292958   -2.105984
     31          6           0        5.367721   -1.093655   -1.137502
     32          6           0        3.244911    1.472886   -3.440289
     33          6           0        0.439004    2.232546   -1.918582
     34          6           0        2.976219    1.584351    3.637967
     35          6           0       -0.649823    2.414659   -1.062155
     36          6           0       -7.029543   -2.982785   -1.763476
     37          6           0        6.646789   -1.926887   -1.521031
     38          6           0       -1.444151    3.636033   -0.876505
     39          6           0       -2.271641    3.438175    0.162571
     40          6           0       -1.984507    2.006952    0.681713
     41          6           0       -1.334829    4.712512   -1.961879
     42          6           0       -3.280563    4.290445    0.843459
     43          6           0       -1.999956    5.855293   -1.988599
     44          1           0       -3.438504   -0.758721    1.256476
     45          1           0       -2.663223   -3.378511    0.787305
     46          1           0       -3.128978   -2.439807    2.342506
     47          1           0       -0.407832   -2.903314   -0.335765
     48          1           0       -2.143445   -0.462235   -0.933804
     49          1           0        1.435020   -0.803048    4.171782
     50          1           0        2.789549   -1.371189    3.085776
     51          1           0        3.070869   -2.431245    0.092693
     52          1           0       -2.048973   -1.446112    4.246065
     53          1           0       -0.547374   -0.604950    4.700167
     54          1           0       -1.470954    0.087302    3.321380
     55          1           0       -5.718788   -1.555911    2.197651
     56          1           0       -5.570307   -3.294102    1.388209
     57          1           0       -6.723438   -2.132134    0.881369
     58          1           0        2.452691    0.805351    1.619214
     59          1           0        1.004312    1.315230    2.633432
     60          1           0        0.252802    0.189908   -0.440186
     61          1           0        4.420290   -1.025050   -3.085151
     62          1           0        4.033885   -2.259948   -2.047268
     63          1           0       -6.036056   -2.062654   -3.121332
     64          1           0        5.043547   -1.367371   -0.114699
     65          1           0        5.751981   -0.081318   -1.068501
     66          1           0        4.033030    0.832870   -3.912947
     67          1           0        3.814381    2.532367   -3.078040
     68          1           0        2.622674    1.880595   -4.495163
     69          1           0        0.859369    2.955873   -2.655528
     70          1           0       -7.189874   -3.218610   -0.739365
     71          1           0       -7.550077   -3.436375   -2.660923
     72          1           0        3.813247    3.237569    3.891080
     73          1           0       -0.676927    4.239357   -2.706500
     74          1           0       -3.997895    4.532663    0.025314
     75          1           0       -3.687666    3.822227    1.772820
     76          1           0       -2.697557    5.324549    1.007573
     77          1           0        8.272271   -2.103519   -1.074677
     78          1           0       -2.119671    6.602269   -2.796374
     79          1           0       -2.768092    6.039192   -1.365501
 ---------------------------------------------------------------------

 SCF Done:  E(RB3LYP) =  -1947.77609197     A.U. after   23 cycles

 Excitation energies and oscillator strengths:

 Excited State   1:      Singlet-A      0.7207 eV 1720.23 nm  f=0.0012  <S**2>=0.000
     155 ->156         0.70465
 This state for optimization and/or second-order correction.
 Total Energy, E(TD-HF/TD-DFT) =  -1947.74960516
 Copying the excited state density for this state as the 1-particle RhoCI density.

 The electronic state is 1-A.
 Alpha  occ. eigenvalues --  -19.21286 -19.19529 -19.16764 -19.14393 -19.11724
 Alpha  occ. eigenvalues --  -19.08992 -14.38022 -14.37232 -14.32364 -14.30206
 Alpha  occ. eigenvalues --  -10.35576 -10.34288 -10.27661 -10.27168 -10.27116
 Alpha  occ. eigenvalues --  -10.25540 -10.25204 -10.23659 -10.23647 -10.23224
 Alpha  occ. eigenvalues --  -10.23186 -10.23097 -10.21857 -10.21805 -10.21692
 Alpha  occ. eigenvalues --  -10.21358 -10.21208 -10.20751 -10.20643 -10.20519
 Alpha  occ. eigenvalues --  -10.20482 -10.20452 -10.20259 -10.20228 -10.19765
 Alpha  occ. eigenvalues --  -10.19230 -10.18786 -10.18591 -10.18056 -10.17808
 Alpha  occ. eigenvalues --  -10.17788 -10.17462 -10.16955  -1.09842  -1.03838
 Alpha  occ. eigenvalues --   -1.02303  -1.02176  -1.00073  -0.99178  -0.95793
 Alpha  occ. eigenvalues --   -0.95564  -0.92944  -0.92524  -0.86346  -0.82717
 Alpha  occ. eigenvalues --   -0.81535  -0.80794  -0.80046  -0.79979  -0.79072
 Alpha  occ. eigenvalues --   -0.77357  -0.76033  -0.75429  -0.74997  -0.73867
 Alpha  occ. eigenvalues --   -0.71380  -0.70797  -0.70113  -0.69892  -0.67866
 Alpha  occ. eigenvalues --   -0.66683  -0.65337  -0.62829  -0.61152  -0.60223
 Alpha  occ. eigenvalues --   -0.59232  -0.58998  -0.57974  -0.56988  -0.56375
 Alpha  occ. eigenvalues --   -0.56076  -0.55263  -0.54309  -0.53894  -0.53136
 Alpha  occ. eigenvalues --   -0.52787  -0.52659  -0.52236  -0.51742  -0.50920
 Alpha  occ. eigenvalues --   -0.50494  -0.49449  -0.48475  -0.48254  -0.47553
 Alpha  occ. eigenvalues --   -0.47244  -0.46810  -0.46190  -0.45855  -0.45721
 Alpha  occ. eigenvalues --   -0.45553  -0.45322  -0.44898  -0.44591  -0.44323
 Alpha  occ. eigenvalues --   -0.44020  -0.43729  -0.43064  -0.42885  -0.42691
 Alpha  occ. eigenvalues --   -0.42441  -0.41702  -0.41656  -0.41348  -0.41096
 Alpha  occ. eigenvalues --   -0.40578  -0.40454  -0.40268  -0.40205  -0.40015
 Alpha  occ. eigenvalues --   -0.39565  -0.39175  -0.38917  -0.38829  -0.38529
 Alpha  occ. eigenvalues --   -0.38276  -0.37776  -0.37380  -0.36585  -0.36334
 Alpha  occ. eigenvalues --   -0.36307  -0.35882  -0.35527  -0.35157  -0.34884
 Alpha  occ. eigenvalues --   -0.34820  -0.34480  -0.33187  -0.31831  -0.31227
 Alpha  occ. eigenvalues --   -0.31119  -0.30746  -0.30389  -0.28790  -0.28487
 Alpha  occ. eigenvalues --   -0.28169  -0.26153  -0.25314  -0.24739  -0.24116
 Alpha  occ. eigenvalues --   -0.23786  -0.23435  -0.22412  -0.21780  -0.18410
 Alpha virt. eigenvalues --   -0.13036  -0.07811  -0.04663  -0.04427  -0.04345
 Alpha virt. eigenvalues --   -0.01799   0.00727   0.01628   0.01808   0.02421
 Alpha virt. eigenvalues --    0.02995   0.03481   0.04223   0.04552   0.05170

 Mulliken charges:
               1
     1  O   -0.278476
     2  O   -0.276521
     3  O   -0.320723
     4  O   -0.209366
     5  O   -0.238066
     6  O   -0.222056
     7  N   -0.066117
     8  N   -0.179146
     9  N   -0.045846
    10  N   -0.330184
    11  C    0.169727
    12  C    0.225142
    13  C   -0.101379
    14  C   -0.084993
    15  C   -0.102073
    16  C   -0.020134
    17  C   -0.194979
    18  C    0.026478
    19  C    0.043600
    20  C   -0.045400
    21  C    0.074876
    22  C    0.121747
    23  C   -0.098510
    24  C    0.031088
    25  C    0.086916
    26  C   -0.033352
    27  C   -0.005898
    28  C    0.037222
    29  C    0.278691
    30  C   -0.009400
    31  C   -0.034680
    32  C   -0.099953
    33  C   -0.072662
    34  C    0.247665
    35  C    0.122541
    36  C   -0.014790
    37  C    0.186894
    38  C    0.016539
    39  C   -0.237855
    40  C    0.173182
    41  C    0.050829
    42  C    0.059329
    43  C    0.007424
    44  H   -0.033250
    45  H   -0.035196
    46  H   -0.039333
    47  H    0.140949
    48  H    0.130276
    49  H    0.027679
    50  H    0.017577
    51  H   -0.022600
    52  H    0.011995
    53  H    0.014737
    54  H    0.054594
    55  H    0.052171
    56  H    0.042131
    57  H   -0.002328
    58  H    0.046908
    59  H    0.080763
    60  H    0.158471
    61  H   -0.037422
    62  H   -0.015941
    63  H   -0.026014
    64  H    0.049881
    65  H    0.031015
    66  H    0.023125
    67  H    0.071168
    68  H    0.055955
    69  H    0.005377
    70  H   -0.018140
    71  H    0.034251
    72  H    0.215688
    73  H   -0.004030
    74  H    0.045338
    75  H    0.052137
    76  H    0.050094
    77  H    0.182362
    78  H    0.026879
    79  H   -0.024601
 Sum of Mulliken charges =  -0.00000

 Dipole moment (field-independent basis, Debye):
    X=              3.3363    Y=              2.2088    Z=             -1.4950  Tot=              4.2713
 Quadrupole moment (field-independent basis, Debye-Ang):
   XX=           -226.6293   YY=           -239.8918   ZZ=           -275.9534
   XY=              5.1945   XZ=            -24.4756   YZ=             -8.9213

 Normal termination of Gaussian 16 at Wed Jul 24 03:59:47 2019.
