 Gaussian 16, Revision A.03,
 Gaussian 16:  ES64L-G16RevA.03 25-Dec-2016

 --------------------------
 # td=(NStates=1) B3LYP/SVP
 --------------------------

 --
 TD
 --
 Symbolic Z-matrix:
 Charge =  0 Multiplicity = 1

                         Standard orientation:
 ---------------------------------------------------------------------
 Center     Atomic      Atomic             Coordinates (Angstroms)
 Number     Number       Type             X           Y           Z
 ---------------------------------------------------------------------
      1          8           0        5.353868   -0.307021   -3.266681
      2          8           0       -3.312700   -2.628210    3.088191
      3          8           0       -3.485141   -0.375000    3.049520
      4          8           0       -0.704186    7.204830    1.609981
      5          8           0        0.061791    6.851716   -0.497324
      6          8           0       -2.093174   -3.956354    0.120242
      7          7           0        2.423261    0.768994    0.558493
      8          7           0        4.392041   -0.792320   -1.193129
      9          7           0       -1.806553    0.686415   -0.461289
     10          7           0       -2.794068   -1.776749   -0.405345
     11          6           0        4.767501   -1.509838    0.021200
     12          6           0        4.290124   -0.623416    1.268092
     13          6           0        2.854087   -0.264814    1.322612
     14          6           0        1.881939   -0.762341    2.087383
     15          6           0        0.672201   -0.164778    1.783729
     16          6           0        1.006295    0.799888    0.707977
     17          6           0        6.265417   -1.545422   -0.168872
     18          6           0       -0.579697   -0.242252    2.462107
     19          6           0        6.686581   -1.032304   -1.343424
     20          6           0        0.256641    1.925519    0.155763
     21          6           0       -1.021637    1.874887   -0.256507
     22          6           0        5.474878   -0.623236   -2.097893
     23          6           0       -1.857568    2.968911   -0.883311
     24          6           0        2.019775   -1.946475    3.093253
     25          6           0        7.182568   -2.342612    0.773013
     26          6           0       -2.967646    2.478986   -1.461337
     27          6           0       -1.271973   -1.521433    2.644967
     28          6           0       -3.128847    1.009288   -1.113309
     29          6           0       -1.329137    4.341757   -0.916202
     30          6           0        7.983410   -0.936730   -2.012364
     31          6           0       -1.349363    5.106476    0.402209
     32          6           0       -4.116754    3.194130   -2.044757
     33          6           0       -4.083874    0.161511   -1.334024
     34          6           0       -2.802136   -1.406926    2.976286
     35          6           0       -3.898117   -1.287300   -1.055925
     36          6           0        9.159108   -1.049676   -1.414374
     37          6           0       -0.533097    6.522725    0.510015
     38          6           0       -4.871044   -2.366586   -1.369833
     39          6           0       -4.213575   -3.625434   -1.012337
     40          6           0       -2.959987   -3.239130   -0.419913
     41          6           0       -6.135843   -2.095700   -2.044003
     42          6           0       -4.661718   -5.003285   -1.281001
     43          6           0       -7.073056   -2.869209   -2.485834
     44          1           0        4.283068   -2.464225    0.233472
     45          1           0        4.954529    0.237245    1.299274
     46          1           0        4.551111   -1.194517    2.083202
     47          1           0        2.690717    1.076605   -0.319855
     48          1           0        3.382848   -1.023806   -1.573558
     49          1           0       -0.450296    0.093552    3.559035
     50          1           0       -1.432123    0.549678    2.202295
     51          1           0        0.795881    2.872601   -0.021808
     52          1           0        3.149733   -1.858957    3.314769
     53          1           0        1.645477   -1.776915    4.124331
     54          1           0        1.757874   -2.920409    2.902756
     55          1           0        6.586179   -3.112427    1.393866
     56          1           0        7.672328   -1.585677    1.417112
     57          1           0        8.152070   -2.768702    0.227132
     58          1           0       -1.330163   -2.003020    1.745589
     59          1           0       -0.759329   -2.376954    3.260868
     60          1           0       -1.603673   -0.319499   -0.116538
     61          1           0       -1.855709    4.835691   -1.775951
     62          1           0       -0.212320    4.322805   -1.293453
     63          1           0        7.958805   -0.483708   -3.097261
     64          1           0       -0.974940    4.538596    1.216386
     65          1           0       -2.366557    5.267045    0.620588
     66          1           0       -3.606122    4.048247   -2.531296
     67          1           0       -4.942250    3.377902   -1.271030
     68          1           0       -4.282553    2.573828   -2.883879
     69          1           0       -5.065986    0.547532   -1.460224
     70          1           0        9.493886   -1.192443   -0.257336
     71          1           0        9.914152   -1.084810   -1.952861
     72          1           0       -4.225752   -2.461085    3.223104
     73          1           0       -6.565664   -1.222401   -2.122153
     74          1           0       -5.687481   -5.202053   -0.969358
     75          1           0       -4.746097   -5.292890   -2.324251
     76          1           0       -3.981992   -5.648655   -0.701453
     77          1           0       -0.026699    7.901835    1.748954
     78          1           0       -7.956285   -2.369765   -2.725954
     79          1           0       -6.855836   -3.955398   -2.457372
 ---------------------------------------------------------------------

 SCF Done:  E(RB3LYP) =  -1947.84378166     A.U. after   16 cycles

 Excitation energies and oscillator strengths:

 Excited State   1:      Singlet-A      1.6419 eV  755.13 nm  f=0.2714  <S**2>=0.000
     155 ->156         0.70642
     155 <-156        -0.11400
 This state for optimization and/or second-order correction.
 Total Energy, E(TD-HF/TD-DFT) =  -1947.78344346
 Copying the excited state density for this state as the 1-particle RhoCI density.

 The electronic state is 1-A.
 Alpha  occ. eigenvalues --  -19.20496 -19.17578 -19.12599 -19.11616 -19.11514
 Alpha  occ. eigenvalues --  -19.10540 -14.36938 -14.35199 -14.34863 -14.29967
 Alpha  occ. eigenvalues --  -10.32995 -10.31141 -10.28550 -10.27327 -10.24766
 Alpha  occ. eigenvalues --  -10.24339 -10.24077 -10.23174 -10.22372 -10.22365
 Alpha  occ. eigenvalues --  -10.22108 -10.21944 -10.21907 -10.21183 -10.21037
 Alpha  occ. eigenvalues --  -10.20625 -10.20396 -10.20346 -10.20329 -10.20173
 Alpha  occ. eigenvalues --  -10.20140 -10.19982 -10.19777 -10.19292 -10.19263
 Alpha  occ. eigenvalues --  -10.19173 -10.19147 -10.18949 -10.18933 -10.18773
 Alpha  occ. eigenvalues --  -10.18704 -10.18402 -10.18234  -1.11497  -1.09781
 Alpha  occ. eigenvalues --   -1.02398  -1.01398  -1.00634  -0.98568  -0.98072
 Alpha  occ. eigenvalues --   -0.93226  -0.92624  -0.90127  -0.82073  -0.81852
 Alpha  occ. eigenvalues --   -0.81787  -0.81473  -0.81092  -0.79410  -0.77716
 Alpha  occ. eigenvalues --   -0.77042  -0.76432  -0.76163  -0.75084  -0.72051
 Alpha  occ. eigenvalues --   -0.71215  -0.70548  -0.70373  -0.68879  -0.67545
 Alpha  occ. eigenvalues --   -0.66875  -0.65982  -0.64076  -0.62502  -0.61544
 Alpha  occ. eigenvalues --   -0.60289  -0.59092  -0.57781  -0.57532  -0.56661
 Alpha  occ. eigenvalues --   -0.56073  -0.54443  -0.54144  -0.53722  -0.52936
 Alpha  occ. eigenvalues --   -0.51411  -0.50886  -0.50427  -0.50257  -0.49485
 Alpha  occ. eigenvalues --   -0.49037  -0.48488  -0.48211  -0.48146  -0.47583
 Alpha  occ. eigenvalues --   -0.47319  -0.47151  -0.46163  -0.45884  -0.45781
 Alpha  occ. eigenvalues --   -0.45485  -0.44964  -0.44467  -0.43821  -0.43475
 Alpha  occ. eigenvalues --   -0.43143  -0.42825  -0.42564  -0.42403  -0.42180
 Alpha  occ. eigenvalues --   -0.41870  -0.41860  -0.41617  -0.41145  -0.40961
 Alpha  occ. eigenvalues --   -0.40866  -0.40286  -0.40035  -0.39926  -0.39337
 Alpha  occ. eigenvalues --   -0.39115  -0.39024  -0.38994  -0.38622  -0.38310
 Alpha  occ. eigenvalues --   -0.38210  -0.37902  -0.37421  -0.36922  -0.36572
 Alpha  occ. eigenvalues --   -0.35816  -0.35405  -0.35339  -0.34758  -0.34325
 Alpha  occ. eigenvalues --   -0.34119  -0.33468  -0.33150  -0.31538  -0.31369
 Alpha  occ. eigenvalues --   -0.31010  -0.30717  -0.28666  -0.27754  -0.27454
 Alpha  occ. eigenvalues --   -0.26888  -0.26813  -0.25759  -0.25058  -0.24954
 Alpha  occ. eigenvalues --   -0.24638  -0.24535  -0.23478  -0.22343  -0.18340
 Alpha virt. eigenvalues --   -0.11746  -0.06400  -0.05893  -0.00843   0.00286
 Alpha virt. eigenvalues --    0.00442   0.00937   0.01690   0.02924   0.03501
 Alpha virt. eigenvalues --    0.04288   0.04477   0.04759   0.05657   0.06064

 Mulliken charges:
               1
     1  O   -0.211702
     2  O   -0.123185
     3  O   -0.264505
     4  O   -0.144057
     5  O   -0.226648
     6  O   -0.212574
     7  N   -0.046181
     8  N   -0.267365
     9  N   -0.249056
    10  N   -0.323753
    11  C    0.057530
    12  C    0.268539
    13  C   -0.088955
    14  C   -0.111903
    15  C    0.003134
    16  C    0.009203
    17  C   -0.161693
    18  C   -0.008372
    19  C   -0.032712
    20  C   -0.115308
    21  C    0.159493
    22  C    0.161065
    23  C   -0.063923
    24  C    0.097313
    25  C    0.026945
    26  C   -0.188833
    27  C    0.017781
    28  C    0.203721
    29  C    0.055628
    30  C   -0.032130
    31  C    0.029491
    32  C    0.156597
    33  C   -0.120839
    34  C    0.125571
    35  C    0.080696
    36  C    0.025235
    37  C    0.119685
    38  C    0.087945
    39  C   -0.171670
    40  C    0.179449
    41  C    0.005655
    42  C    0.103646
    43  C    0.000303
    44  H    0.019156
    45  H   -0.019552
    46  H   -0.056401
    47  H    0.108580
    48  H    0.160091
    49  H    0.009882
    50  H    0.052057
    51  H    0.000281
    52  H   -0.007206
    53  H    0.008007
    54  H    0.026081
    55  H    0.040239
    56  H    0.035502
    57  H    0.054030
    58  H    0.005312
    59  H    0.033362
    60  H    0.185718
    61  H    0.006534
    62  H    0.033359
    63  H    0.054438
    64  H    0.019023
    65  H    0.012076
    66  H    0.000118
    67  H    0.071657
    68  H    0.001255
    69  H   -0.012076
    70  H    0.042435
    71  H   -0.051004
    72  H    0.151116
    73  H   -0.082864
    74  H    0.016642
    75  H    0.031288
    76  H    0.031436
    77  H    0.199819
    78  H    0.009506
    79  H    0.000846
 Sum of Mulliken charges =  -0.00000

 Dipole moment (field-independent basis, Debye):
    X=             -0.2452    Y=              1.0127    Z=              2.9963  Tot=              3.1723
 Quadrupole moment (field-independent basis, Debye-Ang):
   XX=           -207.9580   YY=           -238.7693   ZZ=           -261.7157
   XY=             -4.3972   XZ=             32.0058   YZ=              9.0799

 Normal termination of Gaussian 16 at Fri Sep 20 21:52:52 2019.
