 Gaussian 16, Revision A.03,
 Gaussian 16:  ES64L-G16RevA.03 25-Dec-2016

 --------------------------
 # td=(NStates=1) B3LYP/SVP
 --------------------------

 --
 TD
 --
 Symbolic Z-matrix:
 Charge =  0 Multiplicity = 1

                         Standard orientation:
 ---------------------------------------------------------------------
 Center     Atomic      Atomic             Coordinates (Angstroms)
 Number     Number       Type             X           Y           Z
 ---------------------------------------------------------------------
      1          8           0       -3.381688   -1.126872   -2.964576
      2          8           0        2.918124    2.841184    3.388152
      3          8           0        3.758847    1.054692    4.414491
      4          8           0        7.857278   -1.534693   -0.861311
      5          8           0        6.641262   -2.959959   -2.107300
      6          8           0       -2.549113    1.519183    1.531681
      7          7           0       -0.423108   -2.450790    0.711731
      8          7           0       -2.755564   -1.135341   -0.749828
      9          7           0        1.221019    0.141099   -0.713428
     10          7           0       -0.831466    1.570470   -0.111916
     11          6           0       -3.492826   -1.404119    0.463788
     12          6           0       -2.806696   -2.409113    1.344202
     13          6           0       -1.375983   -2.176487    1.643453
     14          6           0       -0.725903   -1.474832    2.705259
     15          6           0        0.697765   -1.333103    2.388241
     16          6           0        0.804793   -1.925478    1.137425
     17          6           0       -4.845388   -1.803182    0.058143
     18          6           0        1.761826   -0.757323    3.211646
     19          6           0       -4.919498   -1.818998   -1.307595
     20          6           0        1.954573   -1.989320    0.153347
     21          6           0        2.033232   -0.975501   -0.732914
     22          6           0       -3.611276   -1.310551   -1.821481
     23          6           0        3.093785   -0.692095   -1.836820
     24          6           0       -1.416145   -0.873913    3.986937
     25          6           0       -5.921719   -2.065659    1.021906
     26          6           0        2.723622    0.523347   -2.400429
     27          6           0        1.944943    0.808276    2.928594
     28          6           0        1.603814    1.121039   -1.641493
     29          6           0        4.240936   -1.428284   -2.030919
     30          6           0       -6.002016   -2.300363   -2.147291
     31          6           0        5.474110   -1.004691   -1.211821
     32          6           0        3.361816    1.238629   -3.475715
     33          6           0        0.772851    2.249581   -1.810882
     34          6           0        2.982471    1.483618    3.615744
     35          6           0       -0.422504    2.477747   -1.042273
     36          6           0       -7.082291   -2.949663   -1.863676
     37          6           0        6.686292   -2.022902   -1.420312
     38          6           0       -1.235548    3.687071   -1.005728
     39          6           0       -2.206130    3.460784    0.041877
     40          6           0       -1.978391    2.144788    0.612724
     41          6           0       -1.069674    4.794298   -2.016138
     42          6           0       -3.274435    4.367563    0.602262
     43          6           0       -1.767352    5.927644   -2.031402
     44          1           0       -3.296811   -0.276080    1.116957
     45          1           0       -2.715082   -3.214650    0.467698
     46          1           0       -3.253724   -2.660185    2.291978
     47          1           0       -0.464039   -3.042827   -0.225380
     48          1           0       -2.156227   -0.442853   -0.768842
     49          1           0        1.403814   -0.923658    4.159824
     50          1           0        2.667570   -1.126944    3.071943
     51          1           0        2.459210   -2.955014    0.037604
     52          1           0       -2.115801   -1.608602    4.320479
     53          1           0       -0.732069   -0.623486    4.731630
     54          1           0       -2.054780   -0.131729    3.688629
     55          1           0       -5.431865   -1.543840    1.891985
     56          1           0       -6.131053   -3.233081    1.253901
     57          1           0       -6.965083   -1.759389    0.981804
     58          1           0        1.973791    1.167530    1.872564
     59          1           0        0.992630    1.348305    3.101548
     60          1           0        0.199513    0.582146   -0.253734
     61          1           0        4.366202   -1.461622   -3.071669
     62          1           0        4.077770   -2.513561   -1.813447
     63          1           0       -5.968058   -1.971004   -3.093090
     64          1           0        5.144128   -0.926427   -0.055411
     65          1           0        6.068776    0.005295   -1.676845
     66          1           0        4.316196    0.614373   -3.944680
     67          1           0        3.981974    2.107805   -3.114591
     68          1           0        2.748985    1.530190   -4.545584
     69          1           0        1.068438    2.959768   -2.469329
     70          1           0       -7.489882   -3.584254   -0.962799
     71          1           0       -7.733936   -3.036268   -2.758954
     72          1           0        3.699322    3.268928    3.915153
     73          1           0       -0.399630    4.709804   -2.808372
     74          1           0       -4.027019    4.536452   -0.118227
     75          1           0       -3.706322    3.734080    1.437403
     76          1           0       -3.017134    5.313814    0.810326
     77          1           0        8.423845   -2.316213   -1.137698
     78          1           0       -1.564800    6.707940   -2.749644
     79          1           0       -2.701011    6.126056   -1.460113
 ---------------------------------------------------------------------

 SCF Done:  E(RB3LYP) =  -1947.82353727     A.U. after   17 cycles

 Excitation energies and oscillator strengths:

 Excited State   1:      Singlet-A      0.9552 eV 1297.98 nm  f=0.0099  <S**2>=0.000
     155 ->156         0.70415
 This state for optimization and/or second-order correction.
 Total Energy, E(TD-HF/TD-DFT) =  -1947.78843391
 Copying the excited state density for this state as the 1-particle RhoCI density.

 The electronic state is 1-A.
 Alpha  occ. eigenvalues --  -19.19235 -19.16240 -19.15224 -19.13607 -19.11400
 Alpha  occ. eigenvalues --  -19.08263 -14.36761 -14.35167 -14.32021 -14.31845
 Alpha  occ. eigenvalues --  -10.33490 -10.30165 -10.29686 -10.26187 -10.26106
 Alpha  occ. eigenvalues --  -10.25394 -10.25064 -10.24940 -10.23304 -10.23189
 Alpha  occ. eigenvalues --  -10.22659 -10.22431 -10.22429 -10.22223 -10.21990
 Alpha  occ. eigenvalues --  -10.21823 -10.20994 -10.20791 -10.20724 -10.20444
 Alpha  occ. eigenvalues --  -10.20109 -10.20053 -10.19953 -10.19750 -10.19083
 Alpha  occ. eigenvalues --  -10.19068 -10.18620 -10.17934 -10.17623 -10.17552
 Alpha  occ. eigenvalues --  -10.17181 -10.16929 -10.16220  -1.11973  -1.07761
 Alpha  occ. eigenvalues --   -1.03034  -1.02728  -1.02552  -0.98594  -0.96856
 Alpha  occ. eigenvalues --   -0.95346  -0.93436  -0.92846  -0.84392  -0.81802
 Alpha  occ. eigenvalues --   -0.81595  -0.81137  -0.80251  -0.78492  -0.78289
 Alpha  occ. eigenvalues --   -0.77065  -0.76220  -0.75600  -0.74830  -0.72264
 Alpha  occ. eigenvalues --   -0.71326  -0.70996  -0.70481  -0.67822  -0.67374
 Alpha  occ. eigenvalues --   -0.67225  -0.66252  -0.63026  -0.60953  -0.59956
 Alpha  occ. eigenvalues --   -0.59429  -0.58916  -0.56929  -0.56675  -0.56429
 Alpha  occ. eigenvalues --   -0.55441  -0.54735  -0.54106  -0.53889  -0.53525
 Alpha  occ. eigenvalues --   -0.52614  -0.51163  -0.50418  -0.50370  -0.49815
 Alpha  occ. eigenvalues --   -0.49703  -0.49275  -0.49081  -0.48651  -0.47620
 Alpha  occ. eigenvalues --   -0.47207  -0.46356  -0.46290  -0.46118  -0.45838
 Alpha  occ. eigenvalues --   -0.45749  -0.45254  -0.44755  -0.44523  -0.44252
 Alpha  occ. eigenvalues --   -0.43743  -0.43404  -0.43209  -0.42616  -0.42548
 Alpha  occ. eigenvalues --   -0.42003  -0.41860  -0.41821  -0.41272  -0.40872
 Alpha  occ. eigenvalues --   -0.40645  -0.40519  -0.40417  -0.39793  -0.39720
 Alpha  occ. eigenvalues --   -0.39523  -0.39231  -0.38779  -0.38489  -0.38290
 Alpha  occ. eigenvalues --   -0.38250  -0.37510  -0.37026  -0.36692  -0.36390
 Alpha  occ. eigenvalues --   -0.36131  -0.35882  -0.35761  -0.35212  -0.34361
 Alpha  occ. eigenvalues --   -0.34075  -0.32967  -0.32854  -0.31804  -0.31363
 Alpha  occ. eigenvalues --   -0.31037  -0.30831  -0.30093  -0.29668  -0.29151
 Alpha  occ. eigenvalues --   -0.27162  -0.26921  -0.25895  -0.24600  -0.23937
 Alpha  occ. eigenvalues --   -0.23889  -0.22805  -0.22282  -0.21935  -0.18885
 Alpha virt. eigenvalues --   -0.13176  -0.08036  -0.04319  -0.01934  -0.00701
 Alpha virt. eigenvalues --    0.01406   0.01941   0.02375   0.02746   0.03177
 Alpha virt. eigenvalues --    0.03905   0.04588   0.04980   0.05221   0.05321

 Mulliken charges:
               1
     1  O   -0.184581
     2  O   -0.255737
     3  O   -0.213585
     4  O   -0.217124
     5  O   -0.170547
     6  O   -0.223304
     7  N   -0.118129
     8  N   -0.123566
     9  N   -0.211160
    10  N   -0.362626
    11  C   -0.061142
    12  C    0.195392
    13  C   -0.084456
    14  C   -0.189378
    15  C   -0.127944
    16  C   -0.025793
    17  C   -0.092255
    18  C    0.320320
    19  C   -0.036627
    20  C   -0.155416
    21  C    0.191985
    22  C    0.099163
    23  C   -0.056558
    24  C    0.207318
    25  C    0.016381
    26  C   -0.051955
    27  C   -0.041724
    28  C    0.099819
    29  C    0.130494
    30  C    0.065462
    31  C   -0.103721
    32  C   -0.060110
    33  C   -0.007881
    34  C    0.122090
    35  C    0.090193
    36  C   -0.079057
    37  C    0.145067
    38  C    0.063831
    39  C   -0.227710
    40  C    0.233901
    41  C    0.020467
    42  C    0.168658
    43  C   -0.028950
    44  H    0.103544
    45  H   -0.020515
    46  H   -0.004215
    47  H    0.160695
    48  H    0.076213
    49  H   -0.022739
    50  H   -0.051145
    51  H    0.017257
    52  H   -0.023217
    53  H   -0.010711
    54  H   -0.003865
    55  H    0.027611
    56  H    0.042542
    57  H    0.031024
    58  H    0.027930
    59  H    0.038484
    60  H    0.255947
    61  H    0.001176
    62  H    0.011423
    63  H   -0.041650
    64  H    0.080970
    65  H    0.073536
    66  H    0.019087
    67  H    0.043831
    68  H    0.071197
    69  H   -0.072135
    70  H    0.031144
    71  H    0.017062
    72  H    0.200951
    73  H   -0.020841
    74  H    0.009911
    75  H    0.039639
    76  H   -0.002248
    77  H    0.183154
    78  H    0.024351
    79  H    0.025097
 Sum of Mulliken charges =  -0.00000

 Dipole moment (field-independent basis, Debye):
    X=              2.1420    Y=              2.8825    Z=             -1.9135  Tot=              4.0692
 Quadrupole moment (field-independent basis, Debye-Ang):
   XX=           -233.9506   YY=           -228.0596   ZZ=           -268.7914
   XY=             -1.0827   XZ=            -24.0308   YZ=            -12.5872

 Normal termination of Gaussian 16 at Wed Jul 31 01:00:09 2019.
