 Gaussian 16, Revision A.03,
 Gaussian 16:  ES64L-G16RevA.03 25-Dec-2016

 --------------------------
 # td=(NStates=1) B3LYP/SVP
 --------------------------

 --
 TD
 --
 Symbolic Z-matrix:
 Charge =  0 Multiplicity = 1

                         Standard orientation:
 ---------------------------------------------------------------------
 Center     Atomic      Atomic             Coordinates (Angstroms)
 Number     Number       Type             X           Y           Z
 ---------------------------------------------------------------------
      1          8           0        5.291518   -0.061600   -3.232145
      2          8           0       -3.107472   -3.054409    3.403870
      3          8           0       -3.451623   -0.870197    3.042821
      4          8           0       -1.579834    7.273368    1.542427
      5          8           0       -0.674792    7.072967   -0.555092
      6          8           0       -1.612890   -3.849649   -0.011774
      7          7           0        2.269027    0.886746    0.690557
      8          7           0        4.387454   -0.431066   -1.212225
      9          7           0       -1.783169    0.717014   -0.485578
     10          7           0       -2.551489   -1.900354   -0.616061
     11          6           0        4.728192   -1.048410    0.010802
     12          6           0        4.345220   -0.288189    1.332129
     13          6           0        2.880242   -0.034342    1.455086
     14          6           0        1.853093   -0.673377    2.258563
     15          6           0        0.582405   -0.086843    1.920019
     16          6           0        0.869712    0.928799    1.000275
     17          6           0        6.278161   -1.283464   -0.180976
     18          6           0       -0.763974   -0.258065    2.503891
     19          6           0        6.630528   -0.925449   -1.417244
     20          6           0        0.135899    2.035722    0.342069
     21          6           0       -0.988721    1.862497   -0.289035
     22          6           0        5.387815   -0.452593   -2.131595
     23          6           0       -1.973574    2.953562   -0.813633
     24          6           0        2.059882   -1.797942    3.101198
     25          6           0        7.097827   -1.923652    0.968666
     26          6           0       -3.088460    2.326310   -1.315497
     27          6           0       -1.328476   -1.711898    2.519195
     28          6           0       -2.977123    0.932973   -1.144930
     29          6           0       -1.566612    4.368098   -0.890853
     30          6           0        7.885752   -0.840891   -2.053504
     31          6           0       -1.778739    5.139317    0.399162
     32          6           0       -4.203767    2.997839   -1.944931
     33          6           0       -3.856004   -0.093314   -1.401130
     34          6           0       -2.661117   -1.823744    3.001920
     35          6           0       -3.563758   -1.465276   -1.230897
     36          6           0        9.080762   -0.747429   -1.496557
     37          6           0       -1.263580    6.588444    0.345198
     38          6           0       -4.444286   -2.658764   -1.531624
     39          6           0       -3.838215   -3.743724   -1.157404
     40          6           0       -2.550217   -3.305831   -0.568957
     41          6           0       -5.623692   -2.431118   -2.204937
     42          6           0       -4.072213   -5.279836   -1.161112
     43          6           0       -6.533517   -3.390870   -2.658351
     44          1           0        4.243064   -2.058059   -0.012601
     45          1           0        4.886547    0.780143    1.532459
     46          1           0        4.743336   -0.866618    2.150755
     47          1           0        2.724314    1.397118   -0.074501
     48          1           0        3.456837   -0.361579   -1.412374
     49          1           0       -0.502864    0.053274    3.677779
     50          1           0       -1.355352    0.369949    2.081166
     51          1           0        0.578420    3.056302    0.119852
     52          1           0        3.143377   -2.028079    3.203391
     53          1           0        1.510883   -1.632727    3.967047
     54          1           0        1.616022   -2.807853    2.624301
     55          1           0        6.804559   -3.131635    1.263914
     56          1           0        7.317952   -1.341146    1.877423
     57          1           0        8.074563   -2.130030    0.634937
     58          1           0       -1.239245   -2.231424    1.459399
     59          1           0       -0.473616   -2.213695    3.121581
     60          1           0       -1.527567   -0.272537   -0.321500
     61          1           0       -2.397959    4.679143   -1.546076
     62          1           0       -0.536823    4.722711   -1.233886
     63          1           0        7.853645   -0.725394   -3.209431
     64          1           0       -1.201322    4.624377    1.269732
     65          1           0       -2.852804    5.141967    0.709887
     66          1           0       -3.959397    4.042186   -2.209442
     67          1           0       -5.249135    2.937200   -1.524179
     68          1           0       -4.611387    2.359540   -2.846525
     69          1           0       -4.847872    0.053415   -1.856692
     70          1           0        9.123342   -0.653509   -0.387170
     71          1           0       10.050693   -0.578252   -2.080535
     72          1           0       -3.957657   -2.960507    3.814840
     73          1           0       -6.006812   -1.499573   -2.352738
     74          1           0       -4.829796   -5.679471   -0.389566
     75          1           0       -4.418045   -5.748273   -2.146947
     76          1           0       -3.106309   -5.853049   -0.712235
     77          1           0       -1.027536    8.126133    1.257435
     78          1           0       -7.388558   -3.323092   -3.342063
     79          1           0       -6.246193   -4.448449   -2.655195
 ---------------------------------------------------------------------

 SCF Done:  E(RB3LYP) =  -1947.88609102     A.U. after   16 cycles

 Excitation energies and oscillator strengths:

 Excited State   1:      Singlet-A      1.9587 eV  632.99 nm  f=0.2998  <S**2>=0.000
     155 ->156         0.70391
 This state for optimization and/or second-order correction.
 Total Energy, E(TD-HF/TD-DFT) =  -1947.81410930
 Copying the excited state density for this state as the 1-particle RhoCI density.

 The electronic state is 1-A.
 Alpha  occ. eigenvalues --  -19.18874 -19.16036 -19.15215 -19.11592 -19.10317
 Alpha  occ. eigenvalues --  -19.10057 -14.37875 -14.35899 -14.34594 -14.28558
 Alpha  occ. eigenvalues --  -10.33178 -10.30314 -10.28212 -10.27072 -10.24902
 Alpha  occ. eigenvalues --  -10.24777 -10.23758 -10.22806 -10.22548 -10.22529
 Alpha  occ. eigenvalues --  -10.22513 -10.22475 -10.22197 -10.21953 -10.21874
 Alpha  occ. eigenvalues --  -10.21323 -10.21276 -10.21272 -10.21158 -10.20904
 Alpha  occ. eigenvalues --  -10.20605 -10.20172 -10.20143 -10.20061 -10.20027
 Alpha  occ. eigenvalues --  -10.20021 -10.19944 -10.19280 -10.19239 -10.18915
 Alpha  occ. eigenvalues --  -10.18881 -10.18785 -10.18209  -1.10328  -1.07162
 Alpha  occ. eigenvalues --   -1.05200  -1.02807  -1.01335  -0.97617  -0.97312
 Alpha  occ. eigenvalues --   -0.97209  -0.95578  -0.94345  -0.83484  -0.82959
 Alpha  occ. eigenvalues --   -0.82560  -0.81882  -0.81296  -0.79326  -0.78248
 Alpha  occ. eigenvalues --   -0.77121  -0.76756  -0.75698  -0.74493  -0.72745
 Alpha  occ. eigenvalues --   -0.71551  -0.71380  -0.69413  -0.68727  -0.68232
 Alpha  occ. eigenvalues --   -0.67558  -0.65980  -0.64249  -0.62429  -0.61420
 Alpha  occ. eigenvalues --   -0.59477  -0.58874  -0.58567  -0.57849  -0.57010
 Alpha  occ. eigenvalues --   -0.55585  -0.55340  -0.54785  -0.53890  -0.53515
 Alpha  occ. eigenvalues --   -0.52965  -0.51421  -0.51014  -0.50618  -0.50500
 Alpha  occ. eigenvalues --   -0.49883  -0.49667  -0.48800  -0.48664  -0.47841
 Alpha  occ. eigenvalues --   -0.47598  -0.47481  -0.46872  -0.45887  -0.45341
 Alpha  occ. eigenvalues --   -0.45044  -0.44947  -0.44542  -0.44150  -0.44024
 Alpha  occ. eigenvalues --   -0.43812  -0.43591  -0.43444  -0.43107  -0.42458
 Alpha  occ. eigenvalues --   -0.42341  -0.41970  -0.41785  -0.41384  -0.41194
 Alpha  occ. eigenvalues --   -0.40719  -0.40417  -0.40104  -0.39733  -0.39568
 Alpha  occ. eigenvalues --   -0.39255  -0.38978  -0.38745  -0.38532  -0.38290
 Alpha  occ. eigenvalues --   -0.37953  -0.37715  -0.37524  -0.37436  -0.37252
 Alpha  occ. eigenvalues --   -0.37206  -0.36011  -0.35691  -0.35043  -0.34396
 Alpha  occ. eigenvalues --   -0.33952  -0.33414  -0.33264  -0.32909  -0.32300
 Alpha  occ. eigenvalues --   -0.32111  -0.30237  -0.29933  -0.29367  -0.26871
 Alpha  occ. eigenvalues --   -0.26702  -0.26192  -0.25948  -0.25495  -0.24908
 Alpha  occ. eigenvalues --   -0.24576  -0.24242  -0.23600  -0.22192  -0.19151
 Alpha virt. eigenvalues --   -0.10995  -0.06758  -0.05785  -0.00955  -0.00737
 Alpha virt. eigenvalues --    0.00757   0.00793   0.01829   0.02595   0.03138
 Alpha virt. eigenvalues --    0.03935   0.04304   0.04624   0.05182   0.05548

 Mulliken charges:
               1
     1  O   -0.161659
     2  O   -0.185166
     3  O   -0.267707
     4  O   -0.259542
     5  O   -0.188653
     6  O   -0.188127
     7  N   -0.098709
     8  N   -0.132267
     9  N   -0.121880
    10  N   -0.222024
    11  C    0.080529
    12  C    0.144236
    13  C   -0.083377
    14  C   -0.158675
    15  C   -0.081317
    16  C    0.046403
    17  C   -0.166973
    18  C    0.162195
    19  C   -0.012358
    20  C   -0.116358
    21  C    0.153636
    22  C    0.111268
    23  C   -0.111888
    24  C    0.087311
    25  C    0.042959
    26  C   -0.052689
    27  C   -0.066656
    28  C    0.164448
    29  C    0.086256
    30  C   -0.046611
    31  C   -0.061139
    32  C    0.051798
    33  C   -0.101013
    34  C    0.159550
    35  C    0.018408
    36  C   -0.052933
    37  C    0.158727
    38  C    0.140528
    39  C   -0.161623
    40  C    0.136740
    41  C   -0.054023
    42  C   -0.003128
    43  C   -0.031453
    44  H    0.027796
    45  H    0.026854
    46  H   -0.010828
    47  H    0.119543
    48  H    0.090808
    49  H    0.031891
    50  H   -0.064353
    51  H    0.004265
    52  H   -0.003253
    53  H    0.005660
    54  H    0.049202
    55  H    0.049326
    56  H    0.040959
    57  H   -0.006392
    58  H    0.119986
    59  H    0.024194
    60  H    0.144171
    61  H   -0.005671
    62  H    0.053674
    63  H    0.030117
    64  H    0.062755
    65  H    0.046739
    66  H    0.028196
    67  H    0.026186
    68  H    0.017331
    69  H   -0.033652
    70  H    0.018898
    71  H    0.044683
    72  H    0.168437
    73  H   -0.043175
    74  H    0.037878
    75  H    0.046543
    76  H    0.053712
    77  H    0.201407
    78  H    0.032101
    79  H    0.006967
 Sum of Mulliken charges =  -0.00000

 Dipole moment (field-independent basis, Debye):
    X=             -0.0103    Y=              1.2009    Z=              1.3725  Tot=              1.8238
 Quadrupole moment (field-independent basis, Debye-Ang):
   XX=           -217.5969   YY=           -245.3089   ZZ=           -263.0311
   XY=             -1.2377   XZ=             34.9334   YZ=              2.1783

 Normal termination of Gaussian 16 at Fri Sep 27 03:33:42 2019.
