 Gaussian 16, Revision A.03,
 Gaussian 16:  ES64L-G16RevA.03 25-Dec-2016

 --------------------------
 # td=(NStates=1) B3LYP/SVP
 --------------------------

 --
 TD
 --
 Symbolic Z-matrix:
 Charge =  0 Multiplicity = 1

                         Standard orientation:
 ---------------------------------------------------------------------
 Center     Atomic      Atomic             Coordinates (Angstroms)
 Number     Number       Type             X           Y           Z
 ---------------------------------------------------------------------
      1          8           0        5.370798   -0.176033   -3.304756
      2          8           0       -3.020259   -3.101311    2.991666
      3          8           0       -3.444477   -0.893395    2.856780
      4          8           0       -1.594301    7.218522    1.392798
      5          8           0       -0.189991    6.902323   -0.381897
      6          8           0       -1.694511   -3.954110   -0.127232
      7          7           0        2.347362    0.929620    0.557817
      8          7           0        4.380908   -0.700518   -1.218593
      9          7           0       -1.848185    0.784569   -0.463574
     10          7           0       -2.607195   -1.800713   -0.527056
     11          6           0        4.865013   -1.225245    0.041190
     12          6           0        4.359382   -0.439902    1.267408
     13          6           0        2.836191   -0.061728    1.328902
     14          6           0        1.934168   -0.664649    2.030244
     15          6           0        0.711353   -0.034365    1.808258
     16          6           0        0.986116    0.961631    0.817237
     17          6           0        6.324693   -1.387783   -0.196341
     18          6           0       -0.635362   -0.319115    2.525798
     19          6           0        6.671827   -0.916335   -1.399792
     20          6           0        0.206308    1.942172    0.210825
     21          6           0       -1.134874    1.885695   -0.258548
     22          6           0        5.419841   -0.585594   -2.188728
     23          6           0       -1.843806    2.956829   -0.858991
     24          6           0        2.098215   -1.690784    3.039907
     25          6           0        7.115724   -2.039047    0.941940
     26          6           0       -3.203264    2.424477   -1.235028
     27          6           0       -1.129186   -1.660953    2.587631
     28          6           0       -3.121301    1.016514   -0.940642
     29          6           0       -1.396402    4.375928   -0.877294
     30          6           0        7.963066   -0.864616   -1.981543
     31          6           0       -1.667162    5.093050    0.437031
     32          6           0       -4.411965    2.962479   -1.809368
     33          6           0       -4.042002    0.031753   -1.253136
     34          6           0       -2.616647   -1.805422    2.844744
     35          6           0       -3.790797   -1.422432   -1.018603
     36          6           0        9.161873   -0.748681   -1.330256
     37          6           0       -1.081476    6.557755    0.368559
     38          6           0       -4.713246   -2.488039   -1.369018
     39          6           0       -3.946533   -3.705562   -1.004512
     40          6           0       -2.589273   -3.190205   -0.536287
     41          6           0       -5.977966   -2.318457   -2.043305
     42          6           0       -4.358912   -5.058558   -1.102381
     43          6           0       -6.783417   -3.266645   -2.517269
     44          1           0        4.300379   -2.236183    0.015920
     45          1           0        4.806900    0.493099    1.269530
     46          1           0        4.651593   -0.674033    2.344671
     47          1           0        2.756401    1.609924    0.074843
     48          1           0        3.528878   -0.436866   -1.598121
     49          1           0       -0.598703    0.043070    3.556883
     50          1           0       -1.524025    0.429100    2.190545
     51          1           0        0.750443    3.079994    0.003291
     52          1           0        3.138222   -1.802515    3.556895
     53          1           0        1.441697   -1.484811    3.994094
     54          1           0        1.671716   -2.637787    2.541561
     55          1           0        6.607638   -2.933927    1.497005
     56          1           0        7.448781   -1.178019    1.710836
     57          1           0        8.037808   -2.594683    0.578783
     58          1           0       -0.878536   -2.295019    1.714929
     59          1           0       -0.574350   -2.276255    3.534789
     60          1           0       -1.475571   -0.168609   -0.253727
     61          1           0       -1.808499    4.765027   -1.668600
     62          1           0       -0.243282    4.316206   -1.221556
     63          1           0        7.966236   -0.540930   -2.976360
     64          1           0       -1.420137    4.342516    1.262011
     65          1           0       -2.824765    5.347163    0.544387
     66          1           0       -3.989199    4.090251   -1.966762
     67          1           0       -5.281189    2.877577   -1.085280
     68          1           0       -4.688863    2.615133   -2.841367
     69          1           0       -4.811299    0.276316   -1.778843
     70          1           0        9.428198   -0.642372   -0.266482
     71          1           0        9.978091   -0.767633   -2.022070
     72          1           0       -4.012315   -3.005065    2.965432
     73          1           0       -6.315263   -1.359617   -2.303774
     74          1           0       -5.528361   -5.261764   -0.869213
     75          1           0       -4.038496   -5.667264   -2.414834
     76          1           0       -3.704257   -5.522923   -0.433155
     77          1           0       -0.994470    8.144027    1.404501
     78          1           0       -7.962817   -3.124352   -2.644741
     79          1           0       -6.427942   -4.162438   -2.246855
 ---------------------------------------------------------------------

 SCF Done:  E(RB3LYP) =  -1947.77579625     A.U. after   17 cycles

 Excitation energies and oscillator strengths:

 Excited State   1:      Singlet-A      1.8514 eV  669.70 nm  f=0.3454  <S**2>=0.000
     154 ->156         0.28295
     155 ->156         0.64982
     155 <-156        -0.13211
 This state for optimization and/or second-order correction.
 Total Energy, E(TD-HF/TD-DFT) =  -1947.70776037
 Copying the excited state density for this state as the 1-particle RhoCI density.

 The electronic state is 1-A.
 Alpha  occ. eigenvalues --  -19.21134 -19.17173 -19.14212 -19.11723 -19.10817
 Alpha  occ. eigenvalues --  -19.10426 -14.38350 -14.35748 -14.34516 -14.28899
 Alpha  occ. eigenvalues --  -10.33451 -10.31214 -10.28535 -10.26674 -10.25670
 Alpha  occ. eigenvalues --  -10.23823 -10.23616 -10.23546 -10.23496 -10.23439
 Alpha  occ. eigenvalues --  -10.23037 -10.22690 -10.22638 -10.21944 -10.21920
 Alpha  occ. eigenvalues --  -10.21471 -10.21437 -10.21402 -10.21101 -10.20949
 Alpha  occ. eigenvalues --  -10.20551 -10.20426 -10.20414 -10.20411 -10.20118
 Alpha  occ. eigenvalues --  -10.20117 -10.19840 -10.19608 -10.19487 -10.19440
 Alpha  occ. eigenvalues --  -10.18370 -10.18259 -10.18200  -1.10795  -1.07856
 Alpha  occ. eigenvalues --   -1.03928  -1.01857  -1.01044  -0.99997  -0.98479
 Alpha  occ. eigenvalues --   -0.98285  -0.94302  -0.91562  -0.83891  -0.82429
 Alpha  occ. eigenvalues --   -0.82210  -0.81843  -0.80397  -0.80055  -0.78304
 Alpha  occ. eigenvalues --   -0.77345  -0.76663  -0.75715  -0.74728  -0.72552
 Alpha  occ. eigenvalues --   -0.71669  -0.70913  -0.69944  -0.69158  -0.67677
 Alpha  occ. eigenvalues --   -0.67060  -0.66326  -0.63216  -0.61438  -0.60777
 Alpha  occ. eigenvalues --   -0.59525  -0.59419  -0.58566  -0.58271  -0.57739
 Alpha  occ. eigenvalues --   -0.56626  -0.55484  -0.54736  -0.54031  -0.53570
 Alpha  occ. eigenvalues --   -0.52352  -0.51312  -0.50565  -0.50420  -0.49842
 Alpha  occ. eigenvalues --   -0.49530  -0.49114  -0.48318  -0.47963  -0.47597
 Alpha  occ. eigenvalues --   -0.47250  -0.47200  -0.46620  -0.46378  -0.46126
 Alpha  occ. eigenvalues --   -0.45672  -0.45157  -0.44452  -0.43930  -0.43402
 Alpha  occ. eigenvalues --   -0.43190  -0.42883  -0.42542  -0.42425  -0.42343
 Alpha  occ. eigenvalues --   -0.42066  -0.42003  -0.41829  -0.41707  -0.41563
 Alpha  occ. eigenvalues --   -0.40921  -0.40602  -0.40369  -0.40061  -0.39721
 Alpha  occ. eigenvalues --   -0.39525  -0.39194  -0.39062  -0.38769  -0.38720
 Alpha  occ. eigenvalues --   -0.38153  -0.37981  -0.37630  -0.36980  -0.36353
 Alpha  occ. eigenvalues --   -0.35887  -0.35684  -0.35324  -0.34511  -0.34189
 Alpha  occ. eigenvalues --   -0.33957  -0.33757  -0.33073  -0.32084  -0.31165
 Alpha  occ. eigenvalues --   -0.30963  -0.30675  -0.29408  -0.28578  -0.27643
 Alpha  occ. eigenvalues --   -0.27195  -0.26657  -0.26069  -0.25600  -0.24654
 Alpha  occ. eigenvalues --   -0.24178  -0.23749  -0.23650  -0.21194  -0.18697
 Alpha virt. eigenvalues --   -0.11710  -0.07876  -0.06108  -0.01631  -0.01283
 Alpha virt. eigenvalues --    0.00230   0.00491   0.00712   0.00962   0.02542
 Alpha virt. eigenvalues --    0.02942   0.03394   0.04347   0.04414   0.05204

 Mulliken charges:
               1
     1  O   -0.185818
     2  O   -0.199423
     3  O   -0.254714
     4  O   -0.206576
     5  O   -0.225990
     6  O   -0.232531
     7  N    0.014504
     8  N   -0.250312
     9  N   -0.040111
    10  N   -0.267372
    11  C    0.182370
    12  C    0.245948
    13  C   -0.162338
    14  C   -0.076500
    15  C   -0.040526
    16  C    0.041471
    17  C   -0.145205
    18  C    0.051699
    19  C   -0.049648
    20  C   -0.151514
    21  C    0.050524
    22  C    0.142190
    23  C   -0.161167
    24  C    0.015148
    25  C   -0.000781
    26  C   -0.130224
    27  C   -0.056580
    28  C    0.156618
    29  C    0.151660
    30  C   -0.005489
    31  C   -0.057191
    32  C    0.027230
    33  C   -0.026158
    34  C    0.156892
    35  C    0.067667
    36  C   -0.030992
    37  C    0.170542
    38  C    0.083274
    39  C   -0.159873
    40  C    0.181661
    41  C   -0.052376
    42  C   -0.038428
    43  C    0.011016
    44  H    0.031620
    45  H   -0.057792
    46  H    0.007915
    47  H    0.067748
    48  H    0.101047
    49  H    0.003772
    50  H    0.048248
    51  H    0.043562
    52  H    0.025347
    53  H    0.032916
    54  H    0.058546
    55  H    0.042183
    56  H    0.057625
    57  H    0.040073
    58  H    0.072034
    59  H    0.044237
    60  H    0.153375
    61  H   -0.051720
    62  H    0.033944
    63  H   -0.003506
    64  H    0.067759
    65  H    0.049576
    66  H    0.025566
    67  H    0.054486
    68  H    0.048830
    69  H   -0.121846
    70  H    0.027956
    71  H    0.021256
    72  H    0.188276
    73  H   -0.031055
    74  H    0.066325
    75  H    0.046159
    76  H    0.025103
    77  H    0.230392
    78  H    0.051160
    79  H   -0.043690
 Sum of Mulliken charges =  -0.00000

 Dipole moment (field-independent basis, Debye):
    X=              1.1480    Y=              4.0725    Z=              4.4212  Tot=              6.1196
 Quadrupole moment (field-independent basis, Debye-Ang):
   XX=           -224.4375   YY=           -243.5763   ZZ=           -263.6258
   XY=             -9.4776   XZ=             30.9944   YZ=              2.7703

 Normal termination of Gaussian 16 at Fri Sep 27 13:31:09 2019.
