 Gaussian 16, Revision A.03,
 Gaussian 16:  ES64L-G16RevA.03 25-Dec-2016

 --------------------------
 # td=(NStates=1) B3LYP/SVP
 --------------------------

 --
 TD
 --
 Symbolic Z-matrix:
 Charge =  0 Multiplicity = 1

                         Standard orientation:
 ---------------------------------------------------------------------
 Center     Atomic      Atomic             Coordinates (Angstroms)
 Number     Number       Type             X           Y           Z
 ---------------------------------------------------------------------
      1          8           0       -3.164069   -1.604884   -2.548217
      2          8           0        2.713064    3.637001    2.716292
      3          8           0        3.569893    2.184935    4.059601
      4          8           0        7.581344   -1.558179   -0.537219
      5          8           0        6.569155   -3.254087   -1.489473
      6          8           0       -2.588638    1.953182    1.337939
      7          7           0       -0.223850   -2.324181    1.340834
      8          7           0       -2.510720   -1.364540   -0.394269
      9          7           0        1.159444   -0.104656   -0.692945
     10          7           0       -1.042301    1.434482   -0.407190
     11          6           0       -3.292663   -1.341714    0.949147
     12          6           0       -2.572743   -2.227327    1.890408
     13          6           0       -1.175204   -1.799773    2.120214
     14          6           0       -0.549065   -0.800786    3.009994
     15          6           0        0.800090   -0.786987    2.619478
     16          6           0        1.051714   -1.602269    1.556127
     17          6           0       -4.635852   -1.966234    0.471711
     18          6           0        1.904615    0.210036    3.215065
     19          6           0       -4.594556   -2.270858   -0.845204
     20          6           0        2.149432   -1.711661    0.702637
     21          6           0        2.089715   -0.994174   -0.534805
     22          6           0       -3.320869   -1.737387   -1.354179
     23          6           0        2.968924   -0.895826   -1.862277
     24          6           0       -1.137901    0.111489    3.912569
     25          6           0       -5.688079   -2.135078    1.513319
     26          6           0        2.383073    0.085956   -2.655329
     27          6           0        1.842304    1.502062    2.547536
     28          6           0        1.329785    0.635534   -1.977935
     29          6           0        4.136386   -1.881593   -1.960992
     30          6           0       -5.591949   -2.812809   -1.659721
     31          6           0        5.299942   -1.316279   -1.063339
     32          6           0        2.968159    0.463426   -3.946813
     33          6           0        0.392116    1.648096   -2.289755
     34          6           0        2.772524    2.462835    3.225862
     35          6           0       -0.641508    2.081752   -1.558074
     36          6           0       -6.626104   -3.662171   -1.420646
     37          6           0        6.559341   -2.066497   -1.042642
     38          6           0       -1.550545    3.290127   -1.703798
     39          6           0       -2.347916    3.411459   -0.577232
     40          6           0       -1.992135    2.246024    0.294512
     41          6           0       -1.410815    4.232796   -2.746633
     42          6           0       -3.187818    4.482102   -0.173332
     43          6           0       -2.103945    5.324832   -3.101096
     44          1           0       -3.522345   -0.357331    1.275369
     45          1           0       -2.657867   -3.256031    1.388397
     46          1           0       -3.196468   -2.104791    2.765124
     47          1           0       -0.309323   -2.971591    0.488458
     48          1           0       -1.869074   -0.514063   -0.432608
     49          1           0        1.543861    0.234369    4.325513
     50          1           0        2.941470   -0.148694    2.844079
     51          1           0        2.865118   -2.575876    0.743356
     52          1           0       -1.810297   -0.374536    4.543828
     53          1           0       -0.478486    0.527464    4.543384
     54          1           0       -1.637972    0.764765    3.145165
     55          1           0       -5.687041   -1.278716    2.226174
     56          1           0       -5.698718   -3.146365    2.098190
     57          1           0       -6.646400   -2.142380    0.930784
     58          1           0        2.213214    1.544785    1.544666
     59          1           0        0.855598    1.995767    2.477116
     60          1           0        0.424603    0.107896   -0.137605
     61          1           0        4.558409   -2.194937   -2.981377
     62          1           0        3.922496   -2.859905   -1.424729
     63          1           0       -5.401445   -2.577581   -2.859849
     64          1           0        5.014694   -1.255628   -0.124457
     65          1           0        5.566533   -0.234376   -1.295899
     66          1           0        3.927029    0.089855   -4.142662
     67          1           0        3.301093    1.503736   -4.064700
     68          1           0        2.226287    0.237026   -4.832914
     69          1           0        0.635830    2.201975   -3.154607
     70          1           0       -6.808651   -4.126442   -0.432112
     71          1           0       -7.273289   -4.170681   -2.221295
     72          1           0        3.488254    4.101637    3.050570
     73          1           0       -0.588708    4.022813   -3.439607
     74          1           0       -4.010480    4.348747   -0.805593
     75          1           0       -3.501811    4.357463    0.787060
     76          1           0       -2.560104    5.491653   -0.506831
     77          1           0        8.406582   -2.163610   -0.496368
     78          1           0       -1.737792    5.926806   -3.933330
     79          1           0       -2.989535    5.570687   -2.455738
 ---------------------------------------------------------------------

 SCF Done:  E(RB3LYP) =  -1947.84894453     A.U. after   22 cycles

 Excitation energies and oscillator strengths:

 Excited State   1:      Singlet-A      0.5040 eV 2459.83 nm  f=0.0018  <S**2>=0.000
     155 ->156         0.70493
 This state for optimization and/or second-order correction.
 Total Energy, E(TD-HF/TD-DFT) =  -1947.83042152
 Copying the excited state density for this state as the 1-particle RhoCI density.

 The electronic state is 1-A.
 Alpha  occ. eigenvalues --  -19.21435 -19.18018 -19.12637 -19.11239 -19.10955
 Alpha  occ. eigenvalues --  -19.06612 -14.37282 -14.36580 -14.32261 -14.30762
 Alpha  occ. eigenvalues --  -10.32683 -10.30045 -10.28367 -10.27597 -10.26074
 Alpha  occ. eigenvalues --  -10.25293 -10.25165 -10.25049 -10.23577 -10.23391
 Alpha  occ. eigenvalues --  -10.22120 -10.21885 -10.21688 -10.21615 -10.21049
 Alpha  occ. eigenvalues --  -10.21034 -10.20760 -10.20627 -10.20343 -10.20271
 Alpha  occ. eigenvalues --  -10.19995 -10.19965 -10.19648 -10.19477 -10.19470
 Alpha  occ. eigenvalues --  -10.19361 -10.19333 -10.18913 -10.18622 -10.17770
 Alpha  occ. eigenvalues --  -10.16686 -10.16310 -10.15291  -1.13877  -1.12456
 Alpha  occ. eigenvalues --   -1.02294  -1.00816  -1.00501  -0.99946  -0.98274
 Alpha  occ. eigenvalues --   -0.94821  -0.92203  -0.91015  -0.85446  -0.82878
 Alpha  occ. eigenvalues --   -0.81932  -0.80934  -0.80742  -0.79745  -0.79033
 Alpha  occ. eigenvalues --   -0.77564  -0.77428  -0.76495  -0.74210  -0.73512
 Alpha  occ. eigenvalues --   -0.71980  -0.71080  -0.70602  -0.69555  -0.68270
 Alpha  occ. eigenvalues --   -0.66658  -0.65841  -0.64069  -0.63399  -0.61138
 Alpha  occ. eigenvalues --   -0.60063  -0.59464  -0.58704  -0.58384  -0.57473
 Alpha  occ. eigenvalues --   -0.55927  -0.55183  -0.54583  -0.53332  -0.52647
 Alpha  occ. eigenvalues --   -0.52285  -0.51766  -0.50892  -0.50712  -0.50326
 Alpha  occ. eigenvalues --   -0.49582  -0.49299  -0.48994  -0.48558  -0.48099
 Alpha  occ. eigenvalues --   -0.47844  -0.47511  -0.47257  -0.46390  -0.46092
 Alpha  occ. eigenvalues --   -0.45796  -0.45436  -0.45303  -0.44948  -0.44339
 Alpha  occ. eigenvalues --   -0.44162  -0.43496  -0.42816  -0.42528  -0.42432
 Alpha  occ. eigenvalues --   -0.42033  -0.41976  -0.41852  -0.41090  -0.40870
 Alpha  occ. eigenvalues --   -0.40791  -0.40650  -0.40477  -0.40030  -0.39964
 Alpha  occ. eigenvalues --   -0.39675  -0.39271  -0.38902  -0.38739  -0.38544
 Alpha  occ. eigenvalues --   -0.38339  -0.37466  -0.37211  -0.36882  -0.36346
 Alpha  occ. eigenvalues --   -0.35972  -0.35367  -0.35365  -0.34630  -0.34264
 Alpha  occ. eigenvalues --   -0.33645  -0.32350  -0.32141  -0.31833  -0.31565
 Alpha  occ. eigenvalues --   -0.30936  -0.30162  -0.29886  -0.28829  -0.27311
 Alpha  occ. eigenvalues --   -0.27222  -0.26410  -0.25614  -0.24788  -0.23268
 Alpha  occ. eigenvalues --   -0.23187  -0.22476  -0.22272  -0.21945  -0.18005
 Alpha virt. eigenvalues --   -0.13610  -0.07858  -0.03958  -0.01240  -0.00086
 Alpha virt. eigenvalues --    0.01286   0.01706   0.02363   0.02990   0.03177
 Alpha virt. eigenvalues --    0.03588   0.03910   0.04956   0.05416   0.05748

 Mulliken charges:
               1
     1  O   -0.240075
     2  O   -0.115151
     3  O   -0.221401
     4  O   -0.108149
     5  O   -0.314110
     6  O   -0.226238
     7  N   -0.115108
     8  N   -0.200347
     9  N   -0.029535
    10  N   -0.372781
    11  C    0.022371
    12  C    0.253475
    13  C   -0.084675
    14  C   -0.167494
    15  C   -0.093635
    16  C    0.008143
    17  C   -0.207609
    18  C    0.120149
    19  C    0.032160
    20  C   -0.112187
    21  C    0.022025
    22  C    0.093007
    23  C   -0.057860
    24  C    0.196899
    25  C    0.048085
    26  C   -0.084872
    27  C    0.001985
    28  C    0.126976
    29  C    0.083113
    30  C   -0.075929
    31  C    0.039980
    32  C    0.091682
    33  C   -0.054038
    34  C    0.056483
    35  C    0.154709
    36  C   -0.083451
    37  C    0.090114
    38  C    0.125335
    39  C   -0.230122
    40  C    0.207192
    41  C   -0.088460
    42  C    0.151629
    43  C   -0.022291
    44  H    0.032203
    45  H   -0.006020
    46  H   -0.023117
    47  H    0.142678
    48  H    0.170458
    49  H    0.041998
    50  H    0.008959
    51  H    0.013381
    52  H   -0.024994
    53  H   -0.053749
    54  H    0.064240
    55  H    0.026507
    56  H    0.053430
    57  H    0.029769
    58  H    0.012104
    59  H    0.032600
    60  H    0.120568
    61  H    0.048769
    62  H    0.043295
    63  H    0.047533
    64  H   -0.007343
    65  H    0.025461
    66  H   -0.004023
    67  H    0.019728
    68  H    0.058502
    69  H   -0.048491
    70  H    0.011441
    71  H    0.038626
    72  H    0.164484
    73  H   -0.022548
    74  H    0.026577
    75  H   -0.006064
    76  H    0.062620
    77  H    0.231062
    78  H    0.028023
    79  H    0.021339
 Sum of Mulliken charges =  -0.00000

 Dipole moment (field-independent basis, Debye):
    X=              4.7178    Y=              3.3591    Z=             -1.8547  Tot=              6.0812
 Quadrupole moment (field-independent basis, Debye-Ang):
   XX=           -224.9502   YY=           -243.4810   ZZ=           -264.1860
   XY=              6.1609   XZ=            -24.6447   YZ=            -18.1565

 Normal termination of Gaussian 16 at Sat Jul 27 23:04:39 2019.
