 Gaussian 16, Revision A.03,
 Gaussian 16:  ES64L-G16RevA.03 25-Dec-2016

 --------------------------
 # td=(NStates=1) B3LYP/SVP
 --------------------------

 --
 TD
 --
 Symbolic Z-matrix:
 Charge =  0 Multiplicity = 1

                         Standard orientation:
 ---------------------------------------------------------------------
 Center     Atomic      Atomic             Coordinates (Angstroms)
 Number     Number       Type             X           Y           Z
 ---------------------------------------------------------------------
      1          8           0        5.214136   -0.448092   -3.216686
      2          8           0       -2.874022   -2.834645    3.192448
      3          8           0       -3.322960   -0.640175    3.063439
      4          8           0       -1.966456    7.281028    1.212385
      5          8           0       -0.267956    6.843513   -0.505143
      6          8           0       -1.650650   -3.993393    0.128652
      7          7           0        2.321823    1.077385    0.470143
      8          7           0        4.351176   -0.668018   -1.107908
      9          7           0       -1.852801    0.714108   -0.421287
     10          7           0       -2.569822   -1.928581   -0.400188
     11          6           0        4.815446   -1.162634    0.100020
     12          6           0        4.358707   -0.279588    1.214274
     13          6           0        2.911034    0.061854    1.242888
     14          6           0        1.899817   -0.498268    2.083219
     15          6           0        0.655712    0.137329    1.738125
     16          6           0        0.962277    1.130972    0.776952
     17          6           0        6.228438   -1.336415   -0.123919
     18          6           0       -0.572351   -0.164324    2.565677
     19          6           0        6.696130   -1.000435   -1.321488
     20          6           0        0.211954    2.048203    0.025407
     21          6           0       -1.071591    1.851758   -0.436593
     22          6           0        5.385178   -0.664710   -2.012816
     23          6           0       -2.063250    2.917596   -0.998005
     24          6           0        2.096673   -1.410841    3.265173
     25          6           0        7.227529   -1.682891    1.049709
     26          6           0       -3.227818    2.281166   -1.261754
     27          6           0       -1.104246   -1.496970    2.521225
     28          6           0       -3.089325    0.816789   -0.969694
     29          6           0       -1.659622    4.406010   -1.089392
     30          6           0        7.976536   -0.855741   -2.038883
     31          6           0       -1.931912    5.081180    0.249322
     32          6           0       -4.415436    2.880966   -1.921895
     33          6           0       -3.974825   -0.278656   -1.369512
     34          6           0       -2.554500   -1.601063    2.927241
     35          6           0       -3.670121   -1.591766   -1.077613
     36          6           0        9.164077   -0.652060   -1.559189
     37          6           0       -1.243910    6.420081    0.287127
     38          6           0       -4.510025   -2.701278   -1.403628
     39          6           0       -3.732514   -3.892558   -1.023992
     40          6           0       -2.550441   -3.337270   -0.396905
     41          6           0       -5.797937   -2.599494   -1.913356
     42          6           0       -4.072930   -5.383901   -1.133888
     43          6           0       -6.593973   -3.641422   -2.354063
     44          1           0        4.460071   -2.183579    0.366451
     45          1           0        5.008616    0.630918    1.014020
     46          1           0        4.334406   -0.896928    2.174028
     47          1           0        2.724189    1.698884   -0.189266
     48          1           0        3.467052   -0.664094   -1.646265
     49          1           0       -0.375332    0.439200    3.586235
     50          1           0       -1.376304    0.685222    2.358898
     51          1           0        0.683285    2.967901   -0.211193
     52          1           0        3.213521   -1.262239    3.819417
     53          1           0        1.444136   -1.160852    4.009672
     54          1           0        2.051263   -2.492486    2.829844
     55          1           0        6.708054   -2.431327    1.590934
     56          1           0        7.490808   -0.797954    1.781700
     57          1           0        8.034993   -2.208501    0.687331
     58          1           0       -1.152830   -1.831723    1.522325
     59          1           0       -0.742260   -2.197949    3.320204
     60          1           0       -1.660182   -0.157376   -0.149508
     61          1           0       -2.251266    4.831612   -1.965482
     62          1           0       -0.620484    4.575637   -1.398771
     63          1           0        7.818727   -0.673723   -3.192631
     64          1           0       -1.446292    4.515983    0.995523
     65          1           0       -3.031983    5.244767    0.429608
     66          1           0       -4.487492    4.059420   -2.247760
     67          1           0       -5.170007    2.924626   -0.997894
     68          1           0       -4.692776    2.232637   -2.726708
     69          1           0       -4.698336    0.084039   -1.973309
     70          1           0        9.201348   -0.716682   -0.284964
     71          1           0       10.077125   -0.336674   -1.971936
     72          1           0       -4.021176   -2.934881    3.194040
     73          1           0       -6.297459   -1.473224   -1.708512
     74          1           0       -5.095086   -5.589704   -0.750251
     75          1           0       -4.163062   -5.793908   -2.162179
     76          1           0       -3.148092   -6.047352   -0.603733
     77          1           0       -1.592688    8.132672    1.211632
     78          1           0       -7.529974   -3.394120   -2.969953
     79          1           0       -6.490569   -4.618108   -2.366265
 ---------------------------------------------------------------------

 SCF Done:  E(RB3LYP) =  -1947.79806215     A.U. after   18 cycles

 Excitation energies and oscillator strengths:

 Excited State   1:      Singlet-A      1.8952 eV  654.21 nm  f=0.2786  <S**2>=0.000
     154 ->156         0.31693
     155 ->156         0.63037
 This state for optimization and/or second-order correction.
 Total Energy, E(TD-HF/TD-DFT) =  -1947.72841553
 Copying the excited state density for this state as the 1-particle RhoCI density.

 The electronic state is 1-A.
 Alpha  occ. eigenvalues --  -19.19089 -19.18345 -19.15055 -19.10041 -19.09531
 Alpha  occ. eigenvalues --  -19.09297 -14.38494 -14.37149 -14.35272 -14.28161
 Alpha  occ. eigenvalues --  -10.35009 -10.29887 -10.27797 -10.25996 -10.25530
 Alpha  occ. eigenvalues --  -10.25115 -10.24315 -10.23708 -10.23093 -10.22544
 Alpha  occ. eigenvalues --  -10.22343 -10.22122 -10.21929 -10.21902 -10.21888
 Alpha  occ. eigenvalues --  -10.21845 -10.21702 -10.21695 -10.21397 -10.21037
 Alpha  occ. eigenvalues --  -10.20972 -10.20624 -10.20578 -10.20564 -10.20546
 Alpha  occ. eigenvalues --  -10.20284 -10.20072 -10.20035 -10.19807 -10.19691
 Alpha  occ. eigenvalues --  -10.19593 -10.19057 -10.18101  -1.07868  -1.06603
 Alpha  occ. eigenvalues --   -1.02323  -1.00255  -0.99247  -0.98060  -0.97852
 Alpha  occ. eigenvalues --   -0.97116  -0.95466  -0.91769  -0.83286  -0.82633
 Alpha  occ. eigenvalues --   -0.82151  -0.81925  -0.80228  -0.80002  -0.79193
 Alpha  occ. eigenvalues --   -0.77609  -0.77045  -0.76278  -0.73921  -0.72705
 Alpha  occ. eigenvalues --   -0.71637  -0.71280  -0.69963  -0.69339  -0.69015
 Alpha  occ. eigenvalues --   -0.66952  -0.66562  -0.64095  -0.61771  -0.60826
 Alpha  occ. eigenvalues --   -0.60471  -0.59349  -0.58328  -0.57910  -0.57437
 Alpha  occ. eigenvalues --   -0.56848  -0.55791  -0.55347  -0.54701  -0.53213
 Alpha  occ. eigenvalues --   -0.52867  -0.52294  -0.51671  -0.50909  -0.49905
 Alpha  occ. eigenvalues --   -0.49021  -0.48831  -0.48545  -0.47992  -0.47763
 Alpha  occ. eigenvalues --   -0.47299  -0.47071  -0.46036  -0.45892  -0.45350
 Alpha  occ. eigenvalues --   -0.45105  -0.44813  -0.44245  -0.43840  -0.43711
 Alpha  occ. eigenvalues --   -0.43696  -0.42942  -0.42827  -0.42528  -0.42222
 Alpha  occ. eigenvalues --   -0.41940  -0.41867  -0.41749  -0.41524  -0.41263
 Alpha  occ. eigenvalues --   -0.41103  -0.40632  -0.40120  -0.39690  -0.39535
 Alpha  occ. eigenvalues --   -0.39439  -0.39265  -0.38953  -0.38658  -0.38163
 Alpha  occ. eigenvalues --   -0.37759  -0.37535  -0.37280  -0.37002  -0.36679
 Alpha  occ. eigenvalues --   -0.35954  -0.35776  -0.35060  -0.34658  -0.34481
 Alpha  occ. eigenvalues --   -0.33561  -0.33155  -0.32510  -0.32383  -0.30740
 Alpha  occ. eigenvalues --   -0.30549  -0.30004  -0.29285  -0.28480  -0.27316
 Alpha  occ. eigenvalues --   -0.26465  -0.26395  -0.25557  -0.25208  -0.24829
 Alpha  occ. eigenvalues --   -0.24516  -0.23710  -0.23364  -0.21111  -0.19210
 Alpha virt. eigenvalues --   -0.11366  -0.07250  -0.05147  -0.04736  -0.01410
 Alpha virt. eigenvalues --    0.00185   0.00398   0.01553   0.02747   0.02838
 Alpha virt. eigenvalues --    0.03136   0.03729   0.04299   0.04548   0.05208

 Mulliken charges:
               1
     1  O   -0.251783
     2  O   -0.226307
     3  O   -0.269420
     4  O   -0.223720
     5  O   -0.301280
     6  O   -0.219052
     7  N   -0.079740
     8  N   -0.159438
     9  N    0.036319
    10  N   -0.297583
    11  C    0.125220
    12  C    0.257853
    13  C   -0.098962
    14  C   -0.135764
    15  C   -0.074219
    16  C    0.079941
    17  C   -0.256513
    18  C   -0.056159
    19  C    0.004805
    20  C   -0.065486
    21  C    0.082756
    22  C    0.078431
    23  C   -0.104884
    24  C    0.057127
    25  C    0.126344
    26  C   -0.123011
    27  C    0.140060
    28  C    0.035818
    29  C    0.062604
    30  C    0.011846
    31  C    0.075270
    32  C    0.001079
    33  C   -0.064473
    34  C    0.087590
    35  C    0.164595
    36  C   -0.064929
    37  C    0.200555
    38  C    0.037413
    39  C   -0.138938
    40  C    0.133116
    41  C   -0.082741
    42  C    0.015510
    43  C   -0.008582
    44  H    0.008638
    45  H   -0.012874
    46  H   -0.012414
    47  H    0.105472
    48  H    0.144822
    49  H    0.025308
    50  H    0.018681
    51  H   -0.022780
    52  H    0.035861
    53  H    0.010595
    54  H    0.064032
    55  H   -0.015001
    56  H    0.060149
    57  H    0.008784
    58  H    0.056475
    59  H    0.033406
    60  H    0.071215
    61  H    0.023581
    62  H    0.031120
    63  H    0.041664
    64  H    0.036495
    65  H    0.061342
    66  H    0.047276
    67  H    0.049271
    68  H    0.046266
    69  H   -0.078609
    70  H    0.029678
    71  H    0.022095
    72  H    0.257048
    73  H    0.046227
    74  H    0.031403
    75  H    0.031340
    76  H    0.065769
    77  H    0.168288
    78  H    0.031397
    79  H   -0.033289
 Sum of Mulliken charges =  -0.00000

 Dipole moment (field-independent basis, Debye):
    X=             -0.5066    Y=              2.8084    Z=              2.5956  Tot=              3.8576
 Quadrupole moment (field-independent basis, Debye-Ang):
   XX=           -219.9297   YY=           -243.6489   ZZ=           -264.0232
   XY=             -4.7069   XZ=             31.4581   YZ=              1.5922

 Normal termination of Gaussian 16 at Sat Sep 14 18:31:26 2019.
