 Gaussian 16, Revision A.03,
 Gaussian 16:  ES64L-G16RevA.03 25-Dec-2016

 --------------------------
 # td=(NStates=1) B3LYP/SVP
 --------------------------

 --
 TD
 --
 Symbolic Z-matrix:
 Charge =  0 Multiplicity = 1

                         Standard orientation:
 ---------------------------------------------------------------------
 Center     Atomic      Atomic             Coordinates (Angstroms)
 Number     Number       Type             X           Y           Z
 ---------------------------------------------------------------------
      1          8           0       -3.328872   -1.904824   -2.694819
      2          8           0        2.798229    3.737365    2.631823
      3          8           0        3.536518    2.260591    4.077138
      4          8           0        7.787402   -1.639364   -0.511686
      5          8           0        6.664727   -3.407466   -1.312707
      6          8           0       -2.524910    1.792254    1.359866
      7          7           0       -0.198588   -2.351255    1.253996
      8          7           0       -2.613967   -1.226128   -0.544010
      9          7           0        1.192544   -0.004893   -0.679893
     10          7           0       -0.964968    1.347847   -0.409332
     11          6           0       -3.271877   -1.277475    0.762276
     12          6           0       -2.584515   -2.137046    1.856546
     13          6           0       -1.227566   -1.795920    2.036608
     14          6           0       -0.556553   -0.791604    2.887105
     15          6           0        0.849089   -0.701485    2.598547
     16          6           0        0.986229   -1.669855    1.517919
     17          6           0       -4.634144   -1.803741    0.508775
     18          6           0        1.832455    0.263651    3.067472
     19          6           0       -4.812017   -2.167426   -0.773301
     20          6           0        2.153450   -1.793959    0.590628
     21          6           0        2.186970   -0.937121   -0.507248
     22          6           0       -3.492810   -1.720396   -1.428620
     23          6           0        3.103815   -0.864586   -1.649484
     24          6           0       -1.360971    0.068471    3.820789
     25          6           0       -5.585745   -2.031494    1.591099
     26          6           0        2.476089    0.015860   -2.486445
     27          6           0        1.654398    1.708638    2.545852
     28          6           0        1.302244    0.709732   -1.895975
     29          6           0        4.352327   -1.776415   -1.874166
     30          6           0       -5.792315   -2.766091   -1.626161
     31          6           0        5.484502   -1.289315   -0.968598
     32          6           0        3.073991    0.564416   -3.853934
     33          6           0        0.501164    1.653702   -2.313839
     34          6           0        2.747819    2.558357    3.208282
     35          6           0       -0.615884    2.062378   -1.520016
     36          6           0       -6.924123   -3.507137   -1.170811
     37          6           0        6.684466   -2.201151   -1.031416
     38          6           0       -1.496706    3.237320   -1.735897
     39          6           0       -2.305215    3.222397   -0.629755
     40          6           0       -2.032784    2.066107    0.180232
     41          6           0       -1.299597    4.194288   -2.756462
     42          6           0       -3.420486    4.195684   -0.191039
     43          6           0       -2.034322    5.214782   -3.230347
     44          1           0       -3.248570   -0.424708    1.290038
     45          1           0       -2.669524   -3.225369    1.408010
     46          1           0       -3.053772   -2.314043    2.646155
     47          1           0       -0.381521   -2.984684    0.370634
     48          1           0       -2.006182   -0.598639   -0.791868
     49          1           0        1.611266    0.174669    4.245462
     50          1           0        2.914814   -0.249545    2.906594
     51          1           0        3.064302   -2.403233    0.787985
     52          1           0       -1.931483   -0.332379    4.609850
     53          1           0       -0.569979    0.686491    4.364968
     54          1           0       -2.007059    0.789685    2.983561
     55          1           0       -5.517036   -1.330232    2.572796
     56          1           0       -5.736365   -3.056785    2.033395
     57          1           0       -6.556726   -1.585398    1.142068
     58          1           0        1.954738    1.683209    1.344153
     59          1           0        0.788898    2.232681    3.009073
     60          1           0        0.519830    0.400918    0.008136
     61          1           0        4.676100   -1.958202   -2.882247
     62          1           0        4.076217   -2.654242   -1.578696
     63          1           0       -5.622133   -2.623688   -2.755253
     64          1           0        5.123718   -1.213628    0.071279
     65          1           0        5.974459   -0.339847   -1.249830
     66          1           0        4.029055   -0.046545   -4.319801
     67          1           0        3.669408    1.612773   -3.626399
     68          1           0        2.268631    0.629062   -4.580693
     69          1           0        0.772190    2.201776   -3.167957
     70          1           0       -7.025011   -3.760295   -0.005461
     71          1           0       -7.686116   -3.891557   -1.915313
     72          1           0        3.424582    4.374952    3.107930
     73          1           0       -0.703845    3.708041   -3.619101
     74          1           0       -4.089258    4.240231   -0.981536
     75          1           0       -4.007224    3.831457    0.849607
     76          1           0       -3.045692    5.223623   -0.221147
     77          1           0        8.509296   -2.297849   -0.357848
     78          1           0       -1.798927    5.612517   -4.208893
     79          1           0       -2.739239    5.799964   -2.403608
 ---------------------------------------------------------------------

 SCF Done:  E(RB3LYP) =  -1947.79003994     A.U. after   23 cycles

 Excitation energies and oscillator strengths:

 Excited State   1:      Singlet-A      0.5567 eV 2227.29 nm  f=0.0001  <S**2>=0.000
     155 ->156         0.70454
 This state for optimization and/or second-order correction.
 Total Energy, E(TD-HF/TD-DFT) =  -1947.76958306
 Copying the excited state density for this state as the 1-particle RhoCI density.

 The electronic state is 1-A.
 Alpha  occ. eigenvalues --  -19.19491 -19.18081 -19.13246 -19.13203 -19.11518
 Alpha  occ. eigenvalues --  -19.07168 -14.37355 -14.36938 -14.33579 -14.31677
 Alpha  occ. eigenvalues --  -10.33164 -10.31117 -10.29146 -10.26445 -10.26324
 Alpha  occ. eigenvalues --  -10.26267 -10.25431 -10.23359 -10.23027 -10.22972
 Alpha  occ. eigenvalues --  -10.22780 -10.22611 -10.22504 -10.22422 -10.22156
 Alpha  occ. eigenvalues --  -10.22093 -10.22029 -10.21502 -10.21345 -10.21198
 Alpha  occ. eigenvalues --  -10.20808 -10.20793 -10.20697 -10.20569 -10.20311
 Alpha  occ. eigenvalues --  -10.20020 -10.19838 -10.19795 -10.18391 -10.18277
 Alpha  occ. eigenvalues --  -10.17757 -10.17368 -10.17316  -1.10213  -1.09963
 Alpha  occ. eigenvalues --   -1.00362  -1.00052  -0.99495  -0.98758  -0.98574
 Alpha  occ. eigenvalues --   -0.94390  -0.93625  -0.91697  -0.83910  -0.82739
 Alpha  occ. eigenvalues --   -0.82432  -0.81995  -0.80143  -0.79302  -0.79054
 Alpha  occ. eigenvalues --   -0.77296  -0.76171  -0.75191  -0.73779  -0.72269
 Alpha  occ. eigenvalues --   -0.71489  -0.69971  -0.69647  -0.69206  -0.67693
 Alpha  occ. eigenvalues --   -0.66730  -0.65565  -0.63909  -0.61985  -0.61414
 Alpha  occ. eigenvalues --   -0.60481  -0.60052  -0.59485  -0.58415  -0.57126
 Alpha  occ. eigenvalues --   -0.56641  -0.55816  -0.53779  -0.53246  -0.52436
 Alpha  occ. eigenvalues --   -0.51734  -0.51199  -0.50579  -0.50175  -0.49790
 Alpha  occ. eigenvalues --   -0.49277  -0.49023  -0.48513  -0.48310  -0.47733
 Alpha  occ. eigenvalues --   -0.47315  -0.47173  -0.47019  -0.46356  -0.45863
 Alpha  occ. eigenvalues --   -0.45830  -0.45194  -0.44747  -0.44462  -0.44247
 Alpha  occ. eigenvalues --   -0.43597  -0.43130  -0.42714  -0.42684  -0.42426
 Alpha  occ. eigenvalues --   -0.41558  -0.41347  -0.40983  -0.40464  -0.40422
 Alpha  occ. eigenvalues --   -0.40241  -0.39942  -0.39883  -0.39498  -0.39465
 Alpha  occ. eigenvalues --   -0.39154  -0.38861  -0.38690  -0.37909  -0.37524
 Alpha  occ. eigenvalues --   -0.37246  -0.36975  -0.36582  -0.36400  -0.36166
 Alpha  occ. eigenvalues --   -0.35935  -0.35170  -0.35004  -0.34244  -0.33817
 Alpha  occ. eigenvalues --   -0.33428  -0.33008  -0.32880  -0.32401  -0.31671
 Alpha  occ. eigenvalues --   -0.31343  -0.29845  -0.29711  -0.29205  -0.28656
 Alpha  occ. eigenvalues --   -0.27478  -0.27042  -0.26503  -0.24707  -0.24525
 Alpha  occ. eigenvalues --   -0.22777  -0.22479  -0.22118  -0.21958  -0.18096
 Alpha virt. eigenvalues --   -0.13662  -0.08086  -0.04477  -0.03032  -0.01897
 Alpha virt. eigenvalues --    0.01226   0.01334   0.02229   0.02429   0.03231
 Alpha virt. eigenvalues --    0.03564   0.03848   0.04137   0.04560   0.04703

 Mulliken charges:
               1
     1  O   -0.321651
     2  O   -0.183716
     3  O   -0.229260
     4  O   -0.187625
     5  O   -0.254244
     6  O   -0.277334
     7  N   -0.116180
     8  N   -0.061221
     9  N   -0.128462
    10  N   -0.337166
    11  C    0.198140
    12  C    0.234092
    13  C   -0.061809
    14  C   -0.138353
    15  C   -0.051801
    16  C   -0.009421
    17  C   -0.150842
    18  C   -0.012229
    19  C    0.000497
    20  C   -0.118403
    21  C    0.082313
    22  C    0.109685
    23  C   -0.066382
    24  C   -0.005059
    25  C   -0.025554
    26  C   -0.131792
    27  C    0.011559
    28  C    0.171822
    29  C    0.261707
    30  C   -0.046748
    31  C   -0.023653
    32  C   -0.026524
    33  C   -0.071240
    34  C    0.083088
    35  C    0.086414
    36  C   -0.088659
    37  C    0.128853
    38  C    0.079562
    39  C   -0.183934
    40  C    0.217546
    41  C   -0.046280
    42  C    0.090590
    43  C   -0.061045
    44  H   -0.031956
    45  H   -0.026013
    46  H   -0.086763
    47  H    0.160181
    48  H    0.067095
    49  H    0.044377
    50  H    0.030388
    51  H    0.017877
    52  H    0.002718
    53  H   -0.018553
    54  H    0.109159
    55  H    0.025571
    56  H    0.056161
    57  H    0.049472
    58  H    0.075112
    59  H    0.060634
    60  H    0.206946
    61  H    0.006060
    62  H   -0.040691
    63  H    0.043783
    64  H    0.056879
    65  H    0.033350
    66  H    0.042711
    67  H    0.056744
    68  H    0.047022
    69  H   -0.039627
    70  H    0.045749
    71  H    0.040948
    72  H    0.199793
    73  H    0.020119
    74  H    0.008445
    75  H    0.079133
    76  H    0.022550
    77  H    0.200837
    78  H    0.042314
    79  H    0.052194
 Sum of Mulliken charges =  -0.00000

 Dipole moment (field-independent basis, Debye):
    X=              3.4297    Y=              4.6495    Z=             -1.5823  Tot=              5.9904
 Quadrupole moment (field-independent basis, Debye-Ang):
   XX=           -234.1427   YY=           -240.4864   ZZ=           -263.6968
   XY=              0.0500   XZ=            -20.7931   YZ=            -19.9390

 Normal termination of Gaussian 16 at Sun Jul 28 23:49:44 2019.
