 Gaussian 16, Revision A.03,
 Gaussian 16:  ES64L-G16RevA.03 25-Dec-2016

 --------------------------
 # td=(NStates=1) B3LYP/SVP
 --------------------------

 --
 TD
 --
 Symbolic Z-matrix:
 Charge =  0 Multiplicity = 1

                         Standard orientation:
 ---------------------------------------------------------------------
 Center     Atomic      Atomic             Coordinates (Angstroms)
 Number     Number       Type             X           Y           Z
 ---------------------------------------------------------------------
      1          8           0       -3.359407   -1.639612   -2.723191
      2          8           0        2.960256    3.451333    2.940802
      3          8           0        3.848454    1.770391    4.269508
      4          8           0        7.744602   -1.693725   -0.618683
      5          8           0        6.617287   -3.236231   -1.808971
      6          8           0       -2.672455    1.833712    1.370189
      7          7           0       -0.291007   -2.288995    1.144942
      8          7           0       -2.693249   -1.245545   -0.533429
      9          7           0        1.126807   -0.097921   -0.767839
     10          7           0       -0.927324    1.491797   -0.165956
     11          6           0       -3.369361   -1.207099    0.768879
     12          6           0       -2.684556   -2.152326    1.861521
     13          6           0       -1.246499   -1.858558    2.004746
     14          6           0       -0.560566   -0.857771    2.830292
     15          6           0        0.752041   -0.857860    2.501002
     16          6           0        0.939742   -1.715751    1.428523
     17          6           0       -4.716610   -1.809178    0.353740
     18          6           0        1.889798   -0.121450    3.251633
     19          6           0       -4.821602   -2.132923   -0.936575
     20          6           0        2.081691   -1.847935    0.540967
     21          6           0        2.183184   -0.972717   -0.569654
     22          6           0       -3.583119   -1.655284   -1.518774
     23          6           0        3.004793   -0.817581   -1.701422
     24          6           0       -1.334278   -0.061691    3.878720
     25          6           0       -5.813020   -1.915716    1.370530
     26          6           0        2.529562    0.229265   -2.543934
     27          6           0        2.043177    1.292193    2.690843
     28          6           0        1.406467    0.782317   -1.800675
     29          6           0        4.175317   -1.647480   -1.891831
     30          6           0       -5.967130   -2.705144   -1.733372
     31          6           0        5.469854   -1.132920   -1.321933
     32          6           0        3.250168    0.754679   -3.687403
     33          6           0        0.478192    1.800270   -2.169989
     34          6           0        3.101451    2.116359    3.468046
     35          6           0       -0.547586    2.111662   -1.310182
     36          6           0       -6.924290   -3.511849   -1.275502
     37          6           0        6.691849   -2.131874   -1.313584
     38          6           0       -1.375341    3.400474   -1.494163
     39          6           0       -2.274243    3.386473   -0.454562
     40          6           0       -2.051751    2.147045    0.388135
     41          6           0       -1.218462    4.232381   -2.732855
     42          6           0       -3.399892    4.382829   -0.191469
     43          6           0       -1.932434    5.392190   -2.987777
     44          1           0       -3.486452   -0.144627    0.938275
     45          1           0       -2.734337   -3.214908    1.583607
     46          1           0       -3.170772   -1.973433    2.888488
     47          1           0       -0.407525   -2.933808    0.419541
     48          1           0       -2.010121   -0.434991   -0.783012
     49          1           0        1.898429   -0.166010    4.465024
     50          1           0        2.722967   -0.744788    3.217610
     51          1           0        2.679872   -2.718049    0.386124
     52          1           0       -1.967153   -0.651447    4.396915
     53          1           0       -0.641427    0.540685    4.607130
     54          1           0       -1.839613    0.674716    3.484224
     55          1           0       -5.997962   -0.939468    2.023512
     56          1           0       -5.691971   -2.847708    1.876882
     57          1           0       -6.897164   -1.935330    1.010544
     58          1           0        2.314160    1.326602    1.529532
     59          1           0        1.071305    1.558889    2.813821
     60          1           0        0.403167    0.094550   -0.216359
     61          1           0        4.381551   -2.025565   -2.977380
     62          1           0        4.202025   -2.831997   -1.454621
     63          1           0       -6.117603   -2.387021   -2.828166
     64          1           0        5.184433   -0.770562   -0.224160
     65          1           0        5.669628   -0.218070   -1.944519
     66          1           0        3.846620   -0.021724   -4.251307
     67          1           0        3.896800    1.528068   -3.430455
     68          1           0        2.450646    0.977387   -4.387481
     69          1           0        0.643964    2.451033   -3.099366
     70          1           0       -7.149312   -3.776100   -0.350475
     71          1           0       -7.929285   -3.586819   -1.997845
     72          1           0        3.840574    3.850985    3.462985
     73          1           0       -0.635080    3.803643   -3.438543
     74          1           0       -4.134938    4.411218   -1.058649
     75          1           0       -4.040621    4.064351    0.694614
     76          1           0       -2.991115    5.301480    0.093673
     77          1           0        8.439185   -2.303119   -0.733979
     78          1           0       -1.744553    5.871260   -3.740655
     79          1           0       -2.734083    5.778190   -2.368337
 ---------------------------------------------------------------------

 SCF Done:  E(RB3LYP) =  -1947.82808904     A.U. after   21 cycles

 Excitation energies and oscillator strengths:

 Excited State   1:      Singlet-A      1.0245 eV 1210.23 nm  f=0.0182  <S**2>=0.000
     155 ->156         0.70381
 This state for optimization and/or second-order correction.
 Total Energy, E(TD-HF/TD-DFT) =  -1947.79044065
 Copying the excited state density for this state as the 1-particle RhoCI density.

 The electronic state is 1-A.
 Alpha  occ. eigenvalues --  -19.20249 -19.17164 -19.14763 -19.14494 -19.12310
 Alpha  occ. eigenvalues --  -19.07305 -14.37322 -14.36640 -14.32716 -14.30250
 Alpha  occ. eigenvalues --  -10.34284 -10.31785 -10.28102 -10.26854 -10.25753
 Alpha  occ. eigenvalues --  -10.25376 -10.24487 -10.23359 -10.23104 -10.22861
 Alpha  occ. eigenvalues --  -10.22680 -10.22609 -10.22508 -10.21284 -10.21156
 Alpha  occ. eigenvalues --  -10.21024 -10.20949 -10.20878 -10.20821 -10.20646
 Alpha  occ. eigenvalues --  -10.20455 -10.20276 -10.20096 -10.19727 -10.19663
 Alpha  occ. eigenvalues --  -10.19285 -10.19037 -10.18909 -10.18508 -10.18421
 Alpha  occ. eigenvalues --  -10.17070 -10.16746 -10.15734  -1.12421  -1.10023
 Alpha  occ. eigenvalues --   -1.03762  -1.02796  -1.00146  -0.99788  -0.99300
 Alpha  occ. eigenvalues --   -0.97515  -0.92163  -0.91386  -0.84653  -0.82574
 Alpha  occ. eigenvalues --   -0.80530  -0.80318  -0.80064  -0.79027  -0.78314
 Alpha  occ. eigenvalues --   -0.76409  -0.75868  -0.75196  -0.74768  -0.74043
 Alpha  occ. eigenvalues --   -0.71094  -0.70053  -0.69919  -0.69689  -0.67805
 Alpha  occ. eigenvalues --   -0.66066  -0.65156  -0.63395  -0.62804  -0.61652
 Alpha  occ. eigenvalues --   -0.59814  -0.58817  -0.58020  -0.57306  -0.56288
 Alpha  occ. eigenvalues --   -0.55402  -0.55105  -0.54890  -0.53615  -0.53216
 Alpha  occ. eigenvalues --   -0.52639  -0.51928  -0.51523  -0.50283  -0.49922
 Alpha  occ. eigenvalues --   -0.49193  -0.49079  -0.48653  -0.48489  -0.48040
 Alpha  occ. eigenvalues --   -0.47876  -0.47253  -0.47195  -0.46357  -0.45906
 Alpha  occ. eigenvalues --   -0.45432  -0.45094  -0.44597  -0.44512  -0.44411
 Alpha  occ. eigenvalues --   -0.44009  -0.43654  -0.43254  -0.42841  -0.42709
 Alpha  occ. eigenvalues --   -0.42479  -0.41868  -0.41647  -0.41433  -0.41190
 Alpha  occ. eigenvalues --   -0.41093  -0.40765  -0.40574  -0.40205  -0.40005
 Alpha  occ. eigenvalues --   -0.39251  -0.39061  -0.38688  -0.38180  -0.37937
 Alpha  occ. eigenvalues --   -0.37741  -0.37476  -0.36803  -0.36411  -0.36190
 Alpha  occ. eigenvalues --   -0.36010  -0.35859  -0.35511  -0.34934  -0.34439
 Alpha  occ. eigenvalues --   -0.33499  -0.32741  -0.32652  -0.32157  -0.31333
 Alpha  occ. eigenvalues --   -0.31161  -0.29959  -0.29657  -0.29399  -0.28729
 Alpha  occ. eigenvalues --   -0.28388  -0.26964  -0.25238  -0.24503  -0.24124
 Alpha  occ. eigenvalues --   -0.23802  -0.23380  -0.22832  -0.22051  -0.19076
 Alpha virt. eigenvalues --   -0.12910  -0.07634  -0.03591  -0.02050  -0.01591
 Alpha virt. eigenvalues --    0.00745   0.01501   0.02050   0.02244   0.02971
 Alpha virt. eigenvalues --    0.03371   0.04258   0.04943   0.05517   0.05542

 Mulliken charges:
               1
     1  O   -0.243507
     2  O   -0.303156
     3  O   -0.140857
     4  O   -0.130991
     5  O   -0.220961
     6  O   -0.185351
     7  N   -0.015685
     8  N   -0.264405
     9  N   -0.019043
    10  N   -0.329443
    11  C    0.143529
    12  C    0.220179
    13  C   -0.128955
    14  C   -0.133524
    15  C   -0.087619
    16  C   -0.019044
    17  C   -0.239339
    18  C    0.064008
    19  C    0.040529
    20  C   -0.028060
    21  C    0.067101
    22  C    0.093733
    23  C    0.012545
    24  C    0.210819
    25  C    0.035364
    26  C   -0.123889
    27  C    0.019546
    28  C    0.090057
    29  C   -0.097349
    30  C   -0.010553
    31  C   -0.044617
    32  C    0.129085
    33  C   -0.114845
    34  C    0.158951
    35  C    0.094403
    36  C   -0.031466
    37  C    0.153176
    38  C    0.039071
    39  C   -0.234075
    40  C    0.189513
    41  C    0.005314
    42  C    0.083507
    43  C    0.113021
    44  H    0.039999
    45  H   -0.014289
    46  H    0.020891
    47  H    0.092944
    48  H    0.165598
    49  H    0.026620
    50  H   -0.032628
    51  H   -0.013414
    52  H   -0.023505
    53  H   -0.005547
    54  H   -0.031478
    55  H    0.039399
    56  H    0.029573
    57  H    0.023903
    58  H    0.062198
    59  H    0.018468
    60  H    0.102194
    61  H    0.037759
    62  H    0.046400
    63  H    0.039521
    64  H    0.060717
    65  H    0.036711
    66  H    0.023406
    67  H    0.037480
    68  H    0.025715
    69  H    0.016418
    70  H   -0.033323
    71  H    0.030331
    72  H    0.202465
    73  H   -0.049133
    74  H    0.045190
    75  H    0.019798
    76  H    0.022828
    77  H    0.165423
    78  H   -0.065471
    79  H    0.020122
 Sum of Mulliken charges =  -0.00000

 Dipole moment (field-independent basis, Debye):
    X=              4.0413    Y=              1.9899    Z=             -1.1853  Tot=              4.6580
 Quadrupole moment (field-independent basis, Debye-Ang):
   XX=           -221.7933   YY=           -246.0228   ZZ=           -261.4144
   XY=             -0.3836   XZ=            -23.1387   YZ=            -19.7947

 Normal termination of Gaussian 16 at Sun Jul 28 20:04:31 2019.
