 Gaussian 16, Revision A.03,
 Gaussian 16:  ES64L-G16RevA.03 25-Dec-2016

 --------------------------
 # td=(NStates=1) B3LYP/SVP
 --------------------------

 --
 TD
 --
 Symbolic Z-matrix:
 Charge =  0 Multiplicity = 1

                         Standard orientation:
 ---------------------------------------------------------------------
 Center     Atomic      Atomic             Coordinates (Angstroms)
 Number     Number       Type             X           Y           Z
 ---------------------------------------------------------------------
      1          8           0        5.276522   -0.133971   -3.303457
      2          8           0       -2.995252   -2.927545    3.038749
      3          8           0       -3.393452   -0.658499    3.013012
      4          8           0       -1.709989    7.221426    1.369193
      5          8           0       -0.831132    7.017778   -0.739569
      6          8           0       -1.656940   -4.083927    0.153808
      7          7           0        2.359757    0.982480    0.648411
      8          7           0        4.334183   -0.707689   -1.268362
      9          7           0       -1.845795    0.699701   -0.307653
     10          7           0       -2.492042   -1.960813   -0.511069
     11          6           0        4.797039   -1.206447   -0.036497
     12          6           0        4.354672   -0.280922    1.276985
     13          6           0        3.000999    0.036696    1.470891
     14          6           0        2.031066   -0.512178    2.258667
     15          6           0        0.755092    0.085266    1.863229
     16          6           0        1.014428    1.072783    0.967545
     17          6           0        6.259626   -1.372097   -0.173523
     18          6           0       -0.575906   -0.093793    2.543080
     19          6           0        6.581859   -0.887954   -1.406598
     20          6           0        0.190163    1.986693    0.131268
     21          6           0       -1.101087    1.811097   -0.202765
     22          6           0        5.401515   -0.485481   -2.115675
     23          6           0       -1.938080    2.876220   -0.919485
     24          6           0        2.298382   -1.481588    3.305110
     25          6           0        7.154439   -2.005272    0.815201
     26          6           0       -3.155259    2.285950   -1.315487
     27          6           0       -1.145674   -1.488854    2.564343
     28          6           0       -3.032483    0.848450   -0.952249
     29          6           0       -1.563436    4.367876   -0.913515
     30          6           0        7.910731   -0.755505   -2.134045
     31          6           0       -1.835176    5.031055    0.421928
     32          6           0       -4.329444    2.887839   -2.006637
     33          6           0       -3.879553   -0.221994   -1.284845
     34          6           0       -2.573729   -1.591654    2.855197
     35          6           0       -3.684550   -1.499450   -1.126753
     36          6           0        9.130420   -0.535140   -1.501188
     37          6           0       -1.404373    6.576889    0.231412
     38          6           0       -4.526834   -2.743809   -1.407177
     39          6           0       -3.852774   -3.839068   -0.985383
     40          6           0       -2.562798   -3.394897   -0.441133
     41          6           0       -5.882333   -2.545157   -2.015416
     42          6           0       -4.175962   -5.273215   -1.025423
     43          6           0       -6.684401   -3.555011   -2.568091
     44          1           0        4.346173   -2.245470    0.293444
     45          1           0        5.057692    0.667415    1.030537
     46          1           0        4.945786   -0.831035    2.292396
     47          1           0        2.809363    1.157612   -0.337568
     48          1           0        3.337213   -0.357399   -1.492587
     49          1           0       -0.542958    0.394166    3.567329
     50          1           0       -1.332874    0.628766    2.058537
     51          1           0        0.853786    2.841494   -0.180175
     52          1           0        3.509680   -1.476401    3.482137
     53          1           0        1.815200   -1.448642    4.318832
     54          1           0        1.810340   -2.599304    3.124002
     55          1           0        6.592878   -2.706785    1.581578
     56          1           0        7.427003   -1.157231    1.498406
     57          1           0        7.984312   -2.452645    0.545189
     58          1           0       -0.719209   -2.195168    1.687048
     59          1           0       -0.794851   -2.005966    3.480138
     60          1           0       -1.299771   -0.023320    0.036002
     61          1           0       -2.250805    4.733166   -1.654358
     62          1           0       -0.448107    4.387770   -1.387650
     63          1           0        7.657500   -0.736609   -3.376293
     64          1           0       -1.209099    4.583342    1.289171
     65          1           0       -2.877419    4.798172    0.707452
     66          1           0       -4.086901    3.886811   -2.481724
     67          1           0       -5.342617    3.004850   -1.114897
     68          1           0       -4.584116    2.160705   -2.846365
     69          1           0       -4.621317    0.146974   -1.868729
     70          1           0        9.173635   -0.735737   -0.349289
     71          1           0        9.982314   -0.800164   -2.141485
     72          1           0       -4.066394   -3.062848    2.810982
     73          1           0       -6.293780   -1.514268   -2.091107
     74          1           0       -5.390410   -5.389662   -0.668300
     75          1           0       -4.045281   -5.501563   -2.115463
     76          1           0       -3.536320   -5.732260   -0.491152
     77          1           0       -1.546680    8.359162    1.284125
     78          1           0       -7.588489   -3.260244   -3.251502
     79          1           0       -6.595745   -4.679505   -2.459669
 ---------------------------------------------------------------------

 SCF Done:  E(RB3LYP) =  -1947.76211929     A.U. after   23 cycles

 Excitation energies and oscillator strengths:

 Excited State   1:      Singlet-A      1.8981 eV  653.19 nm  f=0.2425  <S**2>=0.000
     152 ->156         0.10182
     154 ->156         0.21515
     155 ->156         0.66254
     155 <-156        -0.10555
 This state for optimization and/or second-order correction.
 Total Energy, E(TD-HF/TD-DFT) =  -1947.69236422
 Copying the excited state density for this state as the 1-particle RhoCI density.

 The electronic state is 1-A.
 Alpha  occ. eigenvalues --  -19.20588 -19.15740 -19.14307 -19.11044 -19.09888
 Alpha  occ. eigenvalues --  -19.09859 -14.38472 -14.38061 -14.36796 -14.28129
 Alpha  occ. eigenvalues --  -10.33722 -10.30851 -10.28379 -10.26611 -10.26277
 Alpha  occ. eigenvalues --  -10.25882 -10.24903 -10.24487 -10.23989 -10.23486
 Alpha  occ. eigenvalues --  -10.23048 -10.22953 -10.22943 -10.22935 -10.22598
 Alpha  occ. eigenvalues --  -10.22527 -10.22481 -10.22424 -10.21954 -10.21734
 Alpha  occ. eigenvalues --  -10.21664 -10.21430 -10.21362 -10.20718 -10.20581
 Alpha  occ. eigenvalues --  -10.20466 -10.20113 -10.20015 -10.19800 -10.19788
 Alpha  occ. eigenvalues --  -10.19417 -10.18972 -10.18522  -1.09201  -1.03677
 Alpha  occ. eigenvalues --   -1.01974  -1.01284  -1.00745  -0.98292  -0.97354
 Alpha  occ. eigenvalues --   -0.95479  -0.94965  -0.89223  -0.83295  -0.82704
 Alpha  occ. eigenvalues --   -0.82650  -0.81403  -0.80798  -0.79145  -0.77425
 Alpha  occ. eigenvalues --   -0.77186  -0.77127  -0.75780  -0.74729  -0.72634
 Alpha  occ. eigenvalues --   -0.72455  -0.71318  -0.69842  -0.68854  -0.68331
 Alpha  occ. eigenvalues --   -0.66931  -0.66289  -0.64122  -0.61279  -0.60567
 Alpha  occ. eigenvalues --   -0.59830  -0.58816  -0.58647  -0.58304  -0.56858
 Alpha  occ. eigenvalues --   -0.55502  -0.55334  -0.55028  -0.54071  -0.53565
 Alpha  occ. eigenvalues --   -0.51881  -0.51083  -0.50671  -0.50103  -0.49833
 Alpha  occ. eigenvalues --   -0.49346  -0.48857  -0.48642  -0.47859  -0.47543
 Alpha  occ. eigenvalues --   -0.46737  -0.46619  -0.46175  -0.45900  -0.45763
 Alpha  occ. eigenvalues --   -0.45462  -0.45013  -0.44146  -0.44049  -0.43190
 Alpha  occ. eigenvalues --   -0.43127  -0.43042  -0.42823  -0.42696  -0.42438
 Alpha  occ. eigenvalues --   -0.42049  -0.41716  -0.41554  -0.41251  -0.41038
 Alpha  occ. eigenvalues --   -0.40657  -0.40326  -0.40238  -0.40142  -0.39419
 Alpha  occ. eigenvalues --   -0.39239  -0.39197  -0.38811  -0.38579  -0.37936
 Alpha  occ. eigenvalues --   -0.37784  -0.37329  -0.37069  -0.36403  -0.35932
 Alpha  occ. eigenvalues --   -0.35819  -0.35733  -0.35333  -0.34884  -0.34793
 Alpha  occ. eigenvalues --   -0.33967  -0.33579  -0.33444  -0.32012  -0.30948
 Alpha  occ. eigenvalues --   -0.30590  -0.29726  -0.29446  -0.28389  -0.26528
 Alpha  occ. eigenvalues --   -0.26307  -0.25989  -0.25793  -0.25398  -0.24846
 Alpha  occ. eigenvalues --   -0.24627  -0.23816  -0.23240  -0.21976  -0.19579
 Alpha virt. eigenvalues --   -0.11667  -0.06956  -0.06537  -0.01782  -0.01740
 Alpha virt. eigenvalues --   -0.00955  -0.00605  -0.00328   0.00084   0.00804
 Alpha virt. eigenvalues --    0.01397   0.01955   0.03121   0.03397   0.03720

 Mulliken charges:
               1
     1  O   -0.251449
     2  O   -0.308854
     3  O   -0.262726
     4  O   -0.258580
     5  O   -0.212940
     6  O   -0.268392
     7  N   -0.161880
     8  N   -0.189732
     9  N    0.039189
    10  N   -0.342382
    11  C    0.075296
    12  C   -0.058384
    13  C    0.045462
    14  C   -0.039649
    15  C   -0.108007
    16  C    0.030356
    17  C   -0.145037
    18  C    0.018138
    19  C   -0.085265
    20  C   -0.059731
    21  C    0.065783
    22  C    0.145090
    23  C   -0.155372
    24  C   -0.034173
    25  C    0.129415
    26  C   -0.083003
    27  C   -0.009782
    28  C    0.092699
    29  C    0.097441
    30  C   -0.059346
    31  C   -0.042783
    32  C   -0.010696
    33  C   -0.036892
    34  C    0.178152
    35  C    0.121888
    36  C   -0.051522
    37  C    0.185797
    38  C    0.101628
    39  C   -0.235099
    40  C    0.180530
    41  C   -0.036546
    42  C    0.155623
    43  C   -0.089965
    44  H    0.041171
    45  H    0.022230
    46  H    0.044515
    47  H    0.140098
    48  H    0.153708
    49  H    0.022782
    50  H    0.025791
    51  H    0.019619
    52  H    0.026902
    53  H    0.021769
    54  H    0.045369
    55  H    0.029928
    56  H    0.037961
    57  H   -0.002630
    58  H    0.116421
    59  H    0.030142
    60  H    0.118315
    61  H   -0.005385
    62  H    0.054823
    63  H    0.078731
    64  H    0.060740
    65  H    0.046504
    66  H    0.043013
    67  H    0.069201
    68  H    0.054884
    69  H   -0.090325
    70  H    0.037405
    71  H    0.041653
    72  H    0.244198
    73  H    0.014215
    74  H    0.046005
    75  H    0.043252
    76  H   -0.035590
    77  H    0.253124
    78  H    0.041258
    79  H    0.043906
 Sum of Mulliken charges =  -0.00000

 Dipole moment (field-independent basis, Debye):
    X=             -0.6071    Y=              3.7566    Z=              2.3322  Tot=              4.4632
 Quadrupole moment (field-independent basis, Debye-Ang):
   XX=           -226.3777   YY=           -238.9371   ZZ=           -267.9517
   XY=            -18.0170   XZ=             38.6851   YZ=              7.5056

 Normal termination of Gaussian 16 at Sun Sep 29 09:47:57 2019.
