 Gaussian 16, Revision A.03,
 Gaussian 16:  ES64L-G16RevA.03 25-Dec-2016

 --------------------------
 # td=(NStates=1) B3LYP/SVP
 --------------------------

 --
 TD
 --
 Symbolic Z-matrix:
 Charge =  0 Multiplicity = 1

                         Standard orientation:
 ---------------------------------------------------------------------
 Center     Atomic      Atomic             Coordinates (Angstroms)
 Number     Number       Type             X           Y           Z
 ---------------------------------------------------------------------
      1          8           0       -3.335847   -1.172581   -2.909894
      2          8           0        3.170478    2.941463    3.212250
      3          8           0        3.924884    1.200791    4.214270
      4          8           0        7.794890   -1.509127   -0.884910
      5          8           0        6.605920   -3.068863   -2.151872
      6          8           0       -2.674051    1.763812    1.579148
      7          7           0       -0.265601   -2.392414    0.838399
      8          7           0       -2.743186   -1.239551   -0.654674
      9          7           0        1.172707    0.067607   -0.656652
     10          7           0       -1.113804    1.467319   -0.137058
     11          6           0       -3.435302   -1.370746    0.599676
     12          6           0       -2.701030   -2.379993    1.561942
     13          6           0       -1.240398   -1.975068    1.781761
     14          6           0       -0.577416   -1.328529    2.782552
     15          6           0        0.729063   -1.280976    2.473979
     16          6           0        0.846550   -1.915702    1.152522
     17          6           0       -4.821479   -1.930977    0.178159
     18          6           0        1.847469   -0.539275    3.160151
     19          6           0       -4.792095   -2.022300   -1.149705
     20          6           0        1.997525   -1.992308    0.135477
     21          6           0        2.079723   -0.890316   -0.705290
     22          6           0       -3.544477   -1.434221   -1.744213
     23          6           0        3.059681   -0.603463   -1.746962
     24          6           0       -1.225643   -0.770211    3.943338
     25          6           0       -5.876240   -2.222895    1.131880
     26          6           0        2.519029    0.591521   -2.408802
     27          6           0        1.958225    0.919902    2.844490
     28          6           0        1.313160    1.055635   -1.687163
     29          6           0        4.292941   -1.383707   -2.057423
     30          6           0       -5.888592   -2.431085   -2.097167
     31          6           0        5.439674   -1.081364   -1.258388
     32          6           0        3.215678    1.309710   -3.539987
     33          6           0        0.553348    2.144512   -1.749167
     34          6           0        3.092731    1.684957    3.484971
     35          6           0       -0.571756    2.377921   -1.013593
     36          6           0       -6.804909   -3.251972   -1.801693
     37          6           0        6.663448   -2.018975   -1.511404
     38          6           0       -1.403236    3.572532   -1.087619
     39          6           0       -2.291452    3.558301   -0.052880
     40          6           0       -2.017217    2.176264    0.579491
     41          6           0       -1.264287    4.567993   -2.161062
     42          6           0       -3.393163    4.404681    0.415786
     43          6           0       -1.927491    5.749149   -2.293249
     44          1           0       -3.614519   -0.280956    1.121684
     45          1           0       -2.686925   -3.343020    1.075823
     46          1           0       -3.286982   -2.290946    2.535968
     47          1           0       -0.569848   -2.967828    0.030122
     48          1           0       -2.198821   -0.421337   -0.781467
     49          1           0        1.648585   -0.604363    4.189163
     50          1           0        2.807585   -1.073805    3.112804
     51          1           0        2.632966   -2.771553    0.427494
     52          1           0       -2.283199   -1.247448    3.886208
     53          1           0       -0.787619   -0.652567    4.924245
     54          1           0       -1.527551    0.230721    3.450591
     55          1           0       -5.738386   -1.609778    2.036194
     56          1           0       -5.656900   -3.313691    1.405510
     57          1           0       -6.923349   -2.148107    0.688452
     58          1           0        2.070470    1.162359    1.816704
     59          1           0        1.058107    1.409895    3.348373
     60          1           0        0.212051    0.180491   -0.170045
     61          1           0        4.527433   -1.218876   -3.280065
     62          1           0        4.106368   -2.509825   -2.044667
     63          1           0       -5.531427   -1.957960   -3.070390
     64          1           0        5.251641   -0.833686   -0.139978
     65          1           0        5.789462   -0.130367   -1.416737
     66          1           0        3.816246    0.473883   -4.167066
     67          1           0        4.071898    2.203970   -2.995384
     68          1           0        2.395635    1.868207   -4.353305
     69          1           0        0.622648    2.818150   -2.673826
     70          1           0       -7.208445   -3.608688   -0.843053
     71          1           0       -7.568992   -3.582804   -2.592257
     72          1           0        3.991826    3.408260    3.653281
     73          1           0       -0.503548    4.372474   -2.730307
     74          1           0       -4.117049    4.771933   -0.407794
     75          1           0       -4.116127    3.761782    1.144788
     76          1           0       -3.024067    5.368822    0.955113
     77          1           0        8.230078   -2.562821   -1.004024
     78          1           0       -1.695660    6.564091   -3.036807
     79          1           0       -2.426955    6.236729   -1.259818
 ---------------------------------------------------------------------

 SCF Done:  E(RB3LYP) =  -1947.79749561     A.U. after   20 cycles

 Excitation energies and oscillator strengths:

 Excited State   1:      Singlet-A      0.5205 eV 2382.23 nm  f=0.0005  <S**2>=0.000
     155 ->156         0.70535
 This state for optimization and/or second-order correction.
 Total Energy, E(TD-HF/TD-DFT) =  -1947.77836929
 Copying the excited state density for this state as the 1-particle RhoCI density.

 The electronic state is 1-A.
 Alpha  occ. eigenvalues --  -19.21067 -19.18068 -19.16009 -19.11834 -19.10067
 Alpha  occ. eigenvalues --  -19.09187 -14.37611 -14.36981 -14.32538 -14.31706
 Alpha  occ. eigenvalues --  -10.34785 -10.30244 -10.28274 -10.27248 -10.26559
 Alpha  occ. eigenvalues --  -10.26104 -10.25996 -10.25697 -10.24264 -10.24169
 Alpha  occ. eigenvalues --  -10.23514 -10.22715 -10.22671 -10.22352 -10.22049
 Alpha  occ. eigenvalues --  -10.21574 -10.21523 -10.21310 -10.21305 -10.20694
 Alpha  occ. eigenvalues --  -10.20501 -10.20034 -10.20016 -10.19418 -10.19393
 Alpha  occ. eigenvalues --  -10.18481 -10.17989 -10.17639 -10.17588 -10.17574
 Alpha  occ. eigenvalues --  -10.17114 -10.15796 -10.15688  -1.10365  -1.09727
 Alpha  occ. eigenvalues --   -1.01647  -1.01365  -1.01191  -0.99895  -0.98708
 Alpha  occ. eigenvalues --   -0.98545  -0.94128  -0.93016  -0.84411  -0.83376
 Alpha  occ. eigenvalues --   -0.81995  -0.81174  -0.80925  -0.79422  -0.78715
 Alpha  occ. eigenvalues --   -0.77060  -0.76530  -0.75850  -0.74589  -0.72168
 Alpha  occ. eigenvalues --   -0.70788  -0.70274  -0.70021  -0.68210  -0.67653
 Alpha  occ. eigenvalues --   -0.67224  -0.65871  -0.62661  -0.61132  -0.60396
 Alpha  occ. eigenvalues --   -0.60159  -0.58601  -0.58396  -0.57282  -0.56397
 Alpha  occ. eigenvalues --   -0.56101  -0.55512  -0.54933  -0.53599  -0.53030
 Alpha  occ. eigenvalues --   -0.52451  -0.51743  -0.51266  -0.51080  -0.50091
 Alpha  occ. eigenvalues --   -0.49128  -0.48966  -0.48857  -0.48393  -0.47771
 Alpha  occ. eigenvalues --   -0.47160  -0.46684  -0.46553  -0.45999  -0.45425
 Alpha  occ. eigenvalues --   -0.45139  -0.45023  -0.44800  -0.44586  -0.43995
 Alpha  occ. eigenvalues --   -0.43478  -0.42819  -0.42542  -0.42424  -0.42284
 Alpha  occ. eigenvalues --   -0.42073  -0.41862  -0.41437  -0.41169  -0.41047
 Alpha  occ. eigenvalues --   -0.40902  -0.40743  -0.40545  -0.40109  -0.39783
 Alpha  occ. eigenvalues --   -0.39635  -0.39005  -0.38921  -0.38316  -0.38229
 Alpha  occ. eigenvalues --   -0.37736  -0.37364  -0.36888  -0.36630  -0.36375
 Alpha  occ. eigenvalues --   -0.35829  -0.35338  -0.35066  -0.34637  -0.34367
 Alpha  occ. eigenvalues --   -0.33848  -0.33648  -0.32540  -0.31966  -0.31122
 Alpha  occ. eigenvalues --   -0.31095  -0.30926  -0.30353  -0.29423  -0.28698
 Alpha  occ. eigenvalues --   -0.26762  -0.26031  -0.25932  -0.25426  -0.24230
 Alpha  occ. eigenvalues --   -0.23870  -0.23146  -0.23014  -0.22817  -0.17948
 Alpha virt. eigenvalues --   -0.13458  -0.08211  -0.03369  -0.02991  -0.02614
 Alpha virt. eigenvalues --   -0.00142   0.00448   0.02416   0.02824   0.02930
 Alpha virt. eigenvalues --    0.03220   0.03508   0.03726   0.04280   0.04557

 Mulliken charges:
               1
     1  O   -0.229098
     2  O   -0.176638
     3  O   -0.246931
     4  O   -0.265352
     5  O   -0.239735
     6  O   -0.251141
     7  N    0.025990
     8  N   -0.157696
     9  N   -0.127269
    10  N   -0.292038
    11  C   -0.027282
    12  C    0.228345
    13  C   -0.144395
    14  C   -0.081369
    15  C   -0.139622
    16  C   -0.160133
    17  C   -0.181726
    18  C    0.176131
    19  C   -0.136195
    20  C   -0.092947
    21  C    0.176886
    22  C    0.128925
    23  C   -0.052846
    24  C    0.090639
    25  C    0.079822
    26  C   -0.089863
    27  C    0.035833
    28  C    0.164348
    29  C    0.036018
    30  C    0.059207
    31  C    0.033933
    32  C   -0.091334
    33  C   -0.136463
    34  C    0.056946
    35  C    0.107486
    36  C   -0.065943
    37  C    0.194265
    38  C    0.038200
    39  C   -0.151020
    40  C    0.168555
    41  C    0.087403
    42  C   -0.023579
    43  C   -0.078912
    44  H    0.079917
    45  H   -0.035180
    46  H    0.003051
    47  H    0.125150
    48  H    0.123908
    49  H   -0.038167
    50  H   -0.012796
    51  H    0.009916
    52  H   -0.014582
    53  H    0.022926
    54  H    0.041470
    55  H    0.024130
    56  H    0.043882
    57  H    0.048944
    58  H    0.012907
    59  H    0.044783
    60  H    0.219902
    61  H    0.039574
    62  H    0.046554
    63  H    0.025926
    64  H    0.058536
    65  H   -0.009148
    66  H    0.060697
    67  H    0.075245
    68  H    0.069768
    69  H    0.021851
    70  H    0.015284
    71  H    0.016660
    72  H    0.219610
    73  H   -0.089772
    74  H    0.051019
    75  H    0.061587
    76  H    0.056907
    77  H    0.236245
    78  H    0.043397
    79  H    0.050490
 Sum of Mulliken charges =  -0.00000

 Dipole moment (field-independent basis, Debye):
    X=              3.4505    Y=              2.8277    Z=             -0.9264  Tot=              4.5563
 Quadrupole moment (field-independent basis, Debye-Ang):
   XX=           -244.2580   YY=           -231.1618   ZZ=           -272.3381
   XY=              3.8751   XZ=            -22.5051   YZ=            -11.0015

 Normal termination of Gaussian 16 at Tue Jul 30 12:22:40 2019.
