 Gaussian 16, Revision A.03,
 Gaussian 16:  ES64L-G16RevA.03 25-Dec-2016

 --------------------------
 # td=(NStates=1) B3LYP/SVP
 --------------------------

 --
 TD
 --
 Symbolic Z-matrix:
 Charge =  0 Multiplicity = 1

                         Standard orientation:
 ---------------------------------------------------------------------
 Center     Atomic      Atomic             Coordinates (Angstroms)
 Number     Number       Type             X           Y           Z
 ---------------------------------------------------------------------
      1          8           0        5.093665    0.189542   -3.217507
      2          8           0       -2.834233   -3.015046    3.116886
      3          8           0       -3.248518   -0.728680    3.183438
      4          8           0       -1.821561    7.030598    1.517694
      5          8           0       -0.713051    6.932402   -0.459207
      6          8           0       -1.537581   -4.009286    0.083027
      7          7           0        2.387844    1.034540    0.691854
      8          7           0        4.253325   -0.541821   -1.199405
      9          7           0       -1.824787    0.652092   -0.415237
     10          7           0       -2.515212   -2.023324   -0.442025
     11          6           0        4.732617   -1.119922    0.030856
     12          6           0        4.466324   -0.189275    1.227786
     13          6           0        2.956890    0.079017    1.424895
     14          6           0        1.977399   -0.535044    2.178436
     15          6           0        0.761718    0.114115    1.893229
     16          6           0        0.985552    1.040084    0.892098
     17          6           0        6.152383   -1.280871   -0.181631
     18          6           0       -0.615280   -0.169241    2.570694
     19          6           0        6.472618   -0.794193   -1.422598
     20          6           0        0.180321    1.987659    0.223854
     21          6           0       -1.168357    1.885346   -0.339453
     22          6           0        5.294829   -0.393949   -2.127912
     23          6           0       -1.912884    2.885908   -0.941521
     24          6           0        2.162479   -1.586686    3.216607
     25          6           0        7.014535   -2.063269    0.806696
     26          6           0       -3.107295    2.283191   -1.392331
     27          6           0       -1.164576   -1.582166    2.513715
     28          6           0       -3.010885    0.848154   -1.036302
     29          6           0       -1.540270    4.350978   -0.989712
     30          6           0        7.783306   -0.580757   -2.177545
     31          6           0       -1.973537    5.027013    0.304204
     32          6           0       -4.386802    2.863393   -1.953979
     33          6           0       -3.896736   -0.214013   -1.437429
     34          6           0       -2.540541   -1.669593    3.054978
     35          6           0       -3.639250   -1.540639   -1.149699
     36          6           0        9.005525   -0.709636   -1.608109
     37          6           0       -1.461704    6.442943    0.325787
     38          6           0       -4.404451   -2.751982   -1.412264
     39          6           0       -3.732579   -3.795823   -1.055004
     40          6           0       -2.528498   -3.346811   -0.344191
     41          6           0       -5.721521   -2.570612   -2.066515
     42          6           0       -3.979903   -5.218729   -1.186451
     43          6           0       -6.551787   -3.481052   -2.576987
     44          1           0        4.424761   -2.170740    0.446211
     45          1           0        5.041675    0.700991    1.143626
     46          1           0        4.800981   -0.828598    2.204200
     47          1           0        2.991779    1.420127   -0.129414
     48          1           0        3.245585   -0.518198   -1.408697
     49          1           0       -0.234148   -0.111589    3.672240
     50          1           0       -1.265926    0.640005    2.382345
     51          1           0        0.578973    2.900039   -0.050706
     52          1           0        3.266284   -1.676549    3.532948
     53          1           0        1.599444   -1.465889    4.243770
     54          1           0        2.125422   -2.606970    2.791170
     55          1           0        6.509545   -2.859597    1.136144
     56          1           0        7.430566   -1.357284    1.683939
     57          1           0        7.823980   -2.608136    0.362534
     58          1           0       -1.219255   -1.994819    1.361425
     59          1           0       -0.381223   -2.186293    2.999830
     60          1           0       -1.563223   -0.231003   -0.174287
     61          1           0       -1.852156    4.836549   -1.870653
     62          1           0       -0.438537    4.526108   -1.203275
     63          1           0        7.760529   -0.298501   -3.160424
     64          1           0       -1.559652    4.500389    1.151594
     65          1           0       -3.217554    5.280829    0.485190
     66          1           0       -4.425635    4.037288   -2.114074
     67          1           0       -5.193646    2.715950   -1.329565
     68          1           0       -4.599448    2.488927   -3.000938
     69          1           0       -4.727522    0.140516   -1.914475
     70          1           0        9.076758   -1.269047   -0.520009
     71          1           0       10.031407   -0.709135   -2.050847
     72          1           0       -3.789382   -2.999927    3.386520
     73          1           0       -6.217094   -1.639276   -2.173386
     74          1           0       -5.032463   -5.448934   -0.868571
     75          1           0       -3.839915   -5.550074   -2.445825
     76          1           0       -3.236165   -5.828853   -0.517662
     77          1           0       -1.310628    7.773702    1.511634
     78          1           0       -7.713262   -3.311677   -2.858050
     79          1           0       -6.166663   -4.618171   -2.530636
 ---------------------------------------------------------------------

 SCF Done:  E(RB3LYP) =  -1947.86746021     A.U. after   20 cycles

 Excitation energies and oscillator strengths:

 Excited State   1:      Singlet-A      1.8662 eV  664.38 nm  f=0.1762  <S**2>=0.000
     153 ->156        -0.13355
     154 ->156        -0.33692
     155 ->156         0.60531
     155 <-156        -0.10389
 This state for optimization and/or second-order correction.
 Total Energy, E(TD-HF/TD-DFT) =  -1947.79887965
 Copying the excited state density for this state as the 1-particle RhoCI density.

 The electronic state is 1-A.
 Alpha  occ. eigenvalues --  -19.18442 -19.16668 -19.14640 -19.11938 -19.10544
 Alpha  occ. eigenvalues --  -19.08101 -14.39439 -14.36941 -14.36390 -14.26797
 Alpha  occ. eigenvalues --  -10.33011 -10.30115 -10.29233 -10.25919 -10.25109
 Alpha  occ. eigenvalues --  -10.25073 -10.24150 -10.23871 -10.23793 -10.23777
 Alpha  occ. eigenvalues --  -10.23354 -10.23123 -10.23117 -10.22440 -10.21893
 Alpha  occ. eigenvalues --  -10.21781 -10.21772 -10.21715 -10.21543 -10.21294
 Alpha  occ. eigenvalues --  -10.21089 -10.21062 -10.20924 -10.20237 -10.19880
 Alpha  occ. eigenvalues --  -10.19743 -10.19578 -10.19277 -10.19031 -10.18832
 Alpha  occ. eigenvalues --  -10.18343 -10.17827 -10.17494  -1.11749  -1.07805
 Alpha  occ. eigenvalues --   -1.03373  -1.01953  -1.00435  -1.00005  -0.99237
 Alpha  occ. eigenvalues --   -0.97780  -0.94990  -0.90421  -0.83823  -0.82833
 Alpha  occ. eigenvalues --   -0.82247  -0.81312  -0.79993  -0.79327  -0.78803
 Alpha  occ. eigenvalues --   -0.77960  -0.76268  -0.75994  -0.74637  -0.73361
 Alpha  occ. eigenvalues --   -0.73180  -0.71682  -0.69720  -0.69534  -0.68498
 Alpha  occ. eigenvalues --   -0.66833  -0.66439  -0.63840  -0.60943  -0.60744
 Alpha  occ. eigenvalues --   -0.60248  -0.59311  -0.58019  -0.57912  -0.57533
 Alpha  occ. eigenvalues --   -0.56760  -0.56347  -0.55080  -0.54983  -0.53748
 Alpha  occ. eigenvalues --   -0.52929  -0.52640  -0.51188  -0.50647  -0.50069
 Alpha  occ. eigenvalues --   -0.49698  -0.49206  -0.48892  -0.48559  -0.47990
 Alpha  occ. eigenvalues --   -0.47429  -0.47179  -0.46452  -0.46088  -0.45811
 Alpha  occ. eigenvalues --   -0.45372  -0.45206  -0.45034  -0.44141  -0.43934
 Alpha  occ. eigenvalues --   -0.43677  -0.43391  -0.42908  -0.42733  -0.42361
 Alpha  occ. eigenvalues --   -0.42245  -0.42044  -0.41827  -0.41555  -0.41260
 Alpha  occ. eigenvalues --   -0.41216  -0.40701  -0.40623  -0.40077  -0.39830
 Alpha  occ. eigenvalues --   -0.39691  -0.39345  -0.38949  -0.38727  -0.38352
 Alpha  occ. eigenvalues --   -0.38014  -0.37648  -0.37389  -0.37227  -0.36770
 Alpha  occ. eigenvalues --   -0.36623  -0.35941  -0.34982  -0.34905  -0.34339
 Alpha  occ. eigenvalues --   -0.33987  -0.33201  -0.32437  -0.31996  -0.31594
 Alpha  occ. eigenvalues --   -0.31561  -0.30872  -0.29940  -0.27995  -0.27270
 Alpha  occ. eigenvalues --   -0.27032  -0.26629  -0.26220  -0.25551  -0.25026
 Alpha  occ. eigenvalues --   -0.24250  -0.23973  -0.22455  -0.21556  -0.19034
 Alpha virt. eigenvalues --   -0.11487  -0.07494  -0.06284  -0.01113  -0.00595
 Alpha virt. eigenvalues --    0.00066   0.01118   0.01922   0.02090   0.02860
 Alpha virt. eigenvalues --    0.03072   0.04421   0.04662   0.05342   0.05651

 Mulliken charges:
               1
     1  O   -0.251201
     2  O   -0.198241
     3  O   -0.200040
     4  O   -0.155475
     5  O   -0.200179
     6  O   -0.274233
     7  N   -0.099675
     8  N   -0.211478
     9  N    0.012016
    10  N   -0.302805
    11  C    0.067280
    12  C    0.156365
    13  C   -0.088338
    14  C   -0.108520
    15  C   -0.080391
    16  C    0.107641
    17  C   -0.166670
    18  C    0.107468
    19  C   -0.050157
    20  C   -0.040012
    21  C    0.026337
    22  C    0.171757
    23  C   -0.053111
    24  C    0.044349
    25  C    0.132692
    26  C   -0.128802
    27  C   -0.064611
    28  C    0.037810
    29  C    0.111266
    30  C    0.066098
    31  C   -0.031881
    32  C    0.071339
    33  C   -0.040067
    34  C    0.150532
    35  C    0.133744
    36  C   -0.081829
    37  C    0.123116
    38  C    0.145319
    39  C   -0.183486
    40  C    0.134232
    41  C   -0.022925
    42  C   -0.010035
    43  C   -0.124108
    44  H    0.032254
    45  H   -0.013019
    46  H    0.025446
    47  H    0.154709
    48  H    0.142352
    49  H    0.001957
    50  H   -0.003562
    51  H   -0.047538
    52  H   -0.011163
    53  H    0.054432
    54  H    0.037191
    55  H   -0.020167
    56  H    0.064324
    57  H    0.020466
    58  H    0.134106
    59  H    0.013074
    60  H    0.087212
    61  H   -0.005306
    62  H    0.026868
    63  H   -0.018792
    64  H    0.047312
    65  H    0.076571
    66  H    0.021676
    67  H    0.022002
    68  H    0.040761
    69  H   -0.075696
    70  H    0.024315
    71  H    0.042952
    72  H    0.171392
    73  H   -0.027798
    74  H    0.036104
    75  H    0.051782
    76  H    0.052510
    77  H    0.133372
    78  H    0.049310
    79  H    0.027503
 Sum of Mulliken charges =  -0.00000

 Dipole moment (field-independent basis, Debye):
    X=              2.5667    Y=              3.3697    Z=              3.3216  Tot=              5.3829
 Quadrupole moment (field-independent basis, Debye-Ang):
   XX=           -213.6166   YY=           -253.3941   ZZ=           -264.1710
   XY=            -21.5668   XZ=             28.5925   YZ=             -0.5919

 Normal termination of Gaussian 16 at Fri Oct 11 00:59:55 2019.
