 Gaussian 16, Revision A.03,
 Gaussian 16:  ES64L-G16RevA.03 25-Dec-2016

 --------------------------
 # td=(NStates=1) B3LYP/SVP
 --------------------------

 --
 TD
 --
 Symbolic Z-matrix:
 Charge =  0 Multiplicity = 1

                         Standard orientation:
 ---------------------------------------------------------------------
 Center     Atomic      Atomic             Coordinates (Angstroms)
 Number     Number       Type             X           Y           Z
 ---------------------------------------------------------------------
      1          8           0        5.282476   -0.208314   -3.353729
      2          8           0       -3.066342   -2.948468    3.166606
      3          8           0       -3.309881   -0.647376    3.275600
      4          8           0       -1.712586    7.064337    1.479037
      5          8           0       -0.535595    6.965761   -0.595286
      6          8           0       -1.788533   -3.963380    0.134989
      7          7           0        2.396548    0.988421    0.665695
      8          7           0        4.352286   -0.441600   -1.290071
      9          7           0       -1.821037    0.743710   -0.442727
     10          7           0       -2.588637   -1.819543   -0.405302
     11          6           0        4.707341   -1.132575    0.050870
     12          6           0        4.352209   -0.327882    1.295680
     13          6           0        2.866652   -0.060843    1.430629
     14          6           0        1.899369   -0.761988    2.189101
     15          6           0        0.685122    0.000589    1.841248
     16          6           0        1.001021    1.059830    0.895059
     17          6           0        6.247760   -1.361129   -0.125782
     18          6           0       -0.665904   -0.132216    2.566528
     19          6           0        6.666382   -1.097301   -1.433564
     20          6           0        0.145685    1.947335    0.202934
     21          6           0       -1.035289    1.864930   -0.340985
     22          6           0        5.398790   -0.523779   -2.163947
     23          6           0       -1.964437    3.001097   -0.875157
     24          6           0        2.110421   -1.760864    3.186290
     25          6           0        7.116320   -1.773618    1.018176
     26          6           0       -3.035885    2.335311   -1.431304
     27          6           0       -1.229077   -1.494074    2.647249
     28          6           0       -2.954531    0.911290   -1.120005
     29          6           0       -1.516906    4.366440   -1.036669
     30          6           0        7.943676   -0.865029   -2.041582
     31          6           0       -1.668805    4.998934    0.368581
     32          6           0       -4.314781    2.954350   -1.999271
     33          6           0       -3.785641   -0.105689   -1.491455
     34          6           0       -2.680327   -1.568546    3.081971
     35          6           0       -3.684310   -1.475271   -1.025153
     36          6           0        9.186020   -0.887710   -1.467838
     37          6           0       -1.242611    6.455483    0.283183
     38          6           0       -4.507816   -2.661142   -1.496939
     39          6           0       -3.859704   -3.746109   -1.030358
     40          6           0       -2.678042   -3.324643   -0.414115
     41          6           0       -5.756933   -2.528461   -2.250112
     42          6           0       -4.275978   -5.200351   -1.234733
     43          6           0       -6.668578   -3.492380   -2.561694
     44          1           0        4.258576   -2.141883    0.048672
     45          1           0        4.927278    0.659136    1.112054
     46          1           0        4.713462   -0.865954    2.151572
     47          1           0        2.941437    1.409493   -0.141740
     48          1           0        3.507969   -0.619837   -1.761749
     49          1           0       -0.294427    0.325260    3.522680
     50          1           0       -1.372546    0.610142    2.136731
     51          1           0        0.799410    2.815371    0.080734
     52          1           0        3.141817   -1.897375    3.408182
     53          1           0        1.665550   -1.085375    4.161100
     54          1           0        1.525027   -2.489225    2.983822
     55          1           0        6.572822   -2.433098    1.648855
     56          1           0        7.552155   -0.864367    1.650431
     57          1           0        7.828648   -2.400630    0.765910
     58          1           0       -1.284968   -1.897615    1.521887
     59          1           0       -0.723477   -2.214104    3.307196
     60          1           0       -1.430789   -0.313801   -0.311417
     61          1           0       -2.175380    4.866809   -1.872690
     62          1           0       -0.322883    4.674841   -1.148217
     63          1           0        8.065906   -0.546616   -3.047015
     64          1           0       -1.125834    4.540336    1.301251
     65          1           0       -2.781264    5.123412    0.806835
     66          1           0       -4.173124    3.947753   -2.171625
     67          1           0       -5.248204    3.018753   -1.279284
     68          1           0       -4.780400    2.652998   -3.060859
     69          1           0       -4.777933    0.247735   -2.104643
     70          1           0        9.527764   -1.504414   -0.499986
     71          1           0       10.066366   -0.576411   -2.211609
     72          1           0       -3.948962   -2.735318    3.440099
     73          1           0       -6.054767   -1.424172   -2.535764
     74          1           0       -5.313464   -5.699740   -0.773164
     75          1           0       -4.258966   -5.324239   -2.360106
     76          1           0       -3.470091   -5.846854   -0.780943
     77          1           0       -1.437515    7.895688    1.469939
     78          1           0       -7.501626   -3.352082   -2.855269
     79          1           0       -6.755305   -4.635958   -2.253781
 ---------------------------------------------------------------------

 SCF Done:  E(RB3LYP) =  -1947.76987080     A.U. after   16 cycles

 Excitation energies and oscillator strengths:

 Excited State   1:      Singlet-A      1.8769 eV  660.59 nm  f=0.3276  <S**2>=0.000
     155 ->156         0.70596
 This state for optimization and/or second-order correction.
 Total Energy, E(TD-HF/TD-DFT) =  -1947.70089709
 Copying the excited state density for this state as the 1-particle RhoCI density.

 The electronic state is 1-A.
 Alpha  occ. eigenvalues --  -19.18168 -19.15616 -19.15042 -19.12991 -19.11073
 Alpha  occ. eigenvalues --  -19.09972 -14.38009 -14.36056 -14.35524 -14.29641
 Alpha  occ. eigenvalues --  -10.33664 -10.30026 -10.28637 -10.26792 -10.25848
 Alpha  occ. eigenvalues --  -10.23663 -10.23518 -10.23340 -10.23259 -10.22933
 Alpha  occ. eigenvalues --  -10.22799 -10.22679 -10.22440 -10.22345 -10.21881
 Alpha  occ. eigenvalues --  -10.21798 -10.21485 -10.21470 -10.21289 -10.21140
 Alpha  occ. eigenvalues --  -10.20807 -10.20794 -10.20560 -10.20389 -10.20079
 Alpha  occ. eigenvalues --  -10.19884 -10.19666 -10.19554 -10.19455 -10.19412
 Alpha  occ. eigenvalues --  -10.19165 -10.18784 -10.18262  -1.10081  -1.09296
 Alpha  occ. eigenvalues --   -1.01987  -1.01752  -1.01538  -1.01152  -0.98209
 Alpha  occ. eigenvalues --   -0.96521  -0.92441  -0.92201  -0.82852  -0.82475
 Alpha  occ. eigenvalues --   -0.81793  -0.81282  -0.80972  -0.79357  -0.77600
 Alpha  occ. eigenvalues --   -0.77347  -0.76675  -0.75936  -0.74555  -0.71971
 Alpha  occ. eigenvalues --   -0.71663  -0.71272  -0.69739  -0.68895  -0.68085
 Alpha  occ. eigenvalues --   -0.66221  -0.65717  -0.64297  -0.61425  -0.59907
 Alpha  occ. eigenvalues --   -0.59676  -0.58519  -0.57707  -0.56441  -0.55985
 Alpha  occ. eigenvalues --   -0.55592  -0.55098  -0.54655  -0.53339  -0.53036
 Alpha  occ. eigenvalues --   -0.52000  -0.51242  -0.50747  -0.50177  -0.49555
 Alpha  occ. eigenvalues --   -0.48820  -0.48199  -0.48165  -0.48017  -0.47697
 Alpha  occ. eigenvalues --   -0.47279  -0.46915  -0.46802  -0.46335  -0.46011
 Alpha  occ. eigenvalues --   -0.45253  -0.45059  -0.44718  -0.44322  -0.43869
 Alpha  occ. eigenvalues --   -0.43694  -0.43140  -0.42825  -0.42731  -0.42057
 Alpha  occ. eigenvalues --   -0.41809  -0.41547  -0.41466  -0.41139  -0.40954
 Alpha  occ. eigenvalues --   -0.40419  -0.40308  -0.39963  -0.39770  -0.39440
 Alpha  occ. eigenvalues --   -0.39313  -0.39164  -0.38895  -0.38188  -0.37992
 Alpha  occ. eigenvalues --   -0.37932  -0.37608  -0.37447  -0.36994  -0.36852
 Alpha  occ. eigenvalues --   -0.36434  -0.35792  -0.35033  -0.34765  -0.34200
 Alpha  occ. eigenvalues --   -0.34106  -0.33536  -0.33120  -0.32580  -0.31969
 Alpha  occ. eigenvalues --   -0.31744  -0.31388  -0.29877  -0.29185  -0.28525
 Alpha  occ. eigenvalues --   -0.27284  -0.27197  -0.25420  -0.25192  -0.24432
 Alpha  occ. eigenvalues --   -0.24193  -0.23888  -0.23466  -0.22542  -0.18283
 Alpha virt. eigenvalues --   -0.10656  -0.06895  -0.06467  -0.02329  -0.00840
 Alpha virt. eigenvalues --    0.00424   0.00897   0.02966   0.03031   0.03298
 Alpha virt. eigenvalues --    0.03892   0.04302   0.04649   0.04997   0.05490

 Mulliken charges:
               1
     1  O   -0.246259
     2  O   -0.222297
     3  O   -0.131353
     4  O   -0.170908
     5  O   -0.233031
     6  O   -0.189454
     7  N   -0.117521
     8  N   -0.178657
     9  N   -0.103278
    10  N   -0.326255
    11  C    0.082129
    12  C    0.178094
    13  C   -0.087044
    14  C   -0.138762
    15  C   -0.170127
    16  C    0.038451
    17  C   -0.205954
    18  C    0.108910
    19  C    0.017748
    20  C   -0.122955
    21  C    0.153601
    22  C    0.116573
    23  C   -0.009863
    24  C    0.179466
    25  C    0.159604
    26  C   -0.094674
    27  C   -0.045954
    28  C    0.104716
    29  C    0.006628
    30  C   -0.007239
    31  C   -0.119029
    32  C    0.052043
    33  C   -0.149411
    34  C    0.106397
    35  C    0.083970
    36  C   -0.118764
    37  C    0.180758
    38  C    0.044187
    39  C   -0.136155
    40  C    0.147541
    41  C   -0.034679
    42  C    0.008069
    43  C    0.063947
    44  H    0.031834
    45  H    0.011510
    46  H   -0.012584
    47  H    0.147722
    48  H    0.120185
    49  H    0.011086
    50  H    0.010884
    51  H   -0.016700
    52  H   -0.006789
    53  H    0.034205
    54  H    0.001667
    55  H   -0.006421
    56  H    0.062844
    57  H   -0.022821
    58  H    0.107269
    59  H    0.025398
    60  H    0.206004
    61  H    0.053737
    62  H    0.078316
    63  H    0.010042
    64  H    0.087920
    65  H    0.060513
    66  H   -0.040034
    67  H    0.043645
    68  H    0.039740
    69  H    0.014132
    70  H    0.047615
    71  H    0.045960
    72  H    0.139278
    73  H    0.029687
    74  H    0.059438
    75  H    0.044941
    76  H    0.033110
    77  H    0.124697
    78  H   -0.084601
    79  H    0.033361
 Sum of Mulliken charges =  -0.00000

 Dipole moment (field-independent basis, Debye):
    X=             -0.3321    Y=              1.2490    Z=              2.8523  Tot=              3.1314
 Quadrupole moment (field-independent basis, Debye-Ang):
   XX=           -213.6040   YY=           -245.6988   ZZ=           -264.6681
   XY=            -10.0562   XZ=             35.5733   YZ=              6.4293

 Normal termination of Gaussian 16 at Wed Sep 25 15:01:11 2019.
