 Gaussian 16, Revision A.03,
 Gaussian 16:  ES64L-G16RevA.03 25-Dec-2016

 --------------------------
 # td=(NStates=1) B3LYP/SVP
 --------------------------

 --
 TD
 --
 Symbolic Z-matrix:
 Charge =  0 Multiplicity = 1

                         Standard orientation:
 ---------------------------------------------------------------------
 Center     Atomic      Atomic             Coordinates (Angstroms)
 Number     Number       Type             X           Y           Z
 ---------------------------------------------------------------------
      1          8           0        5.248018   -0.415057   -3.339544
      2          8           0       -3.283923   -2.894145    2.743931
      3          8           0       -3.279554   -0.663407    3.084134
      4          8           0       -1.404531    7.075468    1.529896
      5          8           0       -0.395841    6.960083   -0.450160
      6          8           0       -1.794666   -4.019890   -0.156919
      7          7           0        2.371921    0.830794    0.503005
      8          7           0        4.351870   -0.749940   -1.203264
      9          7           0       -1.858669    0.741489   -0.326734
     10          7           0       -2.633738   -1.792197   -0.449410
     11          6           0        4.756248   -1.209851    0.076266
     12          6           0        4.345503   -0.426639    1.286511
     13          6           0        2.980967   -0.029722    1.346016
     14          6           0        2.046925   -0.657951    2.134903
     15          6           0        0.736591   -0.120475    1.695381
     16          6           0        1.025901    0.951414    0.813221
     17          6           0        6.276873   -1.366021   -0.148970
     18          6           0       -0.537999   -0.362745    2.522936
     19          6           0        6.584354   -0.898802   -1.355910
     20          6           0        0.226272    1.944280    0.098605
     21          6           0       -1.050835    1.810056   -0.301758
     22          6           0        5.304378   -0.650897   -2.126881
     23          6           0       -1.850219    2.863827   -0.919915
     24          6           0        2.301384   -1.633785    3.247752
     25          6           0        7.299680   -1.726826    1.063076
     26          6           0       -3.130261    2.408624   -1.298688
     27          6           0       -1.133103   -1.708099    2.530511
     28          6           0       -3.116810    0.939551   -0.979095
     29          6           0       -1.510773    4.295038   -1.030693
     30          6           0        7.914190   -0.840690   -2.045640
     31          6           0       -1.599962    5.023506    0.317838
     32          6           0       -4.325136    3.068404   -1.933605
     33          6           0       -3.972772    0.042450   -1.315112
     34          6           0       -2.655176   -1.651345    2.908302
     35          6           0       -3.706587   -1.429014   -1.016067
     36          6           0        9.154654   -0.772154   -1.599210
     37          6           0       -1.087907    6.430863    0.391539
     38          6           0       -4.699185   -2.456258   -1.338372
     39          6           0       -3.957769   -3.647281   -1.005170
     40          6           0       -2.675625   -3.229088   -0.483233
     41          6           0       -6.059850   -2.247866   -1.805641
     42          6           0       -4.313157   -5.118009   -1.166794
     43          6           0       -6.803611   -3.204636   -2.329021
     44          1           0        4.293430   -2.345798    0.158664
     45          1           0        5.292089    0.345520    1.558159
     46          1           0        4.507290   -0.762167    2.364497
     47          1           0        2.883497    1.477468   -0.065687
     48          1           0        3.280418   -0.744497   -1.572594
     49          1           0       -0.423088   -0.138187    3.506201
     50          1           0       -1.260989    0.319400    2.123723
     51          1           0        0.613184    2.895350   -0.460341
     52          1           0        3.234035   -1.642052    3.640947
     53          1           0        1.678294   -1.534115    3.999548
     54          1           0        1.879657   -2.519200    2.915985
     55          1           0        6.985363   -2.344513    1.752333
     56          1           0        7.612618   -0.788208    1.473455
     57          1           0        8.236214   -2.228240    0.728709
     58          1           0       -1.160734   -2.365601    1.501081
     59          1           0       -0.772063   -2.566950    3.143876
     60          1           0       -1.900275   -0.223054   -0.030349
     61          1           0       -2.178750    5.001874   -1.808648
     62          1           0       -0.491237    4.557435   -1.350233
     63          1           0        7.734244   -0.722222   -3.071930
     64          1           0       -0.983427    4.704226    1.021916
     65          1           0       -2.836793    4.926104    0.535931
     66          1           0       -3.902129    3.881461   -2.182607
     67          1           0       -5.088739    3.248343   -1.169966
     68          1           0       -4.802616    2.221005   -2.658489
     69          1           0       -5.066571    0.423883   -1.714038
     70          1           0        9.462829   -0.627875   -0.506882
     71          1           0        9.838636   -0.929954   -2.443542
     72          1           0       -4.268380   -2.673263    2.973442
     73          1           0       -6.432705   -1.300449   -1.692449
     74          1           0       -5.165311   -5.355841   -0.607196
     75          1           0       -4.634658   -5.321897   -2.275151
     76          1           0       -3.377378   -5.624012   -0.935981
     77          1           0       -1.056769    7.917394    1.536047
     78          1           0       -7.933663   -2.885201   -2.616621
     79          1           0       -6.734315   -4.170757   -2.126174
 ---------------------------------------------------------------------

 SCF Done:  E(RB3LYP) =  -1947.76639804     A.U. after   16 cycles

 Excitation energies and oscillator strengths:

 Excited State   1:      Singlet-A      1.7816 eV  695.91 nm  f=0.3145  <S**2>=0.000
     155 ->156         0.70619
     155 <-156        -0.10602
 This state for optimization and/or second-order correction.
 Total Energy, E(TD-HF/TD-DFT) =  -1947.70092515
 Copying the excited state density for this state as the 1-particle RhoCI density.

 The electronic state is 1-A.
 Alpha  occ. eigenvalues --  -19.18332 -19.16951 -19.12956 -19.12918 -19.12604
 Alpha  occ. eigenvalues --  -19.09270 -14.37554 -14.36558 -14.35078 -14.30790
 Alpha  occ. eigenvalues --  -10.32596 -10.31017 -10.28353 -10.27910 -10.25869
 Alpha  occ. eigenvalues --  -10.24940 -10.24095 -10.23488 -10.23382 -10.22019
 Alpha  occ. eigenvalues --  -10.21978 -10.21773 -10.21614 -10.21526 -10.21526
 Alpha  occ. eigenvalues --  -10.21439 -10.21243 -10.21125 -10.21120 -10.20923
 Alpha  occ. eigenvalues --  -10.20425 -10.20264 -10.20243 -10.20086 -10.19797
 Alpha  occ. eigenvalues --  -10.19627 -10.19424 -10.19175 -10.19109 -10.18666
 Alpha  occ. eigenvalues --  -10.18659 -10.18142 -10.17121  -1.11124  -1.08128
 Alpha  occ. eigenvalues --   -1.03247  -1.01529  -1.01301  -0.99326  -0.98668
 Alpha  occ. eigenvalues --   -0.97596  -0.95034  -0.94721  -0.83106  -0.82238
 Alpha  occ. eigenvalues --   -0.81868  -0.81446  -0.80728  -0.80418  -0.78639
 Alpha  occ. eigenvalues --   -0.77134  -0.77044  -0.76045  -0.75028  -0.73330
 Alpha  occ. eigenvalues --   -0.72441  -0.71376  -0.71027  -0.70030  -0.69075
 Alpha  occ. eigenvalues --   -0.66775  -0.66411  -0.65035  -0.61888  -0.61233
 Alpha  occ. eigenvalues --   -0.60318  -0.59871  -0.57437  -0.57326  -0.56848
 Alpha  occ. eigenvalues --   -0.56709  -0.56067  -0.54591  -0.54422  -0.53361
 Alpha  occ. eigenvalues --   -0.53184  -0.51095  -0.50708  -0.50156  -0.49648
 Alpha  occ. eigenvalues --   -0.49446  -0.48908  -0.48569  -0.48310  -0.48061
 Alpha  occ. eigenvalues --   -0.47459  -0.46800  -0.46663  -0.46527  -0.46203
 Alpha  occ. eigenvalues --   -0.46001  -0.45382  -0.44886  -0.44378  -0.44166
 Alpha  occ. eigenvalues --   -0.43983  -0.43447  -0.43234  -0.42856  -0.42492
 Alpha  occ. eigenvalues --   -0.42045  -0.42027  -0.41755  -0.41667  -0.41515
 Alpha  occ. eigenvalues --   -0.41288  -0.40944  -0.40744  -0.40487  -0.39980
 Alpha  occ. eigenvalues --   -0.39836  -0.39563  -0.39405  -0.38989  -0.38714
 Alpha  occ. eigenvalues --   -0.38239  -0.37823  -0.37322  -0.37145  -0.36963
 Alpha  occ. eigenvalues --   -0.36805  -0.35770  -0.35262  -0.34321  -0.34128
 Alpha  occ. eigenvalues --   -0.33997  -0.33046  -0.32778  -0.32139  -0.31759
 Alpha  occ. eigenvalues --   -0.31398  -0.31042  -0.30243  -0.29609  -0.28368
 Alpha  occ. eigenvalues --   -0.27648  -0.26149  -0.25806  -0.25087  -0.24943
 Alpha  occ. eigenvalues --   -0.24683  -0.24009  -0.23744  -0.23325  -0.18950
 Alpha virt. eigenvalues --   -0.11912  -0.06865  -0.04317  -0.01886  -0.00189
 Alpha virt. eigenvalues --    0.00985   0.01439   0.02051   0.02347   0.03190
 Alpha virt. eigenvalues --    0.03506   0.03854   0.04722   0.05212   0.05515

 Mulliken charges:
               1
     1  O   -0.249626
     2  O   -0.257594
     3  O   -0.199651
     4  O   -0.143944
     5  O   -0.227481
     6  O   -0.193430
     7  N   -0.044829
     8  N   -0.197659
     9  N   -0.087883
    10  N   -0.244980
    11  C    0.127011
    12  C    0.051685
    13  C   -0.060030
    14  C   -0.192017
    15  C   -0.110691
    16  C    0.089990
    17  C   -0.200724
    18  C    0.203159
    19  C   -0.079462
    20  C   -0.111599
    21  C    0.125194
    22  C    0.142899
    23  C   -0.058082
    24  C    0.326110
    25  C    0.134846
    26  C   -0.163569
    27  C   -0.109372
    28  C    0.136053
    29  C   -0.015324
    30  C    0.016782
    31  C    0.020062
    32  C    0.207150
    33  C   -0.177718
    34  C    0.129330
    35  C    0.033450
    36  C   -0.028040
    37  C    0.109253
    38  C    0.013289
    39  C   -0.216168
    40  C    0.193311
    41  C    0.031374
    42  C    0.109180
    43  C    0.010969
    44  H    0.037988
    45  H    0.003213
    46  H    0.009832
    47  H    0.109816
    48  H    0.176957
    49  H   -0.016862
    50  H   -0.007094
    51  H    0.011507
    52  H   -0.023142
    53  H   -0.063734
    54  H   -0.011529
    55  H   -0.028023
    56  H    0.027449
    57  H    0.026777
    58  H    0.089295
    59  H    0.020680
    60  H    0.132097
    61  H    0.051315
    62  H    0.013723
    63  H   -0.006036
    64  H   -0.000751
    65  H    0.065478
    66  H   -0.058512
    67  H    0.027870
    68  H    0.055143
    69  H    0.030109
    70  H    0.030853
    71  H    0.030469
    72  H    0.196739
    73  H   -0.038422
    74  H    0.020948
    75  H    0.038298
    76  H    0.036739
    77  H    0.150664
    78  H    0.034540
    79  H   -0.015617
 Sum of Mulliken charges =  -0.00000

 Dipole moment (field-independent basis, Debye):
    X=             -2.7699    Y=              1.1325    Z=              4.2653  Tot=              5.2104
 Quadrupole moment (field-independent basis, Debye-Ang):
   XX=           -218.5226   YY=           -248.1501   ZZ=           -264.8983
   XY=             -2.0003   XZ=             35.4109   YZ=              2.4725

 Normal termination of Gaussian 16 at Sat Sep 21 12:49:12 2019.
