 Gaussian 16, Revision A.03,
 Gaussian 16:  ES64L-G16RevA.03 25-Dec-2016

 --------------------------
 # td=(NStates=1) B3LYP/SVP
 --------------------------

 --
 TD
 --
 Symbolic Z-matrix:
 Charge =  0 Multiplicity = 1

                         Standard orientation:
 ---------------------------------------------------------------------
 Center     Atomic      Atomic             Coordinates (Angstroms)
 Number     Number       Type             X           Y           Z
 ---------------------------------------------------------------------
      1          8           0       -3.249584   -1.771450   -2.753779
      2          8           0        3.023403    3.507033    2.883475
      3          8           0        3.707758    1.856816    4.271500
      4          8           0        7.577984   -1.821094   -0.483395
      5          8           0        6.506986   -3.557884   -1.593793
      6          8           0       -2.639732    1.790387    1.242331
      7          7           0       -0.355917   -2.246106    1.231741
      8          7           0       -2.745492   -1.275434   -0.587302
      9          7           0        1.108375    0.027817   -0.819963
     10          7           0       -0.987488    1.404978   -0.438001
     11          6           0       -3.407990   -1.233107    0.732588
     12          6           0       -2.678035   -2.028599    1.839316
     13          6           0       -1.288331   -1.764147    2.095227
     14          6           0       -0.533551   -0.895267    2.957052
     15          6           0        0.792628   -0.837523    2.544685
     16          6           0        0.925073   -1.684187    1.439790
     17          6           0       -4.769981   -1.786313    0.411771
     18          6           0        1.930234   -0.074535    3.117075
     19          6           0       -4.830345   -2.118609   -0.907204
     20          6           0        2.009426   -1.806065    0.525081
     21          6           0        2.078075   -0.980238   -0.633884
     22          6           0       -3.568905   -1.695475   -1.552946
     23          6           0        2.857721   -0.896853   -1.827369
     24          6           0       -1.340804   -0.063005    3.928896
     25          6           0       -5.819449   -2.013760    1.427227
     26          6           0        2.547906    0.226550   -2.564175
     27          6           0        1.896485    1.347816    2.720312
     28          6           0        1.394130    0.750640   -1.877317
     29          6           0        4.102965   -1.861919   -2.051122
     30          6           0       -5.949695   -2.599936   -1.765832
     31          6           0        5.331877   -1.387914   -1.061359
     32          6           0        3.137554    0.635212   -3.797490
     33          6           0        0.683062    1.864219   -2.161973
     34          6           0        2.923639    2.186766    3.334205
     35          6           0       -0.444572    2.254440   -1.384897
     36          6           0       -6.842433   -3.500469   -1.290478
     37          6           0        6.492598   -2.416154   -1.048111
     38          6           0       -1.217232    3.506937   -1.530303
     39          6           0       -2.191926    3.383339   -0.556234
     40          6           0       -1.999984    2.194497    0.188803
     41          6           0       -0.937487    4.499610   -2.520857
     42          6           0       -3.320435    4.385792   -0.170774
     43          6           0       -1.519831    5.707167   -2.749620
     44          1           0       -3.403125   -0.181426    0.964532
     45          1           0       -2.863105   -3.151127    1.706432
     46          1           0       -3.232350   -1.695123    2.701934
     47          1           0       -0.518877   -2.783276    0.390158
     48          1           0       -2.019365   -0.371721   -0.773484
     49          1           0        1.852652   -0.382788    4.270614
     50          1           0        2.875537   -0.424800    2.695609
     51          1           0        2.798295   -2.554101    0.616625
     52          1           0       -2.070066   -0.743507    4.381109
     53          1           0       -0.677854    0.734003    4.616913
     54          1           0       -1.854668    0.775014    3.302858
     55          1           0       -5.650813   -1.313482    2.292425
     56          1           0       -5.953405   -2.993399    1.909502
     57          1           0       -6.781695   -1.935543    0.867943
     58          1           0        2.119282    1.605158    1.570893
     59          1           0        1.068986    1.789235    2.921962
     60          1           0        0.240029    0.281465   -0.281101
     61          1           0        4.515681   -1.684675   -2.980086
     62          1           0        3.783420   -2.844488   -1.728464
     63          1           0       -5.719018   -2.445917   -2.777876
     64          1           0        4.921014   -1.254180    0.085518
     65          1           0        5.595364   -0.447690   -1.418411
     66          1           0        4.127794    0.214804   -4.173007
     67          1           0        3.336654    1.870237   -3.957525
     68          1           0        2.397464    0.601779   -4.687245
     69          1           0        0.682622    2.265917   -3.251047
     70          1           0       -7.142230   -3.866616   -0.342717
     71          1           0       -7.490605   -3.809758   -1.968037
     72          1           0        3.729146    3.901912    3.368420
     73          1           0       -0.100420    4.276476   -3.188721
     74          1           0       -4.174644    4.573727   -0.751310
     75          1           0       -3.787733    4.002448    0.736343
     76          1           0       -2.798500    5.272480    0.199052
     77          1           0        8.129354   -2.733763   -0.473942
     78          1           0       -0.996081    6.110248   -3.713172
     79          1           0       -2.143940    6.139780   -2.229224
 ---------------------------------------------------------------------

 SCF Done:  E(RB3LYP) =  -1947.83355156     A.U. after   19 cycles

 Excitation energies and oscillator strengths:

 Excited State   1:      Singlet-A      0.7918 eV 1565.77 nm  f=0.0002  <S**2>=0.000
     155 ->156         0.70270
 This state for optimization and/or second-order correction.
 Total Energy, E(TD-HF/TD-DFT) =  -1947.80445193
 Copying the excited state density for this state as the 1-particle RhoCI density.

 The electronic state is 1-A.
 Alpha  occ. eigenvalues --  -19.21037 -19.17143 -19.14977 -19.12909 -19.11828
 Alpha  occ. eigenvalues --  -19.06675 -14.36985 -14.36640 -14.32514 -14.32193
 Alpha  occ. eigenvalues --  -10.34556 -10.31856 -10.29021 -10.26180 -10.26015
 Alpha  occ. eigenvalues --  -10.25925 -10.25156 -10.23852 -10.23653 -10.23628
 Alpha  occ. eigenvalues --  -10.23205 -10.22984 -10.22497 -10.22271 -10.22027
 Alpha  occ. eigenvalues --  -10.21983 -10.21325 -10.21224 -10.20838 -10.20636
 Alpha  occ. eigenvalues --  -10.20330 -10.20227 -10.19851 -10.19837 -10.19637
 Alpha  occ. eigenvalues --  -10.19515 -10.19355 -10.18966 -10.18934 -10.17861
 Alpha  occ. eigenvalues --  -10.17482 -10.17366 -10.17023  -1.10068  -1.07427
 Alpha  occ. eigenvalues --   -1.01372  -1.00335  -1.00144  -0.98689  -0.97359
 Alpha  occ. eigenvalues --   -0.96383  -0.93356  -0.90805  -0.84174  -0.83237
 Alpha  occ. eigenvalues --   -0.82213  -0.82008  -0.79996  -0.79171  -0.78612
 Alpha  occ. eigenvalues --   -0.77449  -0.77143  -0.76348  -0.74820  -0.73512
 Alpha  occ. eigenvalues --   -0.71693  -0.71007  -0.69589  -0.69433  -0.67917
 Alpha  occ. eigenvalues --   -0.67018  -0.66397  -0.64516  -0.62300  -0.60525
 Alpha  occ. eigenvalues --   -0.60012  -0.59127  -0.58951  -0.58025  -0.57381
 Alpha  occ. eigenvalues --   -0.57119  -0.55727  -0.54674  -0.53812  -0.53106
 Alpha  occ. eigenvalues --   -0.52470  -0.51957  -0.51294  -0.50715  -0.50541
 Alpha  occ. eigenvalues --   -0.50034  -0.49528  -0.48885  -0.48620  -0.48078
 Alpha  occ. eigenvalues --   -0.47945  -0.46796  -0.46748  -0.46608  -0.46226
 Alpha  occ. eigenvalues --   -0.45837  -0.45457  -0.45126  -0.44605  -0.44451
 Alpha  occ. eigenvalues --   -0.43856  -0.43504  -0.42968  -0.42577  -0.42301
 Alpha  occ. eigenvalues --   -0.42075  -0.42035  -0.41648  -0.41184  -0.40979
 Alpha  occ. eigenvalues --   -0.40800  -0.40606  -0.39724  -0.39495  -0.39257
 Alpha  occ. eigenvalues --   -0.39105  -0.38935  -0.38753  -0.38572  -0.38414
 Alpha  occ. eigenvalues --   -0.37760  -0.37423  -0.36961  -0.36750  -0.36622
 Alpha  occ. eigenvalues --   -0.36351  -0.35947  -0.35900  -0.35234  -0.35016
 Alpha  occ. eigenvalues --   -0.33634  -0.33489  -0.33359  -0.32790  -0.32401
 Alpha  occ. eigenvalues --   -0.30879  -0.30386  -0.30086  -0.29505  -0.29261
 Alpha  occ. eigenvalues --   -0.27265  -0.26877  -0.26736  -0.24558  -0.23701
 Alpha  occ. eigenvalues --   -0.23344  -0.22759  -0.22660  -0.22432  -0.19219
 Alpha virt. eigenvalues --   -0.13819  -0.09233  -0.03855  -0.03197  -0.03121
 Alpha virt. eigenvalues --   -0.00653   0.01069   0.01624   0.02014   0.02387
 Alpha virt. eigenvalues --    0.02741   0.03742   0.04233   0.04351   0.05080

 Mulliken charges:
               1
     1  O   -0.279434
     2  O   -0.205589
     3  O   -0.278983
     4  O   -0.210490
     5  O   -0.272942
     6  O   -0.266704
     7  N   -0.068080
     8  N   -0.261265
     9  N   -0.071388
    10  N   -0.368081
    11  C    0.114496
    12  C    0.215859
    13  C   -0.076663
    14  C   -0.122128
    15  C   -0.094393
    16  C    0.021754
    17  C   -0.174982
    18  C    0.122818
    19  C   -0.083030
    20  C   -0.105050
    21  C    0.095954
    22  C    0.121682
    23  C   -0.123102
    24  C   -0.003103
    25  C    0.060202
    26  C   -0.025624
    27  C    0.103116
    28  C    0.117191
    29  C    0.177128
    30  C    0.034716
    31  C   -0.070510
    32  C   -0.040874
    33  C   -0.153977
    34  C    0.118447
    35  C    0.074167
    36  C    0.031298
    37  C    0.201050
    38  C    0.115403
    39  C   -0.191165
    40  C    0.222033
    41  C   -0.070555
    42  C    0.121971
    43  C    0.106068
    44  H    0.023735
    45  H    0.002089
    46  H   -0.033294
    47  H    0.109211
    48  H    0.197451
    49  H    0.059091
    50  H   -0.017752
    51  H    0.007023
    52  H    0.031073
    53  H    0.014071
    54  H    0.056447
    55  H    0.025437
    56  H    0.029108
    57  H    0.031455
    58  H    0.054025
    59  H   -0.025339
    60  H    0.190763
    61  H   -0.007135
    62  H    0.030944
    63  H   -0.000289
    64  H    0.076705
    65  H    0.027107
    66  H    0.048634
    67  H    0.036837
    68  H    0.052000
    69  H    0.036939
    70  H    0.006831
    71  H   -0.022865
    72  H    0.167557
    73  H   -0.007479
    74  H    0.029297
    75  H    0.006867
    76  H    0.025954
    77  H    0.213621
    78  H    0.049119
    79  H   -0.082484
 Sum of Mulliken charges =  -0.00000

 Dipole moment (field-independent basis, Debye):
    X=              2.5795    Y=              3.4831    Z=             -2.0475  Tot=              4.7935
 Quadrupole moment (field-independent basis, Debye-Ang):
   XX=           -237.8130   YY=           -239.1641   ZZ=           -267.1924
   XY=              0.8190   XZ=            -24.8358   YZ=            -22.6977

 Normal termination of Gaussian 16 at Thu Jul 25 13:35:03 2019.
