 Gaussian 16, Revision A.03,
 Gaussian 16:  ES64L-G16RevA.03 25-Dec-2016

 --------------------------
 # td=(NStates=1) B3LYP/SVP
 --------------------------

 --
 TD
 --
 Symbolic Z-matrix:
 Charge =  0 Multiplicity = 1

                         Standard orientation:
 ---------------------------------------------------------------------
 Center     Atomic      Atomic             Coordinates (Angstroms)
 Number     Number       Type             X           Y           Z
 ---------------------------------------------------------------------
      1          8           0        5.384821   -0.089772   -3.276874
      2          8           0       -2.979237   -2.966589    3.258350
      3          8           0       -3.217166   -0.832220    3.254134
      4          8           0       -2.088392    7.300086    1.354911
      5          8           0       -0.744005    6.983648   -0.441797
      6          8           0       -1.759085   -4.167628    0.076379
      7          7           0        2.360576    1.078502    0.715753
      8          7           0        4.384663   -0.478947   -1.178625
      9          7           0       -1.800158    0.630626   -0.281398
     10          7           0       -2.388252   -2.032604   -0.640834
     11          6           0        4.878049   -1.033012    0.175245
     12          6           0        4.454820   -0.113393    1.361428
     13          6           0        2.971537    0.018631    1.429285
     14          6           0        1.967761   -0.595035    2.186165
     15          6           0        0.732517    0.001995    1.984681
     16          6           0        0.989968    1.025072    1.001418
     17          6           0        6.370583   -1.227452   -0.096380
     18          6           0       -0.590587   -0.371740    2.560126
     19          6           0        6.683539   -0.799992   -1.333190
     20          6           0        0.129450    1.979338    0.302457
     21          6           0       -1.129717    1.806416   -0.164183
     22          6           0        5.456053   -0.447134   -2.138390
     23          6           0       -2.019152    2.903803   -0.877015
     24          6           0        2.152077   -1.709036    3.045011
     25          6           0        7.206230   -1.756860    0.941717
     26          6           0       -3.100569    2.237120   -1.343673
     27          6           0       -1.233797   -1.709868    2.465533
     28          6           0       -2.994707    0.858927   -1.027412
     29          6           0       -1.610401    4.386258   -0.899041
     30          6           0        7.907463   -0.697789   -2.175314
     31          6           0       -2.013265    5.155368    0.330323
     32          6           0       -4.381029    2.806811   -2.138148
     33          6           0       -3.919141   -0.146313   -1.347011
     34          6           0       -2.536694   -1.771987    2.996950
     35          6           0       -3.515258   -1.603071   -1.219150
     36          6           0        9.221444   -0.766197   -1.797399
     37          6           0       -1.532276    6.617530    0.363191
     38          6           0       -4.477585   -2.704669   -1.475423
     39          6           0       -3.868310   -3.845857   -1.008324
     40          6           0       -2.584950   -3.440300   -0.490127
     41          6           0       -5.672165   -2.530396   -2.304954
     42          6           0       -4.323377   -5.239852   -1.057276
     43          6           0       -6.553839   -3.391309   -2.652988
     44          1           0        4.478986   -2.006613    0.348593
     45          1           0        5.135952    0.764340    1.255583
     46          1           0        4.835438   -0.774203    2.219924
     47          1           0        2.807238    1.676928    0.123780
     48          1           0        3.455221   -0.416533   -1.569550
     49          1           0       -0.725779   -0.158205    3.714663
     50          1           0       -1.517320    0.467999    2.254553
     51          1           0        0.560390    2.954782    0.156502
     52          1           0        3.272064   -2.046902    3.328107
     53          1           0        1.748262   -1.377842    3.893177
     54          1           0        1.614586   -2.650644    2.747585
     55          1           0        6.532578   -2.383770    1.508477
     56          1           0        7.495602   -0.929481    1.642285
     57          1           0        8.199137   -2.190805    0.731215
     58          1           0       -1.247988   -2.121285    1.350278
     59          1           0       -0.648426   -2.334892    3.146765
     60          1           0       -1.180438   -0.267147   -0.129977
     61          1           0       -2.085215    4.751966   -1.927572
     62          1           0       -0.403917    4.437567   -1.015379
     63          1           0        7.838337   -0.492750   -3.277635
     64          1           0       -1.847920    4.802184    1.273859
     65          1           0       -3.322726    5.262365    0.400285
     66          1           0       -4.136369    4.082988   -2.513456
     67          1           0       -5.379873    2.768065   -1.804507
     68          1           0       -4.433937    2.263780   -3.058817
     69          1           0       -4.937110    0.155769   -1.994393
     70          1           0        9.530710   -0.658215   -0.658105
     71          1           0       10.128574   -0.515836   -2.490025
     72          1           0       -4.106020   -3.092012    3.147866
     73          1           0       -5.837290   -1.622806   -2.877171
     74          1           0       -5.445976   -5.387500   -1.043319
     75          1           0       -4.030004   -5.574700   -2.114153
     76          1           0       -3.638573   -5.846663   -0.181717
     77          1           0       -1.743211    8.247828    1.354734
     78          1           0       -7.568634   -2.956360   -3.193313
     79          1           0       -6.457664   -4.410675   -2.443024
 ---------------------------------------------------------------------

 SCF Done:  E(RB3LYP) =  -1947.80701493     A.U. after   16 cycles

 Excitation energies and oscillator strengths:

 Excited State   1:      Singlet-A      1.9035 eV  651.34 nm  f=0.3367  <S**2>=0.000
     155 ->156         0.70127
     155 <-156        -0.10200
 This state for optimization and/or second-order correction.
 Total Energy, E(TD-HF/TD-DFT) =  -1947.73706119
 Copying the excited state density for this state as the 1-particle RhoCI density.

 The electronic state is 1-A.
 Alpha  occ. eigenvalues --  -19.20089 -19.16343 -19.13306 -19.11404 -19.10374
 Alpha  occ. eigenvalues --  -19.09325 -14.37844 -14.37350 -14.34169 -14.29865
 Alpha  occ. eigenvalues --  -10.32612 -10.28686 -10.27977 -10.26982 -10.25647
 Alpha  occ. eigenvalues --  -10.24930 -10.24520 -10.24151 -10.23438 -10.23383
 Alpha  occ. eigenvalues --  -10.22827 -10.22752 -10.22699 -10.22578 -10.22290
 Alpha  occ. eigenvalues --  -10.22084 -10.21819 -10.21540 -10.21210 -10.20823
 Alpha  occ. eigenvalues --  -10.20684 -10.20673 -10.20575 -10.20399 -10.20112
 Alpha  occ. eigenvalues --  -10.20075 -10.20060 -10.19852 -10.19728 -10.19423
 Alpha  occ. eigenvalues --  -10.18623 -10.18557 -10.18050  -1.11285  -1.08352
 Alpha  occ. eigenvalues --   -1.03010  -1.02948  -1.01446  -0.97857  -0.97635
 Alpha  occ. eigenvalues --   -0.97155  -0.92184  -0.91338  -0.82613  -0.82178
 Alpha  occ. eigenvalues --   -0.81827  -0.81605  -0.81011  -0.79389  -0.77924
 Alpha  occ. eigenvalues --   -0.77491  -0.77044  -0.75892  -0.74469  -0.72350
 Alpha  occ. eigenvalues --   -0.71213  -0.70982  -0.69925  -0.68990  -0.68377
 Alpha  occ. eigenvalues --   -0.66562  -0.65383  -0.63578  -0.61108  -0.59917
 Alpha  occ. eigenvalues --   -0.58951  -0.58667  -0.57705  -0.57414  -0.56944
 Alpha  occ. eigenvalues --   -0.56074  -0.55592  -0.54513  -0.53640  -0.52791
 Alpha  occ. eigenvalues --   -0.51786  -0.51612  -0.50680  -0.50298  -0.49252
 Alpha  occ. eigenvalues --   -0.49110  -0.48832  -0.48372  -0.48003  -0.47699
 Alpha  occ. eigenvalues --   -0.47259  -0.46615  -0.45891  -0.45634  -0.45127
 Alpha  occ. eigenvalues --   -0.44803  -0.44589  -0.44209  -0.44092  -0.43735
 Alpha  occ. eigenvalues --   -0.43694  -0.43317  -0.43067  -0.42887  -0.42183
 Alpha  occ. eigenvalues --   -0.41822  -0.41676  -0.41663  -0.41580  -0.41173
 Alpha  occ. eigenvalues --   -0.40795  -0.40652  -0.40512  -0.39886  -0.39447
 Alpha  occ. eigenvalues --   -0.39056  -0.38960  -0.38579  -0.38323  -0.38265
 Alpha  occ. eigenvalues --   -0.37801  -0.37315  -0.37207  -0.36812  -0.36281
 Alpha  occ. eigenvalues --   -0.35659  -0.35513  -0.35142  -0.34187  -0.34076
 Alpha  occ. eigenvalues --   -0.33826  -0.33742  -0.33369  -0.31267  -0.31009
 Alpha  occ. eigenvalues --   -0.30290  -0.29825  -0.29210  -0.28754  -0.28033
 Alpha  occ. eigenvalues --   -0.26690  -0.26073  -0.25579  -0.25459  -0.24935
 Alpha  occ. eigenvalues --   -0.24589  -0.23845  -0.23547  -0.22718  -0.18968
 Alpha virt. eigenvalues --   -0.11341  -0.06493  -0.05600  -0.00647   0.00002
 Alpha virt. eigenvalues --    0.00062   0.00567   0.01477   0.01749   0.02701
 Alpha virt. eigenvalues --    0.03038   0.03946   0.04186   0.04360   0.05045

 Mulliken charges:
               1
     1  O   -0.193132
     2  O   -0.241879
     3  O   -0.217320
     4  O   -0.181235
     5  O   -0.197094
     6  O   -0.208793
     7  N   -0.070106
     8  N   -0.286494
     9  N   -0.127435
    10  N   -0.275830
    11  C    0.112836
    12  C    0.164722
    13  C   -0.031305
    14  C   -0.114601
    15  C    0.039130
    16  C    0.031821
    17  C   -0.184076
    18  C   -0.142667
    19  C   -0.029914
    20  C   -0.071445
    21  C    0.055479
    22  C    0.157568
    23  C   -0.092190
    24  C    0.083145
    25  C    0.107302
    26  C   -0.071352
    27  C    0.032050
    28  C    0.151473
    29  C    0.050098
    30  C   -0.009190
    31  C   -0.032345
    32  C    0.039943
    33  C   -0.144886
    34  C    0.062758
    35  C    0.046885
    36  C   -0.112236
    37  C    0.126478
    38  C    0.058448
    39  C   -0.161763
    40  C    0.145332
    41  C    0.000605
    42  C   -0.001350
    43  C   -0.064493
    44  H    0.011693
    45  H    0.010932
    46  H    0.000058
    47  H    0.081437
    48  H    0.122131
    49  H    0.015227
    50  H    0.058332
    51  H   -0.025217
    52  H    0.007989
    53  H   -0.011939
    54  H    0.050466
    55  H    0.011751
    56  H    0.031660
    57  H    0.037467
    58  H    0.112799
    59  H    0.012796
    60  H    0.209707
    61  H    0.047565
    62  H    0.054376
    63  H    0.035492
    64  H    0.015952
    65  H    0.052268
    66  H    0.035432
    67  H    0.034925
    68  H    0.022142
    69  H    0.037908
    70  H    0.025017
    71  H    0.046353
    72  H    0.260099
    73  H   -0.010048
    74  H    0.044861
    75  H    0.047322
    76  H    0.074880
    77  H    0.203042
    78  H    0.047160
    79  H   -0.014977
 Sum of Mulliken charges =  -0.00000

 Dipole moment (field-independent basis, Debye):
    X=             -1.4470    Y=              2.9517    Z=              1.9017  Tot=              3.7978
 Quadrupole moment (field-independent basis, Debye-Ang):
   XX=           -220.2661   YY=           -236.7685   ZZ=           -266.1417
   XY=             -4.3128   XZ=             38.6636   YZ=              5.4912

 Normal termination of Gaussian 16 at Fri Sep 13 09:27:59 2019.
