 Gaussian 16, Revision A.03,
 Gaussian 16:  ES64L-G16RevA.03 25-Dec-2016

 --------------------------
 # td=(NStates=1) B3LYP/SVP
 --------------------------

 --
 TD
 --
 Symbolic Z-matrix:
 Charge =  0 Multiplicity = 1

                         Standard orientation:
 ---------------------------------------------------------------------
 Center     Atomic      Atomic             Coordinates (Angstroms)
 Number     Number       Type             X           Y           Z
 ---------------------------------------------------------------------
      1          8           0        5.191214   -0.114333   -3.318645
      2          8           0       -3.018719   -2.833117    3.249503
      3          8           0       -3.254570   -0.609512    3.086494
      4          8           0       -1.859616    7.231756    1.242314
      5          8           0       -0.762771    6.925947   -0.733847
      6          8           0       -1.393665   -3.903443    0.008261
      7          7           0        2.300323    1.037664    0.681674
      8          7           0        4.298082   -0.402371   -1.204473
      9          7           0       -1.928069    0.621480   -0.342128
     10          7           0       -2.510920   -1.945564   -0.430040
     11          6           0        4.687392   -0.977051   -0.040890
     12          6           0        4.450675   -0.089661    1.296062
     13          6           0        2.926083    0.177248    1.494527
     14          6           0        1.913653   -0.436722    2.208075
     15          6           0        0.687845    0.193713    1.960656
     16          6           0        0.914801    1.152004    0.937406
     17          6           0        6.085992   -1.270446   -0.162735
     18          6           0       -0.600985   -0.178399    2.663030
     19          6           0        6.599250   -0.894295   -1.362526
     20          6           0        0.167496    2.000154    0.165227
     21          6           0       -1.212695    1.767160   -0.209884
     22          6           0        5.328589   -0.390259   -2.142078
     23          6           0       -1.987864    2.822492   -0.896603
     24          6           0        2.218455   -1.455693    3.219745
     25          6           0        7.008637   -1.874070    0.913040
     26          6           0       -3.183095    2.171012   -1.371542
     27          6           0       -1.191981   -1.600145    2.688773
     28          6           0       -3.085485    0.816418   -1.057130
     29          6           0       -1.711155    4.230320   -1.002686
     30          6           0        7.845766   -0.858150   -2.039775
     31          6           0       -1.845931    5.048809    0.297656
     32          6           0       -4.242252    2.798295   -2.173150
     33          6           0       -3.897004   -0.289504   -1.356985
     34          6           0       -2.598603   -1.614924    3.092611
     35          6           0       -3.658634   -1.583283   -0.978123
     36          6           0        9.060922   -0.806962   -1.451380
     37          6           0       -1.499354    6.445942    0.138718
     38          6           0       -4.274269   -2.846127   -1.522253
     39          6           0       -3.541393   -3.901372   -1.136707
     40          6           0       -2.342321   -3.388184   -0.468767
     41          6           0       -5.710910   -2.719502   -1.931804
     42          6           0       -3.876506   -5.324397   -1.164619
     43          6           0       -6.454281   -3.714995   -2.501604
     44          1           0        4.125071   -1.980619    0.141326
     45          1           0        5.000055    0.746940    1.262577
     46          1           0        4.567443   -0.655869    2.295524
     47          1           0        2.783497    1.526202    0.030338
     48          1           0        3.293870   -0.381241   -1.429627
     49          1           0       -0.428017    0.388088    3.763792
     50          1           0       -1.513723    0.451337    2.254658
     51          1           0        0.638086    2.862625   -0.370019
     52          1           0        3.449397   -1.564453    3.210635
     53          1           0        1.636838   -1.157552    4.248813
     54          1           0        1.737725   -2.432588    2.816585
     55          1           0        6.423288   -2.469288    1.446097
     56          1           0        7.285948   -1.011536    1.555896
     57          1           0        7.976679   -2.248026    0.469943
     58          1           0       -1.229807   -1.898164    1.584862
     59          1           0       -0.607072   -2.396938    3.282612
     60          1           0       -1.589114   -0.268266   -0.167198
     61          1           0       -2.357854    4.998217   -1.751676
     62          1           0       -0.804758    4.356760   -1.455356
     63          1           0        7.744905   -0.893052   -3.029562
     64          1           0       -1.293793    4.611784    1.186039
     65          1           0       -2.851117    5.048348    0.709711
     66          1           0       -3.976098    3.800354   -2.359574
     67          1           0       -5.262103    2.505360   -1.516099
     68          1           0       -4.336250    2.492747   -3.258625
     69          1           0       -4.819738   -0.023927   -1.910577
     70          1           0        9.307664   -0.785053   -0.409792
     71          1           0        9.955523   -0.811391   -2.066183
     72          1           0       -3.808218   -2.857589    3.483767
     73          1           0       -6.148759   -1.640868   -1.583481
     74          1           0       -5.076480   -5.383856   -1.003872
     75          1           0       -3.800139   -5.735297   -2.283540
     76          1           0       -3.174968   -6.111028   -0.727377
     77          1           0       -1.530988    8.109819    1.039621
     78          1           0       -7.529625   -3.637751   -2.520356
     79          1           0       -6.003302   -4.767621   -2.773456
 ---------------------------------------------------------------------

 SCF Done:  E(RB3LYP) =  -1947.83664732     A.U. after   18 cycles

 Excitation energies and oscillator strengths:

 Excited State   1:      Singlet-A      1.8982 eV  653.16 nm  f=0.4719  <S**2>=0.000
     155 ->156         0.70625
     155 <-156        -0.15872
 This state for optimization and/or second-order correction.
 Total Energy, E(TD-HF/TD-DFT) =  -1947.76688951
 Copying the excited state density for this state as the 1-particle RhoCI density.

 The electronic state is 1-A.
 Alpha  occ. eigenvalues --  -19.18066 -19.17261 -19.13576 -19.10932 -19.10789
 Alpha  occ. eigenvalues --  -19.10509 -14.38005 -14.36190 -14.35816 -14.27279
 Alpha  occ. eigenvalues --  -10.32852 -10.30411 -10.29243 -10.25865 -10.25674
 Alpha  occ. eigenvalues --  -10.24598 -10.23613 -10.23449 -10.23371 -10.22925
 Alpha  occ. eigenvalues --  -10.22686 -10.21978 -10.21857 -10.21676 -10.21518
 Alpha  occ. eigenvalues --  -10.21517 -10.21499 -10.21035 -10.20775 -10.20610
 Alpha  occ. eigenvalues --  -10.20551 -10.20462 -10.20320 -10.20258 -10.20130
 Alpha  occ. eigenvalues --  -10.20032 -10.19931 -10.19823 -10.19658 -10.19027
 Alpha  occ. eigenvalues --  -10.18967 -10.18768 -10.18521  -1.13128  -1.08575
 Alpha  occ. eigenvalues --   -1.03328  -1.03234  -1.01452  -1.00057  -0.99808
 Alpha  occ. eigenvalues --   -0.98601  -0.96787  -0.91212  -0.83268  -0.83136
 Alpha  occ. eigenvalues --   -0.82219  -0.81943  -0.80000  -0.79571  -0.78557
 Alpha  occ. eigenvalues --   -0.77627  -0.77148  -0.75883  -0.74489  -0.72635
 Alpha  occ. eigenvalues --   -0.72037  -0.71586  -0.69566  -0.69379  -0.69129
 Alpha  occ. eigenvalues --   -0.68303  -0.67014  -0.64442  -0.63298  -0.62644
 Alpha  occ. eigenvalues --   -0.60353  -0.59723  -0.58567  -0.57406  -0.56811
 Alpha  occ. eigenvalues --   -0.56393  -0.55507  -0.55304  -0.54935  -0.53606
 Alpha  occ. eigenvalues --   -0.52920  -0.51958  -0.51247  -0.50782  -0.50147
 Alpha  occ. eigenvalues --   -0.49140  -0.48950  -0.48639  -0.48276  -0.48205
 Alpha  occ. eigenvalues --   -0.47899  -0.47733  -0.46973  -0.46372  -0.45762
 Alpha  occ. eigenvalues --   -0.45442  -0.44971  -0.44919  -0.44769  -0.44028
 Alpha  occ. eigenvalues --   -0.43963  -0.43437  -0.43186  -0.43074  -0.42221
 Alpha  occ. eigenvalues --   -0.42041  -0.41880  -0.41644  -0.41383  -0.40942
 Alpha  occ. eigenvalues --   -0.40667  -0.40537  -0.40328  -0.40103  -0.39856
 Alpha  occ. eigenvalues --   -0.39763  -0.39533  -0.39016  -0.38880  -0.38732
 Alpha  occ. eigenvalues --   -0.38193  -0.38124  -0.37634  -0.37366  -0.36904
 Alpha  occ. eigenvalues --   -0.36713  -0.36529  -0.36294  -0.34671  -0.34236
 Alpha  occ. eigenvalues --   -0.33957  -0.33407  -0.32416  -0.32267  -0.32181
 Alpha  occ. eigenvalues --   -0.32036  -0.30441  -0.28865  -0.28589  -0.27107
 Alpha  occ. eigenvalues --   -0.26790  -0.26228  -0.25938  -0.25122  -0.24885
 Alpha  occ. eigenvalues --   -0.24545  -0.24087  -0.23161  -0.22095  -0.18028
 Alpha virt. eigenvalues --   -0.11046  -0.06606  -0.05772  -0.02310  -0.00126
 Alpha virt. eigenvalues --    0.00432   0.01385   0.02163   0.02202   0.03413
 Alpha virt. eigenvalues --    0.03857   0.04734   0.04830   0.05208   0.05461

 Mulliken charges:
               1
     1  O   -0.211199
     2  O   -0.022763
     3  O   -0.228072
     4  O   -0.210835
     5  O   -0.251567
     6  O   -0.154535
     7  N   -0.026818
     8  N   -0.142720
     9  N    0.001614
    10  N   -0.340665
    11  C    0.068072
    12  C    0.228021
    13  C   -0.130677
    14  C   -0.132417
    15  C   -0.049266
    16  C    0.136558
    17  C   -0.237481
    18  C   -0.053242
    19  C   -0.042918
    20  C   -0.126219
    21  C    0.061008
    22  C    0.133900
    23  C   -0.072696
    24  C   -0.002390
    25  C    0.172043
    26  C   -0.115680
    27  C   -0.011949
    28  C    0.080810
    29  C    0.049088
    30  C    0.050388
    31  C    0.026537
    32  C    0.078270
    33  C   -0.086596
    34  C    0.084491
    35  C    0.085230
    36  C   -0.021170
    37  C    0.139908
    38  C    0.002928
    39  C   -0.134443
    40  C    0.133121
    41  C   -0.061404
    42  C   -0.000381
    43  C   -0.053272
    44  H    0.030193
    45  H   -0.040163
    46  H    0.015704
    47  H    0.067521
    48  H    0.137109
    49  H    0.026269
    50  H    0.051053
    51  H    0.012815
    52  H    0.025980
    53  H    0.054359
    54  H    0.058681
    55  H   -0.023154
    56  H    0.027154
    57  H    0.045593
    58  H    0.098312
    59  H    0.031427
    60  H    0.098058
    61  H    0.041846
    62  H   -0.002786
    63  H   -0.036444
    64  H    0.061155
    65  H    0.027353
    66  H   -0.020990
    67  H    0.056241
    68  H    0.034350
    69  H   -0.026933
    70  H    0.012220
    71  H    0.023106
    72  H    0.084706
    73  H    0.046944
    74  H    0.045615
    75  H    0.032377
    76  H    0.042562
    77  H    0.175062
    78  H    0.023890
    79  H    0.052202
 Sum of Mulliken charges =  -0.00000

 Dipole moment (field-independent basis, Debye):
    X=              1.2491    Y=              1.0287    Z=              3.2862  Tot=              3.6630
 Quadrupole moment (field-independent basis, Debye-Ang):
   XX=           -219.6465   YY=           -248.2086   ZZ=           -265.1114
   XY=             -3.4298   XZ=             26.0735   YZ=              1.0922

 Normal termination of Gaussian 16 at Thu Sep 26 06:14:19 2019.
