 Gaussian 16, Revision A.03,
 Gaussian 16:  ES64L-G16RevA.03 25-Dec-2016

 --------------------------
 # td=(NStates=1) B3LYP/SVP
 --------------------------

 --
 TD
 --
 Symbolic Z-matrix:
 Charge =  0 Multiplicity = 1

                         Standard orientation:
 ---------------------------------------------------------------------
 Center     Atomic      Atomic             Coordinates (Angstroms)
 Number     Number       Type             X           Y           Z
 ---------------------------------------------------------------------
      1          8           0       -3.286717   -1.545118   -2.817545
      2          8           0        2.838185    3.500870    3.168370
      3          8           0        3.647563    1.736751    4.337666
      4          8           0        7.736256   -1.755972   -0.514846
      5          8           0        6.630419   -3.254585   -1.834908
      6          8           0       -2.577339    1.567555    1.254858
      7          7           0       -0.220598   -2.378270    1.118655
      8          7           0       -2.712082   -1.302240   -0.588725
      9          7           0        1.097902    0.013116   -0.708028
     10          7           0       -0.950981    1.478017   -0.416538
     11          6           0       -3.425085   -1.298087    0.731844
     12          6           0       -2.593031   -2.210208    1.775273
     13          6           0       -1.215223   -1.842747    2.003565
     14          6           0       -0.654453   -0.898633    2.888711
     15          6           0        0.729956   -0.809709    2.520376
     16          6           0        0.997695   -1.760441    1.392680
     17          6           0       -4.784248   -1.868018    0.384654
     18          6           0        1.881422   -0.038784    3.324415
     19          6           0       -4.919281   -2.122389   -0.965754
     20          6           0        2.076831   -1.934602    0.343975
     21          6           0        2.128454   -0.973136   -0.664056
     22          6           0       -3.515827   -1.652896   -1.630304
     23          6           0        3.047222   -0.803810   -1.738802
     24          6           0       -1.382863   -0.123682    3.870350
     25          6           0       -5.696444   -2.071249    1.454917
     26          6           0        2.703957    0.308130   -2.496641
     27          6           0        1.825425    1.414633    2.790368
     28          6           0        1.375656    0.793299   -1.863264
     29          6           0        4.347580   -1.662492   -1.813210
     30          6           0       -5.945842   -2.760883   -1.789164
     31          6           0        5.607631   -1.101297   -1.143995
     32          6           0        3.188433    0.755063   -3.854186
     33          6           0        0.549285    1.875649   -2.230303
     34          6           0        2.858111    2.197088    3.486298
     35          6           0       -0.538465    2.195376   -1.436028
     36          6           0       -6.918540   -3.406353   -1.360958
     37          6           0        6.683510   -2.151530   -1.233186
     38          6           0       -1.417941    3.419021   -1.532246
     39          6           0       -2.303500    3.327385   -0.522639
     40          6           0       -2.003323    2.111535    0.270293
     41          6           0       -1.381664    4.331829   -2.663797
     42          6           0       -3.429619    4.263284   -0.130332
     43          6           0       -1.865921    5.674822   -2.729568
     44          1           0       -3.337143   -0.276687    1.098777
     45          1           0       -2.705536   -3.149925    1.404375
     46          1           0       -3.310065   -2.129392    2.749584
     47          1           0       -0.163641   -2.857695    0.296983
     48          1           0       -1.957771   -0.617722   -0.428181
     49          1           0        1.513960   -0.083894    4.326125
     50          1           0        2.816747   -0.488404    3.101497
     51          1           0        2.765439   -2.709020    0.587384
     52          1           0       -2.080631   -0.957668    4.326935
     53          1           0       -0.634446    0.418223    4.540499
     54          1           0       -2.065824    0.655667    3.366114
     55          1           0       -5.636642   -1.302034    2.238562
     56          1           0       -5.812944   -2.925569    2.110634
     57          1           0       -6.708744   -1.932098    1.001239
     58          1           0        1.864607    1.366997    1.603548
     59          1           0        0.825465    2.000350    2.990570
     60          1           0        0.426390    0.179077   -0.280084
     61          1           0        4.663866   -1.648017   -2.837699
     62          1           0        4.232163   -2.728466   -1.635118
     63          1           0       -5.767185   -2.748286   -2.900244
     64          1           0        5.545984   -0.795543    0.067975
     65          1           0        6.263215   -0.212429   -1.397241
     66          1           0        4.238395    0.183463   -4.090898
     67          1           0        3.372347    1.904012   -3.715748
     68          1           0        2.374092    0.497783   -4.673774
     69          1           0        1.031704    2.563429   -2.987942
     70          1           0       -7.256375   -3.318463   -0.089347
     71          1           0       -7.621721   -3.857854   -1.988532
     72          1           0        3.695956    3.836524    3.483731
     73          1           0       -0.890703    4.080691   -3.644413
     74          1           0       -4.210359    4.545872   -1.086860
     75          1           0       -3.785765    3.689337    0.768320
     76          1           0       -2.684312    5.289795    0.332788
     77          1           0        8.436917   -2.468913   -0.546815
     78          1           0       -1.521599    6.315203   -3.479209
     79          1           0       -2.381845    5.954291   -1.835577
 ---------------------------------------------------------------------

 SCF Done:  E(RB3LYP) =  -1947.76027851     A.U. after   17 cycles

 Excitation energies and oscillator strengths:

 Excited State   1:      Singlet-A      0.9441 eV 1313.26 nm  f=0.0097  <S**2>=0.000
     155 ->156         0.70266
 This state for optimization and/or second-order correction.
 Total Energy, E(TD-HF/TD-DFT) =  -1947.72558379
 Copying the excited state density for this state as the 1-particle RhoCI density.

 The electronic state is 1-A.
 Alpha  occ. eigenvalues --  -19.20416 -19.18248 -19.13945 -19.13277 -19.11957
 Alpha  occ. eigenvalues --  -19.07745 -14.36990 -14.36326 -14.32262 -14.30258
 Alpha  occ. eigenvalues --  -10.33796 -10.31500 -10.29080 -10.27803 -10.26744
 Alpha  occ. eigenvalues --  -10.26582 -10.24924 -10.24777 -10.24451 -10.24343
 Alpha  occ. eigenvalues --  -10.23786 -10.23333 -10.22955 -10.22754 -10.22242
 Alpha  occ. eigenvalues --  -10.21487 -10.21409 -10.21384 -10.21001 -10.20945
 Alpha  occ. eigenvalues --  -10.20903 -10.20717 -10.20686 -10.19643 -10.19059
 Alpha  occ. eigenvalues --  -10.18893 -10.18888 -10.18841 -10.18350 -10.18264
 Alpha  occ. eigenvalues --  -10.17968 -10.17773 -10.17433  -1.10886  -1.09376
 Alpha  occ. eigenvalues --   -1.02047  -1.00237  -0.99819  -0.99582  -0.98718
 Alpha  occ. eigenvalues --   -0.95216  -0.94076  -0.90488  -0.84933  -0.82006
 Alpha  occ. eigenvalues --   -0.80970  -0.80634  -0.80179  -0.79894  -0.78446
 Alpha  occ. eigenvalues --   -0.77117  -0.76779  -0.75155  -0.74608  -0.73068
 Alpha  occ. eigenvalues --   -0.71170  -0.70018  -0.69643  -0.69186  -0.67528
 Alpha  occ. eigenvalues --   -0.66630  -0.65535  -0.63146  -0.62124  -0.60593
 Alpha  occ. eigenvalues --   -0.59633  -0.59178  -0.59108  -0.58150  -0.56809
 Alpha  occ. eigenvalues --   -0.55829  -0.55367  -0.54743  -0.53378  -0.52638
 Alpha  occ. eigenvalues --   -0.51790  -0.51094  -0.51025  -0.49921  -0.49537
 Alpha  occ. eigenvalues --   -0.49182  -0.48790  -0.48644  -0.47855  -0.47611
 Alpha  occ. eigenvalues --   -0.47321  -0.47077  -0.46861  -0.46174  -0.46123
 Alpha  occ. eigenvalues --   -0.44808  -0.44497  -0.44311  -0.44078  -0.43711
 Alpha  occ. eigenvalues --   -0.43292  -0.43095  -0.42852  -0.42479  -0.42394
 Alpha  occ. eigenvalues --   -0.42049  -0.41740  -0.41610  -0.41192  -0.40671
 Alpha  occ. eigenvalues --   -0.40535  -0.40102  -0.39851  -0.39713  -0.39306
 Alpha  occ. eigenvalues --   -0.39106  -0.38992  -0.38250  -0.37929  -0.37829
 Alpha  occ. eigenvalues --   -0.37423  -0.36892  -0.36858  -0.36683  -0.35954
 Alpha  occ. eigenvalues --   -0.35593  -0.35314  -0.34938  -0.34652  -0.34199
 Alpha  occ. eigenvalues --   -0.33967  -0.33318  -0.32379  -0.31576  -0.31565
 Alpha  occ. eigenvalues --   -0.31480  -0.30555  -0.29581  -0.28857  -0.28560
 Alpha  occ. eigenvalues --   -0.28152  -0.27543  -0.26340  -0.24167  -0.23875
 Alpha  occ. eigenvalues --   -0.23063  -0.22683  -0.22485  -0.22178  -0.18629
 Alpha virt. eigenvalues --   -0.12814  -0.08407  -0.03315  -0.03002  -0.02212
 Alpha virt. eigenvalues --   -0.00735   0.01142   0.01434   0.01996   0.02753
 Alpha virt. eigenvalues --    0.02919   0.03933   0.04294   0.04496   0.05004

 Mulliken charges:
               1
     1  O   -0.233092
     2  O   -0.170696
     3  O   -0.270525
     4  O   -0.182912
     5  O   -0.273202
     6  O   -0.244241
     7  N   -0.060218
     8  N   -0.221851
     9  N    0.068594
    10  N   -0.293501
    11  C    0.019561
    12  C    0.184418
    13  C   -0.034800
    14  C   -0.063557
    15  C   -0.193696
    16  C   -0.079415
    17  C   -0.107484
    18  C    0.214133
    19  C   -0.070997
    20  C   -0.112964
    21  C    0.201255
    22  C    0.158000
    23  C   -0.052712
    24  C    0.026949
    25  C    0.056251
    26  C   -0.113040
    27  C   -0.114732
    28  C    0.058559
    29  C    0.167434
    30  C    0.020149
    31  C   -0.092111
    32  C   -0.014046
    33  C   -0.089584
    34  C    0.157946
    35  C    0.114624
    36  C   -0.054794
    37  C    0.147341
    38  C    0.106899
    39  C   -0.199785
    40  C    0.213877
    41  C   -0.119186
    42  C   -0.034990
    43  C    0.016571
    44  H    0.047883
    45  H   -0.057894
    46  H    0.004735
    47  H    0.085189
    48  H    0.147905
    49  H    0.006098
    50  H   -0.003334
    51  H    0.011800
    52  H    0.032415
    53  H    0.015597
    54  H    0.064425
    55  H    0.003431
    56  H    0.030168
    57  H    0.026295
    58  H    0.064081
    59  H    0.064653
    60  H   -0.022455
    61  H   -0.000312
    62  H    0.038035
    63  H    0.011753
    64  H    0.069235
    65  H    0.053120
    66  H    0.057086
    67  H    0.056952
    68  H    0.087636
    69  H    0.004979
    70  H    0.028490
    71  H   -0.000264
    72  H    0.177957
    73  H    0.015311
    74  H    0.088266
    75  H    0.051519
    76  H    0.064317
    77  H    0.202676
    78  H    0.023536
    79  H    0.014286
 Sum of Mulliken charges =  -0.00000

 Dipole moment (field-independent basis, Debye):
    X=              5.2394    Y=              3.4032    Z=             -1.7340  Tot=              6.4838
 Quadrupole moment (field-independent basis, Debye-Ang):
   XX=           -229.0668   YY=           -242.5761   ZZ=           -267.6931
   XY=              3.0526   XZ=            -23.3684   YZ=            -17.0329

 Normal termination of Gaussian 16 at Sat Jul 27 02:56:53 2019.
