 Gaussian 16, Revision A.03,
 Gaussian 16:  ES64L-G16RevA.03 25-Dec-2016

 --------------------------
 # td=(NStates=1) B3LYP/SVP
 --------------------------

 --
 TD
 --
 Symbolic Z-matrix:
 Charge =  0 Multiplicity = 1

                         Standard orientation:
 ---------------------------------------------------------------------
 Center     Atomic      Atomic             Coordinates (Angstroms)
 Number     Number       Type             X           Y           Z
 ---------------------------------------------------------------------
      1          8           0       -3.250385   -1.042530   -2.980592
      2          8           0        3.011071    2.753411    3.463055
      3          8           0        3.922300    0.993495    4.438503
      4          8           0        7.825811   -1.247949   -1.174979
      5          8           0        6.617743   -2.639617   -2.474688
      6          8           0       -2.745335    1.435081    1.560461
      7          7           0       -0.243122   -2.522282    0.655485
      8          7           0       -2.664166   -1.022870   -0.615682
      9          7           0        1.156153    0.204173   -0.630343
     10          7           0       -1.137316    1.488420   -0.034085
     11          6           0       -3.422247   -1.304892    0.561252
     12          6           0       -2.596322   -2.485453    1.382316
     13          6           0       -1.218148   -2.158760    1.651725
     14          6           0       -0.527763   -1.596582    2.768729
     15          6           0        0.896714   -1.543138    2.409306
     16          6           0        1.041808   -2.085318    1.011442
     17          6           0       -4.747499   -1.905463    0.102371
     18          6           0        1.985597   -0.778263    3.126441
     19          6           0       -4.791198   -1.871781   -1.234181
     20          6           0        2.048528   -1.997603    0.101142
     21          6           0        2.017865   -0.802127   -0.696903
     22          6           0       -3.425702   -1.257438   -1.805972
     23          6           0        2.941305   -0.436420   -1.856615
     24          6           0       -1.210308   -1.089450    3.983459
     25          6           0       -5.759566   -2.270867    1.013461
     26          6           0        2.517297    0.712861   -2.368634
     27          6           0        2.112854    0.679128    2.920590
     28          6           0        1.261637    1.076181   -1.722757
     29          6           0        4.124775   -1.289084   -2.152733
     30          6           0       -5.749678   -2.356387   -2.192211
     31          6           0        5.309375   -0.991442   -1.205334
     32          6           0        3.082752    1.440273   -3.464765
     33          6           0        0.443852    2.231502   -1.881284
     34          6           0        3.074136    1.414387    3.688602
     35          6           0       -0.717586    2.439798   -0.979112
     36          6           0       -6.859337   -3.106304   -2.030682
     37          6           0        6.653688   -1.803423   -1.689148
     38          6           0       -1.463250    3.667842   -0.870967
     39          6           0       -2.325598    3.506711    0.174998
     40          6           0       -2.134300    2.038174    0.680753
     41          6           0       -1.281921    4.729335   -1.803144
     42          6           0       -3.452474    4.410767    0.593175
     43          6           0       -1.901008    5.972754   -1.719029
     44          1           0       -3.358503   -0.490487    1.411526
     45          1           0       -2.768093   -3.383212    0.926759
     46          1           0       -3.161214   -2.565642    2.218910
     47          1           0       -0.672351   -2.599446   -0.387899
     48          1           0       -2.042244   -0.032348   -0.826701
     49          1           0        2.027595   -1.072408    4.246980
     50          1           0        2.665615   -1.370179    2.646877
     51          1           0        2.837730   -2.815316    0.062060
     52          1           0       -1.896500   -1.814985    4.354729
     53          1           0       -0.504744   -1.123818    4.749720
     54          1           0       -1.589452   -0.141365    3.725557
     55          1           0       -5.451110   -1.623853    1.936834
     56          1           0       -5.517539   -3.403704    1.213370
     57          1           0       -6.831423   -2.337938    0.644272
     58          1           0        1.723004    0.995592    1.833262
     59          1           0        1.049160    1.012673    3.321234
     60          1           0       -0.013117    0.028461   -0.148061
     61          1           0        4.281643   -1.252174   -3.324928
     62          1           0        3.923505   -2.479906   -1.966267
     63          1           0       -5.520136   -2.006485   -3.174582
     64          1           0        5.036571   -1.193331   -0.205311
     65          1           0        5.640090    0.198518   -1.089628
     66          1           0        4.172052    1.227761   -3.957905
     67          1           0        3.446583    2.431189   -3.106272
     68          1           0        2.241956    1.145292   -4.324532
     69          1           0        0.550983    3.000219   -2.682068
     70          1           0       -7.163989   -3.470080   -1.105241
     71          1           0       -7.526770   -3.417412   -2.875332
     72          1           0        3.781568    3.209245    3.903174
     73          1           0       -0.710187    4.652122   -2.532757
     74          1           0       -4.143836    4.403216   -0.347070
     75          1           0       -4.212173    3.972242    1.357232
     76          1           0       -2.976844    5.257384    0.948212
     77          1           0        8.464473   -2.041978   -1.364815
     78          1           0       -1.575661    6.701571   -2.412258
     79          1           0       -2.606786    6.216251   -0.928547
 ---------------------------------------------------------------------

 SCF Done:  E(RB3LYP) =  -1947.74315385     A.U. after   20 cycles

 Excitation energies and oscillator strengths:

 Excited State   1:      Singlet-A      0.7226 eV 1715.74 nm  f=0.0022  <S**2>=0.000
     155 ->156         0.70319
 This state for optimization and/or second-order correction.
 Total Energy, E(TD-HF/TD-DFT) =  -1947.71659768
 Copying the excited state density for this state as the 1-particle RhoCI density.

 The electronic state is 1-A.
 Alpha  occ. eigenvalues --  -19.19081 -19.16515 -19.15261 -19.12566 -19.11396
 Alpha  occ. eigenvalues --  -19.10153 -14.38343 -14.36822 -14.33763 -14.32262
 Alpha  occ. eigenvalues --  -10.33456 -10.31084 -10.28915 -10.27817 -10.27525
 Alpha  occ. eigenvalues --  -10.26954 -10.25641 -10.23372 -10.23346 -10.23257
 Alpha  occ. eigenvalues --  -10.23141 -10.22563 -10.22488 -10.22406 -10.22238
 Alpha  occ. eigenvalues --  -10.21993 -10.21522 -10.21231 -10.21224 -10.20947
 Alpha  occ. eigenvalues --  -10.20602 -10.20548 -10.20490 -10.20038 -10.19311
 Alpha  occ. eigenvalues --  -10.18602 -10.18132 -10.17848 -10.17540 -10.17449
 Alpha  occ. eigenvalues --  -10.17322 -10.17275 -10.16456  -1.11844  -1.08280
 Alpha  occ. eigenvalues --   -1.03421  -1.02530  -1.01625  -0.99711  -0.98760
 Alpha  occ. eigenvalues --   -0.94067  -0.93535  -0.91154  -0.84039  -0.83027
 Alpha  occ. eigenvalues --   -0.82096  -0.80705  -0.80532  -0.78862  -0.78038
 Alpha  occ. eigenvalues --   -0.76727  -0.76152  -0.75961  -0.74198  -0.72735
 Alpha  occ. eigenvalues --   -0.71380  -0.70975  -0.68714  -0.68451  -0.66219
 Alpha  occ. eigenvalues --   -0.65852  -0.65163  -0.63275  -0.62116  -0.60163
 Alpha  occ. eigenvalues --   -0.58887  -0.58789  -0.58550  -0.56772  -0.56207
 Alpha  occ. eigenvalues --   -0.55800  -0.54703  -0.53647  -0.53209  -0.52291
 Alpha  occ. eigenvalues --   -0.51584  -0.51360  -0.50853  -0.50279  -0.50141
 Alpha  occ. eigenvalues --   -0.49621  -0.49142  -0.48492  -0.47996  -0.47387
 Alpha  occ. eigenvalues --   -0.47173  -0.46904  -0.46698  -0.46443  -0.46042
 Alpha  occ. eigenvalues --   -0.45624  -0.45416  -0.44877  -0.44273  -0.44121
 Alpha  occ. eigenvalues --   -0.43932  -0.43699  -0.43484  -0.43030  -0.42798
 Alpha  occ. eigenvalues --   -0.42571  -0.42446  -0.41941  -0.41790  -0.41276
 Alpha  occ. eigenvalues --   -0.40897  -0.40631  -0.40424  -0.40309  -0.39622
 Alpha  occ. eigenvalues --   -0.39533  -0.39033  -0.38869  -0.38441  -0.37749
 Alpha  occ. eigenvalues --   -0.37355  -0.37173  -0.37076  -0.36699  -0.36361
 Alpha  occ. eigenvalues --   -0.36072  -0.35908  -0.34748  -0.34453  -0.34208
 Alpha  occ. eigenvalues --   -0.33860  -0.33562  -0.32647  -0.31844  -0.31073
 Alpha  occ. eigenvalues --   -0.30347  -0.30139  -0.29933  -0.29585  -0.28890
 Alpha  occ. eigenvalues --   -0.27361  -0.27176  -0.26478  -0.25211  -0.24078
 Alpha  occ. eigenvalues --   -0.23861  -0.22669  -0.22299  -0.21875  -0.18530
 Alpha virt. eigenvalues --   -0.13425  -0.07848  -0.03624  -0.03138  -0.00311
 Alpha virt. eigenvalues --    0.00071   0.00336   0.01575   0.02365   0.02673
 Alpha virt. eigenvalues --    0.02803   0.03860   0.04505   0.04675   0.05304

 Mulliken charges:
               1
     1  O   -0.212952
     2  O   -0.218890
     3  O   -0.219040
     4  O   -0.243380
     5  O   -0.142945
     6  O   -0.210407
     7  N   -0.177853
     8  N   -0.314480
     9  N   -0.177415
    10  N   -0.333532
    11  C   -0.033646
    12  C    0.262155
    13  C   -0.055998
    14  C   -0.161027
    15  C   -0.165208
    16  C    0.032424
    17  C   -0.115810
    18  C    0.141760
    19  C   -0.067849
    20  C   -0.130747
    21  C    0.065266
    22  C    0.161092
    23  C   -0.030436
    24  C    0.207832
    25  C    0.036043
    26  C   -0.090470
    27  C   -0.041762
    28  C    0.143998
    29  C    0.017673
    30  C    0.013757
    31  C   -0.049908
    32  C   -0.036292
    33  C   -0.088939
    34  C    0.148990
    35  C    0.076323
    36  C   -0.033492
    37  C    0.152607
    38  C    0.116519
    39  C   -0.231127
    40  C    0.178118
    41  C    0.043361
    42  C    0.056784
    43  C    0.012489
    44  H    0.089963
    45  H   -0.052864
    46  H   -0.067075
    47  H    0.168439
    48  H    0.212988
    49  H    0.020069
    50  H   -0.028689
    51  H    0.040693
    52  H   -0.008419
    53  H   -0.028271
    54  H    0.035649
    55  H    0.048739
    56  H    0.041224
    57  H    0.047830
    58  H    0.065642
    59  H    0.050074
    60  H    0.288118
    61  H    0.045647
    62  H    0.048278
    63  H   -0.014818
    64  H    0.031497
    65  H    0.052135
    66  H    0.040241
    67  H    0.041270
    68  H    0.083012
    69  H    0.017814
    70  H   -0.022204
    71  H    0.025653
    72  H    0.191273
    73  H   -0.132589
    74  H    0.062179
    75  H    0.043689
    76  H    0.040731
    77  H    0.201512
    78  H    0.017642
    79  H    0.019348
 Sum of Mulliken charges =  -0.00000

 Dipole moment (field-independent basis, Debye):
    X=              2.3810    Y=              3.7323    Z=             -1.6260  Tot=              4.7163
 Quadrupole moment (field-independent basis, Debye-Ang):
   XX=           -243.4491   YY=           -231.4250   ZZ=           -270.6386
   XY=             -1.7288   XZ=            -24.1274   YZ=            -11.1224

 Normal termination of Gaussian 16 at Sat Jul 27 20:59:50 2019.
