 Gaussian 16, Revision A.03,
 Gaussian 16:  ES64L-G16RevA.03 25-Dec-2016

 --------------------------
 # td=(NStates=1) B3LYP/SVP
 --------------------------

 --
 TD
 --
 Symbolic Z-matrix:
 Charge =  0 Multiplicity = 1

                         Standard orientation:
 ---------------------------------------------------------------------
 Center     Atomic      Atomic             Coordinates (Angstroms)
 Number     Number       Type             X           Y           Z
 ---------------------------------------------------------------------
      1          8           0       -3.576055   -0.790880   -3.050396
      2          8           0        3.324014    2.390970    3.576747
      3          8           0        3.993955    0.339299    4.410921
      4          8           0        7.637192   -1.276937   -1.014946
      5          8           0        6.672610   -2.550571   -2.604748
      6          8           0       -2.794488    1.231374    1.694542
      7          7           0       -0.204242   -2.512912    0.388658
      8          7           0       -2.765117   -1.054074   -0.776806
      9          7           0        1.172047    0.288862   -0.727347
     10          7           0       -1.051870    1.391257    0.086674
     11          6           0       -3.421709   -1.381481    0.520990
     12          6           0       -2.481537   -2.553974    1.249571
     13          6           0       -1.097320   -2.233638    1.330877
     14          6           0       -0.413829   -1.767653    2.567151
     15          6           0        0.916626   -1.653479    2.152673
     16          6           0        1.068031   -2.036202    0.791428
     17          6           0       -4.766907   -1.947026    0.106822
     18          6           0        2.067767   -1.039096    3.048189
     19          6           0       -4.926684   -1.799894   -1.257825
     20          6           0        2.081263   -1.792593   -0.060527
     21          6           0        2.159269   -0.639480   -0.840986
     22          6           0       -3.636203   -1.248937   -1.866940
     23          6           0        2.984166   -0.296270   -1.998836
     24          6           0       -1.180108   -1.252882    3.720593
     25          6           0       -5.752357   -2.291772    1.095966
     26          6           0        2.499405    0.920763   -2.539319
     27          6           0        2.149693    0.471470    2.851184
     28          6           0        1.225596    1.217878   -1.658992
     29          6           0        4.273966   -1.104068   -2.243426
     30          6           0       -6.068674   -1.956292   -2.206491
     31          6           0        5.401736   -0.767062   -1.416825
     32          6           0        3.025542    1.841713   -3.628949
     33          6           0        0.413761    2.343975   -1.552787
     34          6           0        3.287354    0.974615    3.731146
     35          6           0       -0.642881    2.514802   -0.750184
     36          6           0       -7.205273   -2.712553   -2.121106
     37          6           0        6.564966   -1.642724   -1.744143
     38          6           0       -1.399066    3.616556   -0.533586
     39          6           0       -2.435064    3.272698    0.446191
     40          6           0       -2.138853    1.900952    0.881184
     41          6           0       -1.302286    4.968700   -1.290084
     42          6           0       -3.502697    4.108477    1.044998
     43          6           0       -1.844340    6.049388   -1.133948
     44          1           0       -3.481731   -0.327597    1.091295
     45          1           0       -2.574058   -3.699531    0.702168
     46          1           0       -2.921953   -2.861744    2.244986
     47          1           0       -0.457727   -2.790321   -0.613554
     48          1           0       -2.167283   -0.263196   -0.824403
     49          1           0        1.575922   -0.868435    4.228623
     50          1           0        3.029742   -1.367689    2.740943
     51          1           0        2.717045   -2.715301   -0.326875
     52          1           0       -1.769904   -1.854688    4.095897
     53          1           0       -0.241996   -0.994834    4.341364
     54          1           0       -1.771990   -0.366786    3.372019
     55          1           0       -5.811161   -1.783707    2.125472
     56          1           0       -5.617902   -3.376367    1.100672
     57          1           0       -6.589460   -1.993710    0.703442
     58          1           0        2.280348    0.698234    1.827257
     59          1           0        1.147638    0.856926    3.049254
     60          1           0        0.396468    0.331979   -0.104687
     61          1           0        4.669413   -0.809642   -3.151159
     62          1           0        3.894852   -2.017376   -2.426882
     63          1           0       -5.985063   -1.440969   -3.210313
     64          1           0        5.475743   -0.909179   -0.270240
     65          1           0        5.706506    0.202250   -1.565111
     66          1           0        4.184395    1.494147   -3.880625
     67          1           0        2.901880    2.960869   -3.267432
     68          1           0        2.309399    1.692444   -4.632108
     69          1           0        0.616346    3.158499   -2.439577
     70          1           0       -7.619761   -3.333350   -1.305784
     71          1           0       -7.825711   -2.943788   -3.053489
     72          1           0        4.059256    2.670384    4.268126
     73          1           0       -0.489060    4.839833   -1.990418
     74          1           0       -4.016208    4.518207    0.417111
     75          1           0       -3.949569    3.419236    1.667445
     76          1           0       -3.074459    5.036173    1.696021
     77          1           0        8.173374   -2.096651   -1.275697
     78          1           0       -1.733800    6.804137   -1.817748
     79          1           0       -2.573208    6.084121   -0.575275
 ---------------------------------------------------------------------

 SCF Done:  E(RB3LYP) =  -1947.65922482     A.U. after   22 cycles

 Excitation energies and oscillator strengths:

 Excited State   1:      Singlet-A      0.6196 eV 2001.12 nm  f=0.0079  <S**2>=0.000
     155 ->156         0.70239
 This state for optimization and/or second-order correction.
 Total Energy, E(TD-HF/TD-DFT) =  -1947.63645590
 Copying the excited state density for this state as the 1-particle RhoCI density.

 The electronic state is 1-A.
 Alpha  occ. eigenvalues --  -19.20181 -19.17482 -19.14484 -19.14446 -19.12423
 Alpha  occ. eigenvalues --  -19.08182 -14.38422 -14.38037 -14.32352 -14.29743
 Alpha  occ. eigenvalues --  -10.33824 -10.32066 -10.27912 -10.27709 -10.26788
 Alpha  occ. eigenvalues --  -10.26298 -10.25727 -10.25161 -10.24020 -10.23941
 Alpha  occ. eigenvalues --  -10.23151 -10.22802 -10.22761 -10.22006 -10.21969
 Alpha  occ. eigenvalues --  -10.21451 -10.21122 -10.21109 -10.20503 -10.20369
 Alpha  occ. eigenvalues --  -10.20189 -10.20147 -10.19862 -10.19256 -10.19123
 Alpha  occ. eigenvalues --  -10.18798 -10.18538 -10.18511 -10.18384 -10.17939
 Alpha  occ. eigenvalues --  -10.17070 -10.16596 -10.16453  -1.11447  -1.09301
 Alpha  occ. eigenvalues --   -1.02329  -1.02064  -1.00295  -1.00277  -0.97558
 Alpha  occ. eigenvalues --   -0.96979  -0.91323  -0.90116  -0.85936  -0.83351
 Alpha  occ. eigenvalues --   -0.81788  -0.80902  -0.80589  -0.80337  -0.79410
 Alpha  occ. eigenvalues --   -0.77736  -0.76955  -0.75606  -0.74711  -0.73273
 Alpha  occ. eigenvalues --   -0.72688  -0.70583  -0.70275  -0.69577  -0.68649
 Alpha  occ. eigenvalues --   -0.66190  -0.64836  -0.63844  -0.61056  -0.60717
 Alpha  occ. eigenvalues --   -0.59336  -0.58860  -0.58192  -0.57591  -0.56803
 Alpha  occ. eigenvalues --   -0.56290  -0.55622  -0.54771  -0.53436  -0.53087
 Alpha  occ. eigenvalues --   -0.52872  -0.52229  -0.51403  -0.51012  -0.50546
 Alpha  occ. eigenvalues --   -0.49894  -0.49554  -0.49324  -0.48248  -0.48126
 Alpha  occ. eigenvalues --   -0.48059  -0.47383  -0.47335  -0.46827  -0.46789
 Alpha  occ. eigenvalues --   -0.46359  -0.45629  -0.45473  -0.45146  -0.44544
 Alpha  occ. eigenvalues --   -0.44193  -0.43929  -0.43291  -0.43014  -0.42794
 Alpha  occ. eigenvalues --   -0.42657  -0.42488  -0.41846  -0.41567  -0.41245
 Alpha  occ. eigenvalues --   -0.41068  -0.40870  -0.40593  -0.40096  -0.40009
 Alpha  occ. eigenvalues --   -0.39867  -0.39543  -0.38694  -0.38468  -0.37452
 Alpha  occ. eigenvalues --   -0.37303  -0.37072  -0.36805  -0.36755  -0.36578
 Alpha  occ. eigenvalues --   -0.36214  -0.35858  -0.35006  -0.34760  -0.34374
 Alpha  occ. eigenvalues --   -0.33406  -0.33081  -0.32725  -0.32647  -0.31962
 Alpha  occ. eigenvalues --   -0.30376  -0.30079  -0.29546  -0.29369  -0.28864
 Alpha  occ. eigenvalues --   -0.28599  -0.27846  -0.25737  -0.24323  -0.23740
 Alpha  occ. eigenvalues --   -0.23444  -0.22841  -0.22025  -0.21704  -0.18437
 Alpha virt. eigenvalues --   -0.13726  -0.08474  -0.03732  -0.02326  -0.00823
 Alpha virt. eigenvalues --    0.00176   0.00551   0.00987   0.01806   0.02534
 Alpha virt. eigenvalues --    0.02635   0.03584   0.03892   0.04296   0.04842

 Mulliken charges:
               1
     1  O   -0.292829
     2  O   -0.275904
     3  O   -0.162090
     4  O   -0.188578
     5  O   -0.275161
     6  O   -0.252318
     7  N   -0.055579
     8  N   -0.225137
     9  N    0.016877
    10  N   -0.427552
    11  C    0.039722
    12  C    0.032448
    13  C   -0.042344
    14  C   -0.168547
    15  C   -0.091990
    16  C    0.023477
    17  C   -0.181820
    18  C    0.078723
    19  C   -0.041050
    20  C   -0.147375
    21  C    0.094593
    22  C    0.178568
    23  C   -0.134238
    24  C    0.225155
    25  C    0.157132
    26  C   -0.097182
    27  C   -0.021691
    28  C    0.045113
    29  C    0.252228
    30  C   -0.004866
    31  C    0.066945
    32  C   -0.037738
    33  C   -0.153604
    34  C    0.170431
    35  C    0.180260
    36  C   -0.095986
    37  C    0.121847
    38  C    0.002921
    39  C   -0.230344
    40  C    0.218417
    41  C    0.028501
    42  C    0.233631
    43  C    0.159404
    44  H    0.122665
    45  H    0.014246
    46  H    0.010147
    47  H    0.143192
    48  H    0.119357
    49  H    0.046315
    50  H   -0.010882
    51  H    0.029487
    52  H   -0.075147
    53  H   -0.005509
    54  H    0.049030
    55  H    0.031632
    56  H    0.035294
    57  H   -0.021011
    58  H    0.004412
    59  H    0.040850
    60  H    0.150660
    61  H   -0.030686
    62  H   -0.007967
    63  H    0.034103
    64  H    0.055692
    65  H    0.013078
    66  H    0.062023
    67  H    0.069072
    68  H    0.080803
    69  H    0.034638
    70  H    0.010428
    71  H    0.027704
    72  H    0.197461
    73  H   -0.043973
    74  H   -0.045758
    75  H    0.003070
    76  H    0.046407
    77  H    0.193098
    78  H   -0.002602
    79  H   -0.103800
 Sum of Mulliken charges =  -0.00000

 Dipole moment (field-independent basis, Debye):
    X=              4.0692    Y=              3.2859    Z=             -0.2170  Tot=              5.2347
 Quadrupole moment (field-independent basis, Debye-Ang):
   XX=           -245.1451   YY=           -235.0146   ZZ=           -268.2021
   XY=              6.4576   XZ=            -21.7249   YZ=             -8.0641

 Normal termination of Gaussian 16 at Thu Jul 25 07:08:37 2019.
