 Gaussian 16, Revision A.03,
 Gaussian 16:  ES64L-G16RevA.03 25-Dec-2016

 --------------------------
 # td=(NStates=1) B3LYP/SVP
 --------------------------

 --
 TD
 --
 Symbolic Z-matrix:
 Charge =  0 Multiplicity = 1

                         Standard orientation:
 ---------------------------------------------------------------------
 Center     Atomic      Atomic             Coordinates (Angstroms)
 Number     Number       Type             X           Y           Z
 ---------------------------------------------------------------------
      1          8           0        5.434681   -0.250690   -3.372939
      2          8           0       -3.085272   -2.992572    3.116517
      3          8           0       -3.359529   -0.706193    3.065432
      4          8           0       -1.680720    7.015741    1.697967
      5          8           0       -1.270732    7.278446   -0.702945
      6          8           0       -1.640674   -3.897485    0.148501
      7          7           0        2.323652    0.939288    0.657624
      8          7           0        4.483286   -0.615537   -1.233339
      9          7           0       -1.810903    0.616305   -0.456993
     10          7           0       -2.498195   -1.880300   -0.528347
     11          6           0        4.905343   -1.123680    0.029907
     12          6           0        4.390530   -0.253479    1.272327
     13          6           0        2.947558    0.104813    1.396978
     14          6           0        1.966819   -0.540983    2.130559
     15          6           0        0.660132    0.055927    1.891059
     16          6           0        0.950501    0.979119    0.785436
     17          6           0        6.388918   -1.232640   -0.109966
     18          6           0       -0.547914   -0.223939    2.598048
     19          6           0        6.706959   -0.734604   -1.390003
     20          6           0        0.174807    1.984723    0.119008
     21          6           0       -1.105855    1.859434   -0.416273
     22          6           0        5.520319   -0.448073   -2.175906
     23          6           0       -2.015584    2.839512   -0.923624
     24          6           0        2.129748   -1.654748    3.150328
     25          6           0        7.244441   -1.628799    0.996216
     26          6           0       -3.180657    2.270707   -1.345801
     27          6           0       -1.171146   -1.701367    2.535561
     28          6           0       -2.991214    0.886986   -1.018424
     29          6           0       -1.622742    4.257647   -0.964903
     30          6           0        8.007605   -0.628339   -2.017985
     31          6           0       -1.757214    4.952623    0.370291
     32          6           0       -4.320907    2.782238   -2.038673
     33          6           0       -3.892817   -0.178481   -1.318869
     34          6           0       -2.726589   -1.688147    2.837450
     35          6           0       -3.674889   -1.542394   -1.130870
     36          6           0        9.268566   -0.802140   -1.441681
     37          6           0       -1.500485    6.485020    0.314953
     38          6           0       -4.591012   -2.748464   -1.378455
     39          6           0       -3.832546   -3.752551   -0.924667
     40          6           0       -2.579632   -3.268732   -0.427582
     41          6           0       -5.789948   -2.536484   -2.080077
     42          6           0       -4.152047   -5.241743   -1.006558
     43          6           0       -6.568704   -3.595524   -2.707819
     44          1           0        4.472128   -2.208059    0.105842
     45          1           0        4.597651    0.716037    1.178272
     46          1           0        4.790850   -0.780513    2.141666
     47          1           0        2.834001    1.355023   -0.078002
     48          1           0        3.757938   -0.721359   -1.709012
     49          1           0       -0.195252    0.115465    3.721621
     50          1           0       -1.235727    0.519014    2.177387
     51          1           0        0.636433    2.962722    0.038175
     52          1           0        3.259991   -1.771362    3.259436
     53          1           0        1.504161   -1.242485    4.011508
     54          1           0        1.815170   -2.555057    2.693447
     55          1           0        6.505571   -2.149199    1.931199
     56          1           0        7.736273   -0.783022    1.556283
     57          1           0        7.920990   -2.536874    0.857106
     58          1           0       -1.042100   -2.118247    1.492037
     59          1           0       -0.511172   -2.434981    3.148365
     60          1           0       -1.439953   -0.278017   -0.357526
     61          1           0       -2.334116    4.759340   -1.656354
     62          1           0       -0.775183    4.681095   -1.354831
     63          1           0        7.807606   -0.246239   -3.075531
     64          1           0       -1.346026    4.397796    1.196943
     65          1           0       -2.888457    5.092805    0.748849
     66          1           0       -4.010473    3.825350   -2.514340
     67          1           0       -5.152134    3.100569   -1.283428
     68          1           0       -4.664206    2.175243   -2.848592
     69          1           0       -4.920774    0.114024   -1.755046
     70          1           0        9.199265   -1.114093   -0.317654
     71          1           0       10.208546   -0.292845   -1.972234
     72          1           0       -4.003361   -2.858616    3.568868
     73          1           0       -6.275097   -1.631005   -2.283871
     74          1           0       -5.145277   -5.468215   -0.368626
     75          1           0       -4.496930   -5.581494   -1.962216
     76          1           0       -3.350005   -5.847812   -0.551208
     77          1           0       -1.435678    8.016134    1.699350
     78          1           0       -7.449026   -3.181894   -3.032479
     79          1           0       -6.484592   -4.626154   -2.758184
 ---------------------------------------------------------------------

 SCF Done:  E(RB3LYP) =  -1947.81403154     A.U. after   19 cycles

 Excitation energies and oscillator strengths:

 Excited State   1:      Singlet-A      1.9831 eV  625.20 nm  f=0.4315  <S**2>=0.000
     155 ->156         0.69549
     155 <-156        -0.11433
 This state for optimization and/or second-order correction.
 Total Energy, E(TD-HF/TD-DFT) =  -1947.74115297
 Copying the excited state density for this state as the 1-particle RhoCI density.

 The electronic state is 1-A.
 Alpha  occ. eigenvalues --  -19.18424 -19.17106 -19.15307 -19.12429 -19.11640
 Alpha  occ. eigenvalues --  -19.08858 -14.38540 -14.36418 -14.34774 -14.28126
 Alpha  occ. eigenvalues --  -10.35224 -10.31089 -10.29094 -10.26791 -10.25117
 Alpha  occ. eigenvalues --  -10.24651 -10.24417 -10.24010 -10.23622 -10.23346
 Alpha  occ. eigenvalues --  -10.23282 -10.22584 -10.22401 -10.22390 -10.21846
 Alpha  occ. eigenvalues --  -10.21759 -10.21709 -10.21600 -10.21228 -10.21199
 Alpha  occ. eigenvalues --  -10.20855 -10.20830 -10.20647 -10.20085 -10.19897
 Alpha  occ. eigenvalues --  -10.19713 -10.19552 -10.19494 -10.19488 -10.19386
 Alpha  occ. eigenvalues --  -10.19136 -10.19071 -10.17798  -1.07571  -1.04004
 Alpha  occ. eigenvalues --   -1.03951  -1.01553  -0.99785  -0.99242  -0.98258
 Alpha  occ. eigenvalues --   -0.97417  -0.96221  -0.90681  -0.84741  -0.83514
 Alpha  occ. eigenvalues --   -0.82642  -0.81105  -0.80760  -0.80395  -0.78902
 Alpha  occ. eigenvalues --   -0.77191  -0.75864  -0.74761  -0.74373  -0.72812
 Alpha  occ. eigenvalues --   -0.72457  -0.71176  -0.69903  -0.69420  -0.69133
 Alpha  occ. eigenvalues --   -0.67638  -0.66990  -0.64642  -0.61759  -0.61045
 Alpha  occ. eigenvalues --   -0.59706  -0.59211  -0.58194  -0.57592  -0.57461
 Alpha  occ. eigenvalues --   -0.57177  -0.55872  -0.55525  -0.54948  -0.53864
 Alpha  occ. eigenvalues --   -0.52279  -0.51441  -0.50924  -0.50453  -0.49858
 Alpha  occ. eigenvalues --   -0.49117  -0.48785  -0.48248  -0.47788  -0.47603
 Alpha  occ. eigenvalues --   -0.47373  -0.47165  -0.46772  -0.46264  -0.45936
 Alpha  occ. eigenvalues --   -0.45544  -0.44929  -0.44646  -0.44240  -0.43832
 Alpha  occ. eigenvalues --   -0.43610  -0.43590  -0.42848  -0.42702  -0.42603
 Alpha  occ. eigenvalues --   -0.42151  -0.41725  -0.41540  -0.41299  -0.41137
 Alpha  occ. eigenvalues --   -0.40985  -0.40725  -0.40309  -0.40219  -0.40198
 Alpha  occ. eigenvalues --   -0.40035  -0.39828  -0.38905  -0.38487  -0.38117
 Alpha  occ. eigenvalues --   -0.37995  -0.37758  -0.37256  -0.37226  -0.36691
 Alpha  occ. eigenvalues --   -0.36575  -0.36201  -0.35225  -0.34309  -0.33974
 Alpha  occ. eigenvalues --   -0.33301  -0.32849  -0.32027  -0.31977  -0.31813
 Alpha  occ. eigenvalues --   -0.31454  -0.30992  -0.29263  -0.28224  -0.27673
 Alpha  occ. eigenvalues --   -0.27421  -0.26991  -0.26940  -0.26854  -0.24030
 Alpha  occ. eigenvalues --   -0.23643  -0.23287  -0.23116  -0.22035  -0.18928
 Alpha virt. eigenvalues --   -0.11042  -0.07924  -0.07206  -0.04194  -0.01477
 Alpha virt. eigenvalues --   -0.00217   0.00881   0.01121   0.01663   0.02767
 Alpha virt. eigenvalues --    0.03860   0.03968   0.04978   0.05091   0.05221

 Mulliken charges:
               1
     1  O   -0.214013
     2  O   -0.227953
     3  O   -0.200442
     4  O   -0.305685
     5  O   -0.285902
     6  O   -0.260230
     7  N    0.041638
     8  N   -0.125179
     9  N   -0.012470
    10  N   -0.302054
    11  C    0.112075
    12  C    0.267182
    13  C   -0.154818
    14  C   -0.216080
    15  C   -0.078718
    16  C    0.034594
    17  C   -0.128209
    18  C    0.056951
    19  C   -0.070727
    20  C   -0.100671
    21  C    0.081836
    22  C    0.123163
    23  C   -0.041690
    24  C    0.132315
    25  C   -0.031848
    26  C   -0.087193
    27  C   -0.057230
    28  C    0.086827
    29  C    0.146689
    30  C   -0.028499
    31  C   -0.064042
    32  C    0.065596
    33  C   -0.137920
    34  C    0.180156
    35  C    0.037011
    36  C   -0.072328
    37  C    0.239522
    38  C    0.189283
    39  C   -0.177299
    40  C    0.157302
    41  C   -0.093258
    42  C    0.071609
    43  C    0.013366
    44  H    0.044079
    45  H   -0.048520
    46  H   -0.002775
    47  H    0.088900
    48  H    0.045940
    49  H    0.034872
    50  H    0.009183
    51  H   -0.008838
    52  H   -0.012599
    53  H    0.040958
    54  H    0.030993
    55  H    0.026466
    56  H    0.070580
    57  H    0.072071
    58  H    0.082752
    59  H    0.044796
    60  H    0.119976
    61  H   -0.008506
    62  H   -0.003097
    63  H    0.026471
    64  H    0.049726
    65  H    0.067452
    66  H    0.027728
    67  H    0.050962
    68  H    0.036438
    69  H   -0.017190
    70  H    0.030300
    71  H    0.067837
    72  H    0.190106
    73  H   -0.016902
    74  H    0.021228
    75  H    0.019370
    76  H    0.037189
    77  H    0.214679
    78  H    0.001020
    79  H    0.003698
 Sum of Mulliken charges =  -0.00000

 Dipole moment (field-independent basis, Debye):
    X=              0.6110    Y=              2.2797    Z=              2.7773  Tot=              3.6447
 Quadrupole moment (field-independent basis, Debye-Ang):
   XX=           -216.1180   YY=           -257.9455   ZZ=           -264.7358
   XY=             -1.1736   XZ=             33.5811   YZ=              5.0928

 Normal termination of Gaussian 16 at Tue Sep 24 05:10:43 2019.
