 Gaussian 16, Revision A.03,
 Gaussian 16:  ES64L-G16RevA.03 25-Dec-2016

 --------------------------
 # td=(NStates=1) B3LYP/SVP
 --------------------------

 --
 TD
 --
 Symbolic Z-matrix:
 Charge =  0 Multiplicity = 1

                         Standard orientation:
 ---------------------------------------------------------------------
 Center     Atomic      Atomic             Coordinates (Angstroms)
 Number     Number       Type             X           Y           Z
 ---------------------------------------------------------------------
      1          8           0       -3.345748   -0.949064   -2.905014
      2          8           0        3.133811    2.811477    3.221659
      3          8           0        3.533909    0.983674    4.609197
      4          8           0        7.528265   -1.426363   -0.719507
      5          8           0        6.701558   -2.861088   -2.227452
      6          8           0       -2.481770    1.679094    1.683645
      7          7           0       -0.266539   -2.585513    0.780358
      8          7           0       -2.700789   -1.022009   -0.730378
      9          7           0        1.083924    0.107755   -0.699896
     10          7           0       -0.995164    1.530741   -0.070382
     11          6           0       -3.401416   -1.342397    0.557952
     12          6           0       -2.641439   -2.442057    1.469246
     13          6           0       -1.229750   -2.168656    1.711676
     14          6           0       -0.476644   -1.429495    2.693964
     15          6           0        0.908234   -1.382625    2.363867
     16          6           0        0.972736   -2.143427    1.060562
     17          6           0       -4.746259   -1.964985    0.127331
     18          6           0        1.989612   -0.733097    2.943242
     19          6           0       -4.811277   -1.962037   -1.193328
     20          6           0        1.969241   -2.014694   -0.027974
     21          6           0        1.969491   -0.958536   -0.789415
     22          6           0       -3.573594   -1.246055   -1.739187
     23          6           0        2.926560   -0.607700   -1.963551
     24          6           0       -1.108909   -0.798600    3.827393
     25          6           0       -5.784845   -2.326668    1.176149
     26          6           0        2.599149    0.624639   -2.431808
     27          6           0        2.023432    0.755874    2.828322
     28          6           0        1.355213    1.112131   -1.712167
     29          6           0        4.145578   -1.385552   -2.324986
     30          6           0       -5.928919   -2.238695   -2.131652
     31          6           0        5.320861   -1.014077   -1.393768
     32          6           0        3.126992    1.335674   -3.626829
     33          6           0        0.517325    2.178740   -1.835640
     34          6           0        2.988689    1.529417    3.668563
     35          6           0       -0.586415    2.390854   -0.966466
     36          6           0       -7.019292   -3.135317   -1.904801
     37          6           0        6.587673   -1.905725   -1.523436
     38          6           0       -1.377059    3.606140   -0.939346
     39          6           0       -2.273950    3.368974    0.065574
     40          6           0       -1.977794    2.093239    0.633348
     41          6           0       -1.238302    4.759955   -1.913730
     42          6           0       -3.289754    4.298724    0.693255
     43          6           0       -1.824711    6.027766   -1.889046
     44          1           0       -3.373383   -0.406700    1.127294
     45          1           0       -2.875429   -3.422171    1.119722
     46          1           0       -3.087200   -2.427684    2.285020
     47          1           0       -0.423403   -2.816126   -0.212412
     48          1           0       -2.090017   -0.222213   -0.628565
     49          1           0        2.111997   -0.846880    4.071257
     50          1           0        2.996303   -0.993936    2.635456
     51          1           0        2.716042   -2.810386   -0.179506
     52          1           0       -1.515434   -1.656064    4.854331
     53          1           0       -0.406833   -0.061616    4.424782
     54          1           0       -1.967051   -0.218243    3.340027
     55          1           0       -5.671844   -1.430138    2.105776
     56          1           0       -5.575393   -3.411607    1.635393
     57          1           0       -6.844546   -2.354506    0.814686
     58          1           0        2.250483    1.222615    1.865903
     59          1           0        1.116451    1.212047    3.244516
     60          1           0        0.259673    0.420099   -0.046608
     61          1           0        4.310828   -1.401146   -3.176657
     62          1           0        3.950855   -2.509998   -2.330482
     63          1           0       -6.129129   -1.755608   -3.087984
     64          1           0        5.186265   -0.861220   -0.336388
     65          1           0        5.565047    0.035566   -1.649473
     66          1           0        4.255619    1.176426   -3.742876
     67          1           0        2.954071    2.661300   -3.185124
     68          1           0        2.488530    1.201191   -4.603627
     69          1           0        0.749527    2.683734   -2.770341
     70          1           0       -7.041711   -3.517893   -0.762381
     71          1           0       -7.768626   -3.509753   -2.706265
     72          1           0        3.961137    3.235052    3.875536
     73          1           0       -0.505472    4.528404   -2.809445
     74          1           0       -4.015807    4.496464   -0.177891
     75          1           0       -3.855557    4.029059    1.551041
     76          1           0       -2.851886    5.136208    0.769292
     77          1           0        8.343129   -2.028950   -0.848044
     78          1           0       -1.473984    6.838408   -2.559681
     79          1           0       -2.816223    6.377220   -1.244313
 ---------------------------------------------------------------------

 SCF Done:  E(RB3LYP) =  -1947.72936206     A.U. after   17 cycles

 Excitation energies and oscillator strengths:

 Excited State   1:      Singlet-A      0.8916 eV 1390.52 nm  f=0.0027  <S**2>=0.000
     155 ->156         0.70472
 This state for optimization and/or second-order correction.
 Total Energy, E(TD-HF/TD-DFT) =  -1947.69659502
 Copying the excited state density for this state as the 1-particle RhoCI density.

 The electronic state is 1-A.
 Alpha  occ. eigenvalues --  -19.20175 -19.19489 -19.14053 -19.12571 -19.12070
 Alpha  occ. eigenvalues --  -19.07781 -14.36792 -14.36402 -14.32968 -14.31336
 Alpha  occ. eigenvalues --  -10.33270 -10.31105 -10.27895 -10.26777 -10.26673
 Alpha  occ. eigenvalues --  -10.26043 -10.24994 -10.24878 -10.23665 -10.23165
 Alpha  occ. eigenvalues --  -10.22935 -10.22883 -10.22687 -10.22607 -10.22255
 Alpha  occ. eigenvalues --  -10.21853 -10.21027 -10.20987 -10.20906 -10.20902
 Alpha  occ. eigenvalues --  -10.20884 -10.20649 -10.20368 -10.20201 -10.20198
 Alpha  occ. eigenvalues --  -10.19865 -10.19535 -10.18582 -10.18582 -10.17876
 Alpha  occ. eigenvalues --  -10.17668 -10.17366 -10.17322  -1.11691  -1.07477
 Alpha  occ. eigenvalues --   -1.03857  -1.02660  -1.00328  -0.99602  -0.97407
 Alpha  occ. eigenvalues --   -0.96322  -0.95417  -0.91497  -0.84106  -0.82639
 Alpha  occ. eigenvalues --   -0.81590  -0.81134  -0.80750  -0.79043  -0.78823
 Alpha  occ. eigenvalues --   -0.76961  -0.75910  -0.75489  -0.73360  -0.72502
 Alpha  occ. eigenvalues --   -0.71793  -0.70370  -0.69215  -0.69193  -0.68226
 Alpha  occ. eigenvalues --   -0.66226  -0.65559  -0.63384  -0.61505  -0.61255
 Alpha  occ. eigenvalues --   -0.60138  -0.59115  -0.58431  -0.57227  -0.56391
 Alpha  occ. eigenvalues --   -0.55707  -0.54919  -0.54544  -0.54180  -0.52141
 Alpha  occ. eigenvalues --   -0.51895  -0.51617  -0.50887  -0.49992  -0.49790
 Alpha  occ. eigenvalues --   -0.49175  -0.48752  -0.48473  -0.48057  -0.47631
 Alpha  occ. eigenvalues --   -0.47524  -0.47072  -0.47012  -0.46479  -0.45835
 Alpha  occ. eigenvalues --   -0.45545  -0.45296  -0.44950  -0.44297  -0.43718
 Alpha  occ. eigenvalues --   -0.43472  -0.43364  -0.42904  -0.42817  -0.42571
 Alpha  occ. eigenvalues --   -0.42256  -0.41640  -0.41493  -0.41150  -0.40876
 Alpha  occ. eigenvalues --   -0.40594  -0.40430  -0.39919  -0.39752  -0.39749
 Alpha  occ. eigenvalues --   -0.39327  -0.39029  -0.38768  -0.38188  -0.37834
 Alpha  occ. eigenvalues --   -0.37439  -0.37047  -0.36614  -0.36338  -0.36280
 Alpha  occ. eigenvalues --   -0.35995  -0.35628  -0.35194  -0.34969  -0.34782
 Alpha  occ. eigenvalues --   -0.34173  -0.33871  -0.33292  -0.32205  -0.31646
 Alpha  occ. eigenvalues --   -0.30827  -0.30050  -0.29839  -0.29603  -0.29377
 Alpha  occ. eigenvalues --   -0.27168  -0.26832  -0.26615  -0.24702  -0.24113
 Alpha  occ. eigenvalues --   -0.23502  -0.22852  -0.22709  -0.22112  -0.18382
 Alpha virt. eigenvalues --   -0.12839  -0.07073  -0.04515  -0.03007  -0.00245
 Alpha virt. eigenvalues --   -0.00055   0.00729   0.00944   0.01583   0.01808
 Alpha virt. eigenvalues --    0.02688   0.03035   0.03581   0.03979   0.04640

 Mulliken charges:
               1
     1  O   -0.238386
     2  O   -0.269870
     3  O   -0.236274
     4  O   -0.187607
     5  O   -0.202511
     6  O   -0.209459
     7  N   -0.046302
     8  N   -0.178404
     9  N   -0.196968
    10  N   -0.249594
    11  C    0.014737
    12  C    0.346847
    13  C   -0.095983
    14  C   -0.078905
    15  C   -0.011054
    16  C   -0.037459
    17  C   -0.116972
    18  C    0.101344
    19  C   -0.002146
    20  C   -0.184682
    21  C    0.229344
    22  C    0.121403
    23  C   -0.095740
    24  C   -0.066821
    25  C   -0.023717
    26  C   -0.069397
    27  C   -0.009170
    28  C    0.088730
    29  C    0.306142
    30  C   -0.043397
    31  C   -0.011694
    32  C   -0.060143
    33  C   -0.106824
    34  C    0.119460
    35  C    0.138688
    36  C   -0.116700
    37  C    0.130745
    38  C    0.030840
    39  C   -0.217393
    40  C    0.123863
    41  C   -0.020029
    42  C    0.212647
    43  C   -0.092872
    44  H    0.042412
    45  H   -0.030905
    46  H   -0.099633
    47  H    0.127395
    48  H    0.135222
    49  H    0.014187
    50  H   -0.022335
    51  H    0.006811
    52  H    0.019865
    53  H    0.025257
    54  H    0.060473
    55  H    0.058949
    56  H    0.058185
    57  H    0.049992
    58  H    0.013827
    59  H    0.031698
    60  H    0.218729
    61  H   -0.139449
    62  H    0.010827
    63  H    0.018551
    64  H    0.031719
    65  H    0.025404
    66  H    0.055408
    67  H    0.037382
    68  H    0.088518
    69  H   -0.012654
    70  H    0.027373
    71  H    0.057464
    72  H    0.241933
    73  H    0.035038
    74  H    0.023879
    75  H    0.025166
    76  H   -0.034899
    77  H    0.204770
    78  H    0.041800
    79  H    0.063323
 Sum of Mulliken charges =  -0.00000

 Dipole moment (field-independent basis, Debye):
    X=              3.5942    Y=              3.7973    Z=             -1.8775  Tot=              5.5555
 Quadrupole moment (field-independent basis, Debye-Ang):
   XX=           -224.1125   YY=           -235.2962   ZZ=           -273.0078
   XY=              6.5338   XZ=            -17.3797   YZ=             -7.4736

 Normal termination of Gaussian 16 at Sat Jul 27 17:33:12 2019.
