 Gaussian 16, Revision A.03,
 Gaussian 16:  ES64L-G16RevA.03 25-Dec-2016

 --------------------------
 # td=(NStates=1) B3LYP/SVP
 --------------------------

 --
 TD
 --
 Symbolic Z-matrix:
 Charge =  0 Multiplicity = 1

                         Standard orientation:
 ---------------------------------------------------------------------
 Center     Atomic      Atomic             Coordinates (Angstroms)
 Number     Number       Type             X           Y           Z
 ---------------------------------------------------------------------
      1          8           0        5.361710   -0.096913   -3.216118
      2          8           0       -3.078469   -2.787436    3.229670
      3          8           0       -3.354181   -0.613798    2.988294
      4          8           0       -2.185938    7.093464    1.291123
      5          8           0       -1.274468    7.123192   -0.682003
      6          8           0       -1.463946   -4.019299    0.343660
      7          7           0        2.311607    1.074642    0.503478
      8          7           0        4.334379   -0.584095   -1.180841
      9          7           0       -1.805545    0.697244   -0.398110
     10          7           0       -2.385979   -1.982830   -0.401890
     11          6           0        4.817806   -1.058567    0.065496
     12          6           0        4.476465   -0.066201    1.194717
     13          6           0        2.974012    0.132715    1.287585
     14          6           0        1.931267   -0.424597    2.132253
     15          6           0        0.658267    0.183766    1.784051
     16          6           0        0.875657    1.023677    0.683901
     17          6           0        6.314168   -1.125290   -0.093615
     18          6           0       -0.637570   -0.092053    2.539749
     19          6           0        6.611081   -0.627469   -1.288545
     20          6           0        0.078981    2.060292    0.088311
     21          6           0       -1.206547    1.835118   -0.371711
     22          6           0        5.399568   -0.327571   -2.069858
     23          6           0       -2.114052    2.784556   -0.963770
     24          6           0        2.267136   -1.418201    3.217361
     25          6           0        7.141146   -1.662669    0.957648
     26          6           0       -3.287986    2.172591   -1.344138
     27          6           0       -1.121378   -1.524854    2.500589
     28          6           0       -3.065944    0.750645   -0.946381
     29          6           0       -1.829113    4.261363   -1.066769
     30          6           0        8.035127   -0.654663   -1.994690
     31          6           0       -2.019885    5.007820    0.264171
     32          6           0       -4.555132    2.725623   -1.775321
     33          6           0       -3.907195   -0.319525   -1.366817
     34          6           0       -2.583556   -1.588615    2.932048
     35          6           0       -3.529190   -1.695317   -0.979150
     36          6           0        9.245794   -0.432995   -1.301306
     37          6           0       -1.804445    6.494389    0.181629
     38          6           0       -4.289025   -2.967550   -1.346906
     39          6           0       -3.550995   -3.950604   -0.929926
     40          6           0       -2.367565   -3.437824   -0.285523
     41          6           0       -5.461556   -2.980671   -2.275895
     42          6           0       -3.673769   -5.446269   -0.929113
     43          6           0       -6.247967   -4.101171   -2.781622
     44          1           0        4.277598   -1.965555    0.280980
     45          1           0        4.703101    0.940552    0.699765
     46          1           0        5.186280   -0.353009    2.152557
     47          1           0        2.802090    1.533797   -0.245443
     48          1           0        3.390472   -0.719412   -1.555199
     49          1           0       -0.462581    0.173511    3.526197
     50          1           0       -1.558164    0.336418    2.102874
     51          1           0        0.594260    3.109063   -0.106157
     52          1           0        3.303908   -1.306669    3.609498
     53          1           0        1.443204   -1.178639    3.982017
     54          1           0        2.127509   -2.405425    2.840200
     55          1           0        6.648489   -2.379981    1.606031
     56          1           0        7.751111   -0.767145    1.451514
     57          1           0        7.939081   -2.268300    0.441543
     58          1           0       -0.961455   -2.116967    1.523280
     59          1           0       -0.628107   -1.980658    3.183209
     60          1           0       -1.442730   -0.240293   -0.225321
     61          1           0       -2.575070    4.802291   -1.681287
     62          1           0       -0.723839    4.609907   -1.680949
     63          1           0        7.902329   -0.655879   -3.139089
     64          1           0       -1.254682    4.787137    1.076267
     65          1           0       -3.018113    4.937498    0.555631
     66          1           0       -4.404631    3.697838   -2.032187
     67          1           0       -5.561094    2.514739   -1.237851
     68          1           0       -4.778194    2.194208   -2.712947
     69          1           0       -4.901181   -0.246578   -1.894824
     70          1           0        9.187921   -0.349490   -0.179372
     71          1           0       10.317979   -0.340604   -1.758150
     72          1           0       -3.973488   -2.621913    3.407917
     73          1           0       -5.957018   -2.016040   -2.232395
     74          1           0       -4.834528   -5.946449   -0.701039
     75          1           0       -3.420986   -6.062963   -1.796061
     76          1           0       -2.923228   -5.839284   -0.024558
     77          1           0       -1.758442    7.836877    1.145302
     78          1           0       -7.222901   -3.922483   -3.236497
     79          1           0       -5.875415   -4.997782   -2.751660
 ---------------------------------------------------------------------

 SCF Done:  E(RB3LYP) =  -1947.84966873     A.U. after   16 cycles

 Excitation energies and oscillator strengths:

 Excited State   1:      Singlet-A      1.9230 eV  644.75 nm  f=0.4136  <S**2>=0.000
     155 ->156         0.70406
     155 <-156        -0.11222
 This state for optimization and/or second-order correction.
 Total Energy, E(TD-HF/TD-DFT) =  -1947.77900001
 Copying the excited state density for this state as the 1-particle RhoCI density.

 The electronic state is 1-A.
 Alpha  occ. eigenvalues --  -19.18150 -19.17096 -19.13007 -19.11614 -19.10822
 Alpha  occ. eigenvalues --  -19.10653 -14.37820 -14.36925 -14.34925 -14.29657
 Alpha  occ. eigenvalues --  -10.31953 -10.30695 -10.28432 -10.27235 -10.25187
 Alpha  occ. eigenvalues --  -10.24205 -10.23808 -10.23550 -10.23395 -10.23329
 Alpha  occ. eigenvalues --  -10.23036 -10.22483 -10.22460 -10.22185 -10.22100
 Alpha  occ. eigenvalues --  -10.21735 -10.21716 -10.21472 -10.21195 -10.21088
 Alpha  occ. eigenvalues --  -10.20944 -10.20893 -10.20751 -10.20717 -10.20544
 Alpha  occ. eigenvalues --  -10.20197 -10.19991 -10.19761 -10.19548 -10.19479
 Alpha  occ. eigenvalues --  -10.19185 -10.17964 -10.17389  -1.14459  -1.09787
 Alpha  occ. eigenvalues --   -1.05212  -1.02419  -1.01168  -1.00790  -0.97816
 Alpha  occ. eigenvalues --   -0.96439  -0.95072  -0.92537  -0.83151  -0.82508
 Alpha  occ. eigenvalues --   -0.81882  -0.80947  -0.80319  -0.79370  -0.78256
 Alpha  occ. eigenvalues --   -0.76875  -0.76139  -0.74971  -0.73904  -0.72989
 Alpha  occ. eigenvalues --   -0.71920  -0.71393  -0.69368  -0.68948  -0.68158
 Alpha  occ. eigenvalues --   -0.67004  -0.65737  -0.63444  -0.61340  -0.60753
 Alpha  occ. eigenvalues --   -0.60025  -0.59612  -0.58703  -0.58031  -0.57355
 Alpha  occ. eigenvalues --   -0.56034  -0.55886  -0.54935  -0.54320  -0.53070
 Alpha  occ. eigenvalues --   -0.52162  -0.51613  -0.51433  -0.51019  -0.50317
 Alpha  occ. eigenvalues --   -0.50149  -0.49408  -0.48505  -0.47594  -0.47341
 Alpha  occ. eigenvalues --   -0.47251  -0.47024  -0.46796  -0.46479  -0.45850
 Alpha  occ. eigenvalues --   -0.45322  -0.44665  -0.44601  -0.44227  -0.44031
 Alpha  occ. eigenvalues --   -0.43539  -0.43520  -0.43182  -0.42918  -0.42836
 Alpha  occ. eigenvalues --   -0.42545  -0.42417  -0.41962  -0.41918  -0.41405
 Alpha  occ. eigenvalues --   -0.40779  -0.40667  -0.40334  -0.40245  -0.40023
 Alpha  occ. eigenvalues --   -0.39749  -0.39336  -0.39222  -0.38870  -0.38552
 Alpha  occ. eigenvalues --   -0.38329  -0.37918  -0.37716  -0.37216  -0.37030
 Alpha  occ. eigenvalues --   -0.35952  -0.35807  -0.34736  -0.34542  -0.34331
 Alpha  occ. eigenvalues --   -0.34121  -0.33758  -0.33399  -0.32428  -0.30795
 Alpha  occ. eigenvalues --   -0.30500  -0.30374  -0.28865  -0.28427  -0.28113
 Alpha  occ. eigenvalues --   -0.26769  -0.26597  -0.26249  -0.25892  -0.25195
 Alpha  occ. eigenvalues --   -0.24886  -0.24498  -0.23697  -0.22699  -0.18613
 Alpha virt. eigenvalues --   -0.11068  -0.07098  -0.05137  -0.02241  -0.00400
 Alpha virt. eigenvalues --    0.00174   0.00884   0.01307   0.03059   0.03178
 Alpha virt. eigenvalues --    0.03924   0.04565   0.04840   0.05075   0.05325

 Mulliken charges:
               1
     1  O   -0.161226
     2  O   -0.124270
     3  O   -0.285710
     4  O   -0.081473
     5  O   -0.219720
     6  O   -0.222710
     7  N   -0.132271
     8  N   -0.243169
     9  N    0.013781
    10  N   -0.299651
    11  C    0.092577
    12  C    0.126043
    13  C   -0.048728
    14  C   -0.193123
    15  C   -0.060909
    16  C    0.043587
    17  C   -0.150994
    18  C    0.089229
    19  C   -0.091489
    20  C   -0.118868
    21  C    0.059305
    22  C    0.135070
    23  C   -0.042494
    24  C    0.106100
    25  C    0.057581
    26  C   -0.128765
    27  C    0.078930
    28  C    0.109529
    29  C   -0.027878
    30  C   -0.009260
    31  C    0.054875
    32  C    0.154157
    33  C   -0.096634
    34  C    0.110871
    35  C    0.027552
    36  C   -0.081331
    37  C    0.059018
    38  C    0.026031
    39  C   -0.113372
    40  C    0.169894
    41  C   -0.037150
    42  C   -0.050408
    43  C    0.042009
    44  H    0.006644
    45  H   -0.008621
    46  H    0.053983
    47  H    0.108447
    48  H    0.134736
    49  H   -0.009830
    50  H    0.031032
    51  H    0.033314
    52  H    0.014558
    53  H    0.024864
    54  H    0.027049
    55  H    0.023361
    56  H    0.071195
    57  H    0.041363
    58  H    0.102273
    59  H   -0.063789
    60  H    0.145362
    61  H    0.008556
    62  H    0.058425
    63  H    0.048265
    64  H    0.057520
    65  H    0.018552
    66  H   -0.029076
    67  H    0.051962
    68  H    0.012851
    69  H   -0.000285
    70  H    0.026493
    71  H    0.061058
    72  H    0.150295
    73  H    0.001684
    74  H    0.032738
    75  H    0.039182
    76  H    0.066518
    77  H    0.103831
    78  H    0.040082
    79  H   -0.019129
 Sum of Mulliken charges =  -0.00000

 Dipole moment (field-independent basis, Debye):
    X=              0.2699    Y=              0.6338    Z=              1.8948  Tot=              2.0162
 Quadrupole moment (field-independent basis, Debye-Ang):
   XX=           -214.4108   YY=           -254.7644   ZZ=           -263.9631
   XY=             -3.2038   XZ=             33.3397   YZ=              7.2160

 Normal termination of Gaussian 16 at Tue Sep 17 02:01:16 2019.
