 Gaussian 16, Revision A.03,
 Gaussian 16:  ES64L-G16RevA.03 25-Dec-2016

 --------------------------
 # td=(NStates=1) B3LYP/SVP
 --------------------------

 --
 TD
 --
 Symbolic Z-matrix:
 Charge =  0 Multiplicity = 1

                         Standard orientation:
 ---------------------------------------------------------------------
 Center     Atomic      Atomic             Coordinates (Angstroms)
 Number     Number       Type             X           Y           Z
 ---------------------------------------------------------------------
      1          8           0        5.329249    0.152734   -3.205631
      2          8           0       -3.071424   -2.834904    3.219194
      3          8           0       -3.278053   -0.599060    3.126034
      4          8           0       -1.795490    7.120864    1.523451
      5          8           0       -0.771570    6.995371   -0.436459
      6          8           0       -1.637251   -3.979378    0.073681
      7          7           0        2.315308    0.931295    0.620962
      8          7           0        4.382659   -0.544798   -1.203533
      9          7           0       -1.773543    0.702374   -0.503858
     10          7           0       -2.480725   -1.869922   -0.489919
     11          6           0        4.832209   -1.173150    0.001913
     12          6           0        4.360983   -0.307289    1.250660
     13          6           0        2.938684   -0.143211    1.344663
     14          6           0        1.943321   -0.673195    2.173639
     15          6           0        0.627805   -0.001002    1.771799
     16          6           0        0.979991    0.965448    0.858922
     17          6           0        6.235266   -1.333057   -0.055439
     18          6           0       -0.681209   -0.115160    2.403180
     19          6           0        6.679140   -1.004764   -1.385722
     20          6           0        0.255493    1.943922    0.202823
     21          6           0       -1.094529    1.947475   -0.384577
     22          6           0        5.397566   -0.443718   -2.148186
     23          6           0       -1.918358    2.956501   -0.992027
     24          6           0        2.111394   -1.635707    3.279116
     25          6           0        7.062155   -1.867626    1.081617
     26          6           0       -3.092303    2.265428   -1.385581
     27          6           0       -1.223599   -1.585402    2.362954
     28          6           0       -2.990679    0.908774   -1.152180
     29          6           0       -1.475198    4.414997   -1.019178
     30          6           0        7.934419   -0.736723   -2.026835
     31          6           0       -1.887731    5.118931    0.304594
     32          6           0       -4.203878    2.885333   -1.950508
     33          6           0       -3.881788   -0.118692   -1.397059
     34          6           0       -2.690901   -1.605233    2.894009
     35          6           0       -3.607022   -1.469455   -1.133713
     36          6           0        9.104558   -0.798213   -1.425299
     37          6           0       -1.416458    6.462212    0.433996
     38          6           0       -4.479176   -2.720457   -1.453011
     39          6           0       -3.810866   -3.786443   -0.981709
     40          6           0       -2.556431   -3.349015   -0.416959
     41          6           0       -5.786079   -2.653362   -2.182165
     42          6           0       -4.177324   -5.265342   -1.077869
     43          6           0       -6.561518   -3.747185   -2.359350
     44          1           0        4.502983   -2.220796   -0.127186
     45          1           0        4.969559    0.675071    0.938888
     46          1           0        4.806675   -0.899383    1.976659
     47          1           0        2.769081    1.757151    0.053483
     48          1           0        3.528607   -0.346205   -1.394396
     49          1           0       -0.535302    0.005398    3.569585
     50          1           0       -1.258452    0.748041    2.017080
     51          1           0        0.574774    2.716920   -0.292851
     52          1           0        3.138870   -1.621563    3.419809
     53          1           0        1.516328   -1.325320    4.357425
     54          1           0        1.958803   -2.778221    3.090274
     55          1           0        6.280360   -2.531449    1.618775
     56          1           0        7.556553   -1.064591    1.669737
     57          1           0        7.900489   -2.517132    0.455351
     58          1           0       -1.173873   -2.201683    1.435876
     59          1           0       -0.670740   -2.168844    3.256916
     60          1           0       -1.482563   -0.203015   -0.288682
     61          1           0       -1.985550    4.916153   -1.947871
     62          1           0       -0.375277    4.284830   -1.189417
     63          1           0        8.072446   -0.492553   -3.055890
     64          1           0       -1.640496    4.460829    1.187285
     65          1           0       -3.119921    5.107106    0.217759
     66          1           0       -4.016269    4.042383   -2.281820
     67          1           0       -5.187522    2.898798   -1.175232
     68          1           0       -4.850159    2.465291   -2.890046
     69          1           0       -4.797128    0.027191   -1.860867
     70          1           0        9.361947   -1.170989   -0.368923
     71          1           0        9.971279   -0.557197   -2.079291
     72          1           0       -4.142825   -2.615392    3.502539
     73          1           0       -6.072197   -1.586669   -2.515093
     74          1           0       -5.072810   -5.353455   -0.472837
     75          1           0       -4.126160   -5.350758   -2.182406
     76          1           0       -3.452242   -5.967343   -0.822191
     77          1           0       -1.510970    7.894526    1.394419
     78          1           0       -7.719610   -3.657679   -2.982004
     79          1           0       -6.595859   -4.760839   -2.221686
 ---------------------------------------------------------------------

 SCF Done:  E(RB3LYP) =  -1947.75447520     A.U. after   17 cycles

 Excitation energies and oscillator strengths:

 Excited State   1:      Singlet-A      1.8998 eV  652.60 nm  f=0.4390  <S**2>=0.000
     155 ->156         0.70438
     155 <-156        -0.14906
 This state for optimization and/or second-order correction.
 Total Energy, E(TD-HF/TD-DFT) =  -1947.68465736
 Copying the excited state density for this state as the 1-particle RhoCI density.

 The electronic state is 1-A.
 Alpha  occ. eigenvalues --  -19.18412 -19.18037 -19.12962 -19.10954 -19.10737
 Alpha  occ. eigenvalues --  -19.09752 -14.38565 -14.35285 -14.34009 -14.28598
 Alpha  occ. eigenvalues --  -10.32441 -10.29727 -10.28340 -10.26329 -10.24806
 Alpha  occ. eigenvalues --  -10.24385 -10.24325 -10.23625 -10.23339 -10.22987
 Alpha  occ. eigenvalues --  -10.22945 -10.22896 -10.22887 -10.22724 -10.22558
 Alpha  occ. eigenvalues --  -10.22391 -10.22358 -10.21690 -10.21517 -10.21354
 Alpha  occ. eigenvalues --  -10.21072 -10.20928 -10.20854 -10.20631 -10.20405
 Alpha  occ. eigenvalues --  -10.19631 -10.19539 -10.19517 -10.19368 -10.19364
 Alpha  occ. eigenvalues --  -10.19017 -10.18595 -10.18504  -1.14090  -1.08268
 Alpha  occ. eigenvalues --   -1.02580  -1.02093  -1.01411  -0.99424  -0.97998
 Alpha  occ. eigenvalues --   -0.97043  -0.95016  -0.89998  -0.83181  -0.83036
 Alpha  occ. eigenvalues --   -0.82410  -0.80934  -0.80469  -0.80145  -0.78878
 Alpha  occ. eigenvalues --   -0.78037  -0.76205  -0.75237  -0.74739  -0.72906
 Alpha  occ. eigenvalues --   -0.71431  -0.71277  -0.69751  -0.69200  -0.68935
 Alpha  occ. eigenvalues --   -0.66851  -0.65820  -0.64308  -0.62342  -0.61187
 Alpha  occ. eigenvalues --   -0.61012  -0.58454  -0.57539  -0.57034  -0.56725
 Alpha  occ. eigenvalues --   -0.55948  -0.55303  -0.54710  -0.54317  -0.53715
 Alpha  occ. eigenvalues --   -0.52522  -0.51869  -0.51457  -0.51435  -0.50446
 Alpha  occ. eigenvalues --   -0.49543  -0.48882  -0.48619  -0.48078  -0.47754
 Alpha  occ. eigenvalues --   -0.47411  -0.46963  -0.46535  -0.46407  -0.45629
 Alpha  occ. eigenvalues --   -0.45425  -0.45149  -0.44944  -0.44512  -0.44260
 Alpha  occ. eigenvalues --   -0.43918  -0.43454  -0.42996  -0.42616  -0.42138
 Alpha  occ. eigenvalues --   -0.41826  -0.41790  -0.41399  -0.41163  -0.40665
 Alpha  occ. eigenvalues --   -0.40588  -0.40387  -0.40283  -0.40159  -0.39678
 Alpha  occ. eigenvalues --   -0.39156  -0.38947  -0.38590  -0.38496  -0.38217
 Alpha  occ. eigenvalues --   -0.37989  -0.37835  -0.37581  -0.36928  -0.36577
 Alpha  occ. eigenvalues --   -0.36207  -0.36078  -0.35229  -0.35147  -0.34537
 Alpha  occ. eigenvalues --   -0.34116  -0.33521  -0.32312  -0.32292  -0.32047
 Alpha  occ. eigenvalues --   -0.31300  -0.31074  -0.28980  -0.28551  -0.27119
 Alpha  occ. eigenvalues --   -0.26338  -0.26185  -0.25168  -0.25040  -0.24684
 Alpha  occ. eigenvalues --   -0.23820  -0.23629  -0.23126  -0.22694  -0.18551
 Alpha virt. eigenvalues --   -0.11402  -0.07163  -0.06122  -0.01464  -0.00835
 Alpha virt. eigenvalues --   -0.00153   0.01600   0.01764   0.02389   0.02769
 Alpha virt. eigenvalues --    0.02996   0.03318   0.03722   0.04172   0.04488

 Mulliken charges:
               1
     1  O   -0.223592
     2  O   -0.230052
     3  O   -0.221030
     4  O   -0.060056
     5  O   -0.228213
     6  O   -0.193880
     7  N   -0.160324
     8  N   -0.136509
     9  N   -0.079273
    10  N   -0.346245
    11  C    0.105767
    12  C    0.158054
    13  C    0.032671
    14  C   -0.105476
    15  C   -0.080869
    16  C    0.163712
    17  C   -0.214251
    18  C    0.066938
    19  C   -0.055202
    20  C    0.022852
    21  C   -0.033089
    22  C    0.146611
    23  C   -0.085722
    24  C    0.043023
    25  C    0.020700
    26  C   -0.023648
    27  C   -0.076793
    28  C    0.173501
    29  C    0.087289
    30  C    0.013743
    31  C   -0.048539
    32  C   -0.110596
    33  C   -0.063859
    34  C    0.130293
    35  C    0.064255
    36  C   -0.077491
    37  C    0.122312
    38  C    0.023013
    39  C   -0.228256
    40  C    0.169583
    41  C    0.037921
    42  C    0.147691
    43  C   -0.072311
    44  H    0.030396
    45  H    0.037047
    46  H   -0.040542
    47  H    0.162650
    48  H    0.052229
    49  H    0.015945
    50  H    0.029855
    51  H   -0.113940
    52  H   -0.030815
    53  H    0.052924
    54  H    0.051645
    55  H    0.048913
    56  H    0.063504
    57  H    0.076283
    58  H    0.093319
    59  H    0.039779
    60  H    0.109079
    61  H    0.040140
    62  H    0.035061
    63  H    0.001957
    64  H    0.059954
    65  H    0.075770
    66  H    0.036453
    67  H    0.042900
    68  H    0.047556
    69  H   -0.083746
    70  H    0.022825
    71  H    0.023583
    72  H    0.222152
    73  H    0.031077
    74  H    0.042099
    75  H    0.033739
    76  H   -0.006225
    77  H    0.093357
    78  H    0.020496
    79  H    0.007929
 Sum of Mulliken charges =  -0.00000

 Dipole moment (field-independent basis, Debye):
    X=             -0.2135    Y=              1.1138    Z=              3.0767  Tot=              3.2791
 Quadrupole moment (field-independent basis, Debye-Ang):
   XX=           -219.5212   YY=           -246.4133   ZZ=           -264.3280
   XY=             -7.3848   XZ=             31.3912   YZ=              4.5900

 Normal termination of Gaussian 16 at Sat Oct  5 05:27:31 2019.
