 Gaussian 16, Revision A.03,
 Gaussian 16:  ES64L-G16RevA.03 25-Dec-2016

 --------------------------
 # td=(NStates=1) B3LYP/SVP
 --------------------------

 --
 TD
 --
 Symbolic Z-matrix:
 Charge =  0 Multiplicity = 1

                         Standard orientation:
 ---------------------------------------------------------------------
 Center     Atomic      Atomic             Coordinates (Angstroms)
 Number     Number       Type             X           Y           Z
 ---------------------------------------------------------------------
      1          8           0        5.305396   -0.028142   -3.320257
      2          8           0       -3.165298   -2.849809    3.054170
      3          8           0       -3.349997   -0.708765    2.924726
      4          8           0       -1.442221    7.148520    1.421155
      5          8           0       -0.677540    7.038176   -0.692864
      6          8           0       -1.716075   -3.845686    0.326291
      7          7           0        2.263951    0.952234    0.671085
      8          7           0        4.278387   -0.649973   -1.368614
      9          7           0       -1.852597    0.682315   -0.413595
     10          7           0       -2.628358   -1.876173   -0.404251
     11          6           0        4.651047   -1.256486   -0.107547
     12          6           0        4.396473   -0.346028    1.182411
     13          6           0        2.969748    0.014521    1.512622
     14          6           0        2.015978   -0.582683    2.171029
     15          6           0        0.745732   -0.035267    1.931074
     16          6           0        0.955496    1.030277    1.048043
     17          6           0        6.200365   -1.549746   -0.295323
     18          6           0       -0.557556   -0.197826    2.758524
     19          6           0        6.579962   -0.829764   -1.384631
     20          6           0        0.099051    1.983709    0.328531
     21          6           0       -1.141409    1.806894   -0.228592
     22          6           0        5.389749   -0.498255   -2.205956
     23          6           0       -1.990720    2.776577   -0.834031
     24          6           0        2.289484   -1.664637    3.241355
     25          6           0        6.936859   -2.087082    0.846095
     26          6           0       -3.107206    2.302367   -1.308509
     27          6           0       -1.093637   -1.643757    2.757810
     28          6           0       -3.084291    1.021795   -0.981233
     29          6           0       -1.503286    4.330731   -0.884345
     30          6           0        7.863409   -0.727635   -2.082114
     31          6           0       -1.760952    5.135792    0.438428
     32          6           0       -4.226988    2.996794   -2.128807
     33          6           0       -3.916027   -0.092897   -1.378596
     34          6           0       -2.632991   -1.620968    2.872288
     35          6           0       -3.659019   -1.394961   -1.118217
     36          6           0        9.227095   -0.725050   -1.448878
     37          6           0       -1.185739    6.491606    0.323087
     38          6           0       -4.503037   -2.626162   -1.458301
     39          6           0       -3.868841   -3.779265   -0.997352
     40          6           0       -2.656137   -3.249930   -0.344272
     41          6           0       -5.817547   -2.512711   -2.291587
     42          6           0       -4.057334   -5.199559   -1.151024
     43          6           0       -6.589520   -3.598157   -2.691342
     44          1           0        4.281895   -2.183484    0.132639
     45          1           0        5.082993    0.729024    0.786638
     46          1           0        4.894480   -0.844376    1.899349
     47          1           0        2.634704    1.425768   -0.244433
     48          1           0        3.177564   -0.521479   -1.359851
     49          1           0       -0.706582    0.072841    3.754071
     50          1           0       -1.149318    0.510554    2.165798
     51          1           0        0.432868    2.927703    0.236139
     52          1           0        3.279676   -1.554329    3.597648
     53          1           0        1.480311   -1.365188    4.065589
     54          1           0        2.120941   -2.715550    2.686946
     55          1           0        6.375138   -2.805913    1.389992
     56          1           0        7.195273   -1.250006    1.446229
     57          1           0        7.950065   -2.536367    0.573048
     58          1           0       -0.661842   -2.410713    1.995834
     59          1           0       -0.519004   -2.107461    3.685138
     60          1           0       -1.745575   -0.359943    0.098794
     61          1           0       -2.056540    4.874907   -1.641193
     62          1           0       -0.526194    4.360179   -1.009025
     63          1           0        7.689937   -0.926564   -3.169021
     64          1           0       -1.413401    4.634832    1.427446
     65          1           0       -2.825511    5.311263    0.738245
     66          1           0       -3.791199    4.022156   -2.561874
     67          1           0       -5.134989    2.990381   -1.501223
     68          1           0       -4.336515    2.283388   -3.040194
     69          1           0       -4.869792    0.286619   -1.722241
     70          1           0        9.405032   -0.838656   -0.352018
     71          1           0        9.970493   -0.621032   -2.161217
     72          1           0       -4.076305   -2.707051    3.266834
     73          1           0       -6.107929   -1.536575   -2.587366
     74          1           0       -5.139211   -5.446441   -0.771149
     75          1           0       -4.367604   -5.492669   -2.238933
     76          1           0       -3.330593   -5.842609   -0.647500
     77          1           0       -1.256707    8.061204    1.268637
     78          1           0       -7.478876   -3.426513   -3.238422
     79          1           0       -6.350755   -4.824482   -2.611360
 ---------------------------------------------------------------------

 SCF Done:  E(RB3LYP) =  -1947.78752383     A.U. after   19 cycles

 Excitation energies and oscillator strengths:

 Excited State   1:      Singlet-A      1.9939 eV  621.82 nm  f=0.2881  <S**2>=0.000
     151 ->156        -0.11957
     154 ->156         0.23037
     155 ->156         0.65159
     155 <-156        -0.10628
 This state for optimization and/or second-order correction.
 Total Energy, E(TD-HF/TD-DFT) =  -1947.71425018
 Copying the excited state density for this state as the 1-particle RhoCI density.

 The electronic state is 1-A.
 Alpha  occ. eigenvalues --  -19.19874 -19.14902 -19.13083 -19.11260 -19.09781
 Alpha  occ. eigenvalues --  -19.09531 -14.38244 -14.35788 -14.35458 -14.28856
 Alpha  occ. eigenvalues --  -10.33045 -10.30119 -10.28730 -10.26076 -10.24485
 Alpha  occ. eigenvalues --  -10.24018 -10.23869 -10.23390 -10.23295 -10.23005
 Alpha  occ. eigenvalues --  -10.22960 -10.22503 -10.22464 -10.22255 -10.21974
 Alpha  occ. eigenvalues --  -10.21823 -10.21538 -10.21507 -10.21320 -10.21184
 Alpha  occ. eigenvalues --  -10.21065 -10.20950 -10.20878 -10.20771 -10.20317
 Alpha  occ. eigenvalues --  -10.20138 -10.20044 -10.19932 -10.19786 -10.19583
 Alpha  occ. eigenvalues --  -10.19136 -10.18776 -10.18302  -1.12505  -1.09711
 Alpha  occ. eigenvalues --   -1.02370  -0.99935  -0.99733  -0.99621  -0.97818
 Alpha  occ. eigenvalues --   -0.97616  -0.93005  -0.90857  -0.83220  -0.82290
 Alpha  occ. eigenvalues --   -0.81819  -0.80954  -0.79716  -0.79604  -0.78447
 Alpha  occ. eigenvalues --   -0.77151  -0.76213  -0.74995  -0.74496  -0.72425
 Alpha  occ. eigenvalues --   -0.70963  -0.70820  -0.69960  -0.69158  -0.68442
 Alpha  occ. eigenvalues --   -0.66833  -0.65888  -0.64155  -0.61909  -0.61542
 Alpha  occ. eigenvalues --   -0.61032  -0.58945  -0.58274  -0.57604  -0.56900
 Alpha  occ. eigenvalues --   -0.56678  -0.55570  -0.54858  -0.53722  -0.53052
 Alpha  occ. eigenvalues --   -0.52215  -0.51615  -0.50750  -0.50104  -0.49936
 Alpha  occ. eigenvalues --   -0.49416  -0.49263  -0.48493  -0.47744  -0.47643
 Alpha  occ. eigenvalues --   -0.47451  -0.46959  -0.46691  -0.46357  -0.46029
 Alpha  occ. eigenvalues --   -0.45443  -0.44970  -0.44822  -0.44265  -0.43906
 Alpha  occ. eigenvalues --   -0.43638  -0.43132  -0.42875  -0.42776  -0.42476
 Alpha  occ. eigenvalues --   -0.42202  -0.41971  -0.41759  -0.41172  -0.40986
 Alpha  occ. eigenvalues --   -0.40895  -0.40387  -0.40184  -0.40094  -0.39529
 Alpha  occ. eigenvalues --   -0.39472  -0.39160  -0.39130  -0.38925  -0.38450
 Alpha  occ. eigenvalues --   -0.37886  -0.37688  -0.37085  -0.36943  -0.36867
 Alpha  occ. eigenvalues --   -0.36116  -0.35850  -0.35483  -0.34641  -0.34332
 Alpha  occ. eigenvalues --   -0.33467  -0.32892  -0.32708  -0.31966  -0.30801
 Alpha  occ. eigenvalues --   -0.30515  -0.29579  -0.28906  -0.28629  -0.27170
 Alpha  occ. eigenvalues --   -0.26884  -0.26067  -0.25826  -0.25708  -0.24926
 Alpha  occ. eigenvalues --   -0.23794  -0.23707  -0.23177  -0.22158  -0.20010
 Alpha virt. eigenvalues --   -0.11990  -0.06948  -0.06623  -0.01680  -0.01030
 Alpha virt. eigenvalues --   -0.00623   0.00736   0.01849   0.02203   0.02925
 Alpha virt. eigenvalues --    0.03451   0.04501   0.04858   0.04884   0.05091

 Mulliken charges:
               1
     1  O   -0.212324
     2  O   -0.173670
     3  O   -0.187040
     4  O   -0.117291
     5  O   -0.281498
     6  O   -0.275759
     7  N   -0.183643
     8  N   -0.242907
     9  N   -0.158581
    10  N   -0.270326
    11  C    0.112055
    12  C    0.116078
    13  C    0.016094
    14  C   -0.146745
    15  C   -0.071572
    16  C    0.091347
    17  C   -0.181622
    18  C    0.091560
    19  C   -0.072079
    20  C   -0.058907
    21  C    0.103935
    22  C    0.176369
    23  C   -0.103461
    24  C    0.051268
    25  C    0.105987
    26  C   -0.122426
    27  C   -0.102507
    28  C    0.065132
    29  C    0.220302
    30  C   -0.057721
    31  C   -0.074163
    32  C    0.069598
    33  C   -0.132396
    34  C    0.143714
    35  C    0.169832
    36  C   -0.020352
    37  C    0.135920
    38  C    0.000533
    39  C   -0.159102
    40  C    0.157023
    41  C    0.021054
    42  C    0.062273
    43  C   -0.067293
    44  H   -0.018268
    45  H    0.026396
    46  H   -0.052329
    47  H    0.151637
    48  H    0.162670
    49  H   -0.001893
    50  H    0.001441
    51  H   -0.058051
    52  H    0.005291
    53  H    0.049509
    54  H    0.061645
    55  H    0.014368
    56  H    0.038414
    57  H    0.037278
    58  H    0.083344
    59  H    0.034599
    60  H    0.231534
    61  H    0.007616
    62  H   -0.028058
    63  H    0.047902
    64  H    0.054262
    65  H    0.045144
    66  H    0.052402
    67  H    0.052367
    68  H    0.047405
    69  H   -0.025224
    70  H    0.041280
    71  H    0.024079
    72  H    0.152032
    73  H   -0.015354
    74  H    0.024428
    75  H    0.034700
    76  H    0.045721
    77  H    0.167278
    78  H    0.014887
    79  H    0.052861
 Sum of Mulliken charges =  -0.00000

 Dipole moment (field-independent basis, Debye):
    X=             -1.2428    Y=              2.5293    Z=              3.2771  Tot=              4.3222
 Quadrupole moment (field-independent basis, Debye-Ang):
   XX=           -221.2697   YY=           -244.1727   ZZ=           -263.0548
   XY=            -18.1209   XZ=             34.5313   YZ=             10.4936

 Normal termination of Gaussian 16 at Thu Sep 19 09:46:54 2019.
