 Gaussian 16, Revision A.03,
 Gaussian 16:  ES64L-G16RevA.03 25-Dec-2016

 --------------------------
 # td=(NStates=1) B3LYP/SVP
 --------------------------

 --
 TD
 --
 Symbolic Z-matrix:
 Charge =  0 Multiplicity = 1

                         Standard orientation:
 ---------------------------------------------------------------------
 Center     Atomic      Atomic             Coordinates (Angstroms)
 Number     Number       Type             X           Y           Z
 ---------------------------------------------------------------------
      1          8           0       -3.073231   -1.547476   -2.756032
      2          8           0        2.841738    3.555388    2.780786
      3          8           0        3.368762    2.037466    4.362712
      4          8           0        7.902586   -1.548995   -0.818167
      5          8           0        6.512218   -3.311149   -1.466415
      6          8           0       -2.717257    1.743472    1.216628
      7          7           0       -0.128210   -2.376195    1.242639
      8          7           0       -2.594600   -1.263002   -0.461677
      9          7           0        1.156551    0.059980   -0.736003
     10          7           0       -1.041669    1.360804   -0.310546
     11          6           0       -3.378899   -1.407431    0.696528
     12          6           0       -2.516851   -2.256703    1.749938
     13          6           0       -1.161381   -1.884177    2.014360
     14          6           0       -0.615588   -1.083083    2.888252
     15          6           0        0.789695   -0.843197    2.657519
     16          6           0        1.087126   -1.636047    1.505199
     17          6           0       -4.722248   -1.981070    0.401513
     18          6           0        1.758836    0.050441    3.388390
     19          6           0       -4.643873   -2.183776   -1.006180
     20          6           0        2.169764   -1.775337    0.606455
     21          6           0        2.040803   -0.897099   -0.530091
     22          6           0       -3.428661   -1.671941   -1.541436
     23          6           0        3.026093   -0.786691   -1.638312
     24          6           0       -1.488483   -0.292726    4.016216
     25          6           0       -5.780827   -2.005118    1.306971
     26          6           0        2.627480    0.303394   -2.418114
     27          6           0        1.857584    1.368514    2.608284
     28          6           0        1.369657    0.821744   -1.885701
     29          6           0        4.187217   -1.786378   -1.853363
     30          6           0       -5.621089   -2.664748   -1.897787
     31          6           0        5.443112   -1.187470   -1.189706
     32          6           0        3.294650    0.757740   -3.570772
     33          6           0        0.485893    1.813953   -2.203001
     34          6           0        2.750302    2.354891    3.347853
     35          6           0       -0.684782    2.072460   -1.463710
     36          6           0       -6.691560   -3.541258   -1.666365
     37          6           0        6.673110   -2.106891   -1.193588
     38          6           0       -1.505113    3.289442   -1.579630
     39          6           0       -2.384206    3.396711   -0.569312
     40          6           0       -2.040722    2.107303    0.249889
     41          6           0       -1.241074    4.333543   -2.578397
     42          6           0       -3.401881    4.369113   -0.059154
     43          6           0       -1.951352    5.453366   -2.777083
     44          1           0       -3.613927   -0.463115    1.238873
     45          1           0       -2.508202   -3.439627    1.455222
     46          1           0       -3.304505   -2.303057    2.525989
     47          1           0       -0.301956   -2.674289    0.290766
     48          1           0       -1.946709   -0.551304   -0.797209
     49          1           0        1.476315    0.154344    4.289089
     50          1           0        2.784524   -0.437797    3.253411
     51          1           0        2.925879   -2.616190    0.584026
     52          1           0       -2.278962   -1.058335    4.421946
     53          1           0       -0.692059    0.014997    4.662553
     54          1           0       -2.025663    0.530305    3.556888
     55          1           0       -5.658123   -1.489083    2.291655
     56          1           0       -6.041708   -2.973168    1.847436
     57          1           0       -6.686498   -1.850442    0.731482
     58          1           0        2.086810    1.113728    1.446599
     59          1           0        0.808430    1.814522    2.534852
     60          1           0        0.103914    0.233372   -0.153593
     61          1           0        4.238289   -1.941217   -2.858540
     62          1           0        3.999269   -2.750831   -1.318954
     63          1           0       -5.492666   -2.178392   -2.831852
     64          1           0        5.435466   -0.783121   -0.096055
     65          1           0        5.847989   -0.340664   -1.687072
     66          1           0        4.330987    0.319657   -4.070821
     67          1           0        3.560353    1.881318   -3.696398
     68          1           0        2.605333    0.745390   -4.434039
     69          1           0        0.469062    2.223903   -3.312437
     70          1           0       -6.735129   -4.229241   -0.563731
     71          1           0       -7.389940   -4.003835   -2.481916
     72          1           0        3.333100    4.207771    3.307086
     73          1           0       -0.470046    4.275738   -3.477359
     74          1           0       -4.127251    4.483782   -0.890064
     75          1           0       -3.952821    4.020067    0.887798
     76          1           0       -3.121969    5.503465    0.262438
     77          1           0        8.556680   -2.198761   -0.773176
     78          1           0       -1.775597    6.148581   -3.720973
     79          1           0       -2.678087    5.701937   -2.014893
 ---------------------------------------------------------------------

 SCF Done:  E(RB3LYP) =  -1947.82612663     A.U. after   21 cycles

 Excitation energies and oscillator strengths:

 Excited State   1:      Singlet-A      1.1168 eV 1110.14 nm  f=0.0027  <S**2>=0.000
     155 ->156         0.70022
 This state for optimization and/or second-order correction.
 Total Energy, E(TD-HF/TD-DFT) =  -1947.78508388
 Copying the excited state density for this state as the 1-particle RhoCI density.

 The electronic state is 1-A.
 Alpha  occ. eigenvalues --  -19.19145 -19.18310 -19.13640 -19.11978 -19.11682
 Alpha  occ. eigenvalues --  -19.08102 -14.36911 -14.35267 -14.32792 -14.32776
 Alpha  occ. eigenvalues --  -10.33659 -10.31728 -10.28618 -10.27019 -10.26509
 Alpha  occ. eigenvalues --  -10.26407 -10.25359 -10.23095 -10.22821 -10.22772
 Alpha  occ. eigenvalues --  -10.22638 -10.22456 -10.22339 -10.22214 -10.22084
 Alpha  occ. eigenvalues --  -10.22074 -10.22042 -10.22037 -10.21675 -10.21590
 Alpha  occ. eigenvalues --  -10.21511 -10.20937 -10.20804 -10.20750 -10.20418
 Alpha  occ. eigenvalues --  -10.20184 -10.19256 -10.19036 -10.18970 -10.17933
 Alpha  occ. eigenvalues --  -10.17901 -10.17854 -10.16293  -1.09320  -1.08948
 Alpha  occ. eigenvalues --   -1.02626  -1.00616  -0.99554  -0.99395  -0.98728
 Alpha  occ. eigenvalues --   -0.95334  -0.93817  -0.91819  -0.83389  -0.82872
 Alpha  occ. eigenvalues --   -0.82249  -0.81993  -0.80076  -0.79131  -0.78722
 Alpha  occ. eigenvalues --   -0.77087  -0.76010  -0.75306  -0.74377  -0.72963
 Alpha  occ. eigenvalues --   -0.71558  -0.70630  -0.69704  -0.69082  -0.67837
 Alpha  occ. eigenvalues --   -0.66764  -0.66288  -0.63260  -0.61453  -0.61021
 Alpha  occ. eigenvalues --   -0.59902  -0.59485  -0.58758  -0.57368  -0.57255
 Alpha  occ. eigenvalues --   -0.56450  -0.55336  -0.53942  -0.53657  -0.52920
 Alpha  occ. eigenvalues --   -0.52164  -0.51330  -0.51046  -0.49971  -0.49457
 Alpha  occ. eigenvalues --   -0.49188  -0.48580  -0.48100  -0.47999  -0.47470
 Alpha  occ. eigenvalues --   -0.47121  -0.46988  -0.46524  -0.46251  -0.45843
 Alpha  occ. eigenvalues --   -0.45783  -0.45284  -0.45042  -0.44742  -0.44283
 Alpha  occ. eigenvalues --   -0.43828  -0.43196  -0.42971  -0.42682  -0.42316
 Alpha  occ. eigenvalues --   -0.41658  -0.41538  -0.41047  -0.40904  -0.40513
 Alpha  occ. eigenvalues --   -0.40275  -0.40178  -0.39808  -0.39618  -0.39444
 Alpha  occ. eigenvalues --   -0.39013  -0.38667  -0.38581  -0.38081  -0.37956
 Alpha  occ. eigenvalues --   -0.37684  -0.37235  -0.37212  -0.36660  -0.36201
 Alpha  occ. eigenvalues --   -0.36008  -0.35785  -0.34749  -0.34728  -0.34065
 Alpha  occ. eigenvalues --   -0.33363  -0.33172  -0.32972  -0.31897  -0.31849
 Alpha  occ. eigenvalues --   -0.31686  -0.30390  -0.29294  -0.28882  -0.28578
 Alpha  occ. eigenvalues --   -0.27391  -0.26282  -0.25951  -0.24704  -0.24126
 Alpha  occ. eigenvalues --   -0.23670  -0.22760  -0.22520  -0.22161  -0.19864
 Alpha virt. eigenvalues --   -0.13124  -0.07540  -0.06203  -0.02254  -0.01598
 Alpha virt. eigenvalues --    0.00046   0.00531   0.00984   0.02342   0.03578
 Alpha virt. eigenvalues --    0.03825   0.04185   0.04634   0.04930   0.05073

 Mulliken charges:
               1
     1  O   -0.297289
     2  O   -0.166804
     3  O   -0.248967
     4  O   -0.191745
     5  O   -0.253944
     6  O   -0.220391
     7  N   -0.100678
     8  N   -0.193966
     9  N   -0.191809
    10  N   -0.329988
    11  C    0.076956
    12  C    0.080565
    13  C    0.040529
    14  C   -0.168703
    15  C   -0.137651
    16  C   -0.002356
    17  C   -0.085509
    18  C    0.284480
    19  C   -0.052663
    20  C   -0.094082
    21  C    0.045858
    22  C    0.132989
    23  C   -0.137853
    24  C    0.081817
    25  C    0.072721
    26  C   -0.011400
    27  C   -0.125785
    28  C    0.167028
    29  C    0.218236
    30  C    0.005679
    31  C   -0.019425
    32  C   -0.042522
    33  C   -0.134902
    34  C    0.164745
    35  C    0.109744
    36  C   -0.127841
    37  C    0.152389
    38  C    0.090223
    39  C   -0.153395
    40  C    0.155695
    41  C   -0.073667
    42  C    0.008505
    43  C   -0.052744
    44  H    0.042592
    45  H    0.001112
    46  H   -0.031171
    47  H    0.107997
    48  H    0.143000
    49  H   -0.069935
    50  H    0.009160
    51  H    0.036041
    52  H    0.020323
    53  H    0.001909
    54  H    0.038750
    55  H    0.026416
    56  H    0.030137
    57  H    0.036752
    58  H    0.072070
    59  H    0.049980
    60  H    0.283414
    61  H   -0.004114
    62  H    0.031821
    63  H    0.003328
    64  H    0.065245
    65  H    0.014825
    66  H    0.049992
    67  H    0.027513
    68  H    0.023092
    69  H    0.042862
    70  H    0.041380
    71  H    0.055907
    72  H    0.185664
    73  H    0.017169
    74  H    0.046319
    75  H    0.050267
    76  H    0.062667
    77  H    0.166255
    78  H    0.053214
    79  H   -0.004037
 Sum of Mulliken charges =  -0.00000

 Dipole moment (field-independent basis, Debye):
    X=              2.1749    Y=              4.0436    Z=             -1.7451  Tot=              4.9119
 Quadrupole moment (field-independent basis, Debye-Ang):
   XX=           -227.4446   YY=           -240.4184   ZZ=           -265.3881
   XY=              3.5339   XZ=            -24.9871   YZ=            -14.4912

 Normal termination of Gaussian 16 at Mon Jul 29 00:01:20 2019.
