 Gaussian 16, Revision A.03,
 Gaussian 16:  ES64L-G16RevA.03 25-Dec-2016

 --------------------------
 # td=(NStates=1) B3LYP/SVP
 --------------------------

 --
 TD
 --
 Symbolic Z-matrix:
 Charge =  0 Multiplicity = 1

                         Standard orientation:
 ---------------------------------------------------------------------
 Center     Atomic      Atomic             Coordinates (Angstroms)
 Number     Number       Type             X           Y           Z
 ---------------------------------------------------------------------
      1          8           0        5.453663    0.087583   -3.221381
      2          8           0       -3.069231   -2.939852    3.237354
      3          8           0       -3.301281   -0.766372    3.057488
      4          8           0       -1.858589    7.266371    1.418126
      5          8           0       -0.475173    7.061988   -0.443717
      6          8           0       -1.664233   -4.026647   -0.072222
      7          7           0        2.354732    0.944022    0.774197
      8          7           0        4.316183   -0.578177   -1.269105
      9          7           0       -1.831900    0.673691   -0.393701
     10          7           0       -2.512046   -1.887643   -0.399251
     11          6           0        4.754947   -1.208697   -0.016476
     12          6           0        4.397832   -0.388473    1.265241
     13          6           0        2.893465   -0.100279    1.450263
     14          6           0        1.926782   -0.787584    2.192816
     15          6           0        0.765478   -0.191176    1.793746
     16          6           0        0.932520    0.865965    0.827933
     17          6           0        6.257017   -1.381496   -0.227961
     18          6           0       -0.603173   -0.350077    2.441896
     19          6           0        6.675084   -0.836874   -1.406648
     20          6           0        0.144506    1.905503    0.206776
     21          6           0       -1.193081    1.872825   -0.256121
     22          6           0        5.421423   -0.383784   -2.102144
     23          6           0       -1.955244    2.981790   -0.811688
     24          6           0        2.184096   -1.816345    3.182807
     25          6           0        6.935914   -2.130997    0.893970
     26          6           0       -3.174766    2.305758   -1.298746
     27          6           0       -1.164525   -1.732944    2.434676
     28          6           0       -3.051908    0.906390   -0.985573
     29          6           0       -1.640939    4.424483   -0.851664
     30          6           0        7.893812   -0.614402   -2.090013
     31          6           0       -1.781967    5.119068    0.479532
     32          6           0       -4.323618    3.104816   -1.939223
     33          6           0       -3.949849   -0.079782   -1.281824
     34          6           0       -2.679992   -1.767891    2.920829
     35          6           0       -3.638038   -1.471929   -1.069868
     36          6           0        9.109468   -0.437552   -1.385095
     37          6           0       -1.232454    6.592475    0.408050
     38          6           0       -4.524796   -2.572653   -1.500584
     39          6           0       -3.806798   -3.785420   -1.203790
     40          6           0       -2.539864   -3.316966   -0.445344
     41          6           0       -5.845860   -2.480844   -2.027673
     42          6           0       -4.074284   -5.260360   -1.379621
     43          6           0       -6.698748   -3.419542   -2.588991
     44          1           0        4.079356   -2.223233    0.067078
     45          1           0        5.155034    0.523799    1.149690
     46          1           0        4.826566   -0.905880    2.002034
     47          1           0        2.839550    1.373150    0.025646
     48          1           0        3.505567   -0.354234   -1.697250
     49          1           0       -0.453259   -0.068026    3.441002
     50          1           0       -1.179363    0.375035    2.059782
     51          1           0        0.601807    2.810953   -0.116717
     52          1           0        3.310523   -1.982826    3.601990
     53          1           0        1.504495   -1.604644    4.075027
     54          1           0        1.861188   -2.808994    2.878868
     55          1           0        6.615910   -2.969214    1.480184
     56          1           0        7.130544   -1.480663    1.674012
     57          1           0        7.856808   -2.456357    0.295485
     58          1           0       -1.202870   -2.119309    1.464310
     59          1           0       -0.559764   -2.514506    3.017773
     60          1           0       -1.632308   -0.209397   -0.500510
     61          1           0       -2.038995    5.011034   -1.806386
     62          1           0       -0.393696    4.553910   -1.140699
     63          1           0        7.775450   -0.548585   -3.280088
     64          1           0       -1.049076    4.711763    1.283061
     65          1           0       -2.815544    4.977170    1.023753
     66          1           0       -3.810910    4.294123   -1.941428
     67          1           0       -5.148869    3.285119   -1.263080
     68          1           0       -4.387504    2.672131   -2.964117
     69          1           0       -4.861830    0.139138   -1.927124
     70          1           0        9.291300   -0.477536   -0.243149
     71          1           0       10.158508   -0.301440   -1.955285
     72          1           0       -3.948702   -3.099008    3.509396
     73          1           0       -6.195218   -1.356188   -2.086084
     74          1           0       -5.260164   -5.447176   -1.429423
     75          1           0       -3.913319   -5.582756   -2.416636
     76          1           0       -3.494703   -5.792303   -0.497677
     77          1           0       -1.497530    8.197764    1.437135
     78          1           0       -7.770158   -2.971370   -2.881672
     79          1           0       -6.343506   -4.557307   -2.906002
 ---------------------------------------------------------------------

 SCF Done:  E(RB3LYP) =  -1947.82945163     A.U. after   17 cycles

 Excitation energies and oscillator strengths:

 Excited State   1:      Singlet-A      1.9491 eV  636.11 nm  f=0.4452  <S**2>=0.000
     154 ->156         0.20007
     155 ->156         0.67898
     155 <-156        -0.13286
 This state for optimization and/or second-order correction.
 Total Energy, E(TD-HF/TD-DFT) =  -1947.75782398
 Copying the excited state density for this state as the 1-particle RhoCI density.

 The electronic state is 1-A.
 Alpha  occ. eigenvalues --  -19.19877 -19.17068 -19.14563 -19.10326 -19.10221
 Alpha  occ. eigenvalues --  -19.09555 -14.38543 -14.35170 -14.35107 -14.28581
 Alpha  occ. eigenvalues --  -10.33895 -10.29565 -10.28314 -10.26323 -10.26106
 Alpha  occ. eigenvalues --  -10.24498 -10.24267 -10.23687 -10.23632 -10.23522
 Alpha  occ. eigenvalues --  -10.23230 -10.23189 -10.23029 -10.22408 -10.22241
 Alpha  occ. eigenvalues --  -10.22151 -10.22090 -10.22018 -10.21719 -10.21630
 Alpha  occ. eigenvalues --  -10.21236 -10.21005 -10.20910 -10.20747 -10.20564
 Alpha  occ. eigenvalues --  -10.20519 -10.20324 -10.20050 -10.19731 -10.19418
 Alpha  occ. eigenvalues --  -10.18994 -10.17001 -10.16355  -1.10583  -1.09493
 Alpha  occ. eigenvalues --   -1.02842  -1.02691  -1.01316  -0.99903  -0.99170
 Alpha  occ. eigenvalues --   -0.98800  -0.94041  -0.89867  -0.83026  -0.82660
 Alpha  occ. eigenvalues --   -0.82509  -0.81118  -0.79386  -0.78933  -0.77654
 Alpha  occ. eigenvalues --   -0.77119  -0.75709  -0.74932  -0.73515  -0.72135
 Alpha  occ. eigenvalues --   -0.71814  -0.71038  -0.69093  -0.68673  -0.68634
 Alpha  occ. eigenvalues --   -0.67828  -0.65455  -0.63523  -0.61808  -0.60949
 Alpha  occ. eigenvalues --   -0.60860  -0.59588  -0.59217  -0.58394  -0.57597
 Alpha  occ. eigenvalues --   -0.56668  -0.55080  -0.54700  -0.53553  -0.52263
 Alpha  occ. eigenvalues --   -0.51692  -0.50829  -0.50306  -0.50210  -0.49333
 Alpha  occ. eigenvalues --   -0.49109  -0.48397  -0.47743  -0.47358  -0.47054
 Alpha  occ. eigenvalues --   -0.46840  -0.46349  -0.46154  -0.45828  -0.45635
 Alpha  occ. eigenvalues --   -0.45329  -0.45169  -0.44795  -0.43801  -0.43559
 Alpha  occ. eigenvalues --   -0.43397  -0.43112  -0.42990  -0.42665  -0.42408
 Alpha  occ. eigenvalues --   -0.42288  -0.41687  -0.41524  -0.41295  -0.41216
 Alpha  occ. eigenvalues --   -0.40972  -0.40678  -0.40439  -0.40205  -0.39385
 Alpha  occ. eigenvalues --   -0.39194  -0.38863  -0.38743  -0.38333  -0.37757
 Alpha  occ. eigenvalues --   -0.37423  -0.37165  -0.36969  -0.36898  -0.36545
 Alpha  occ. eigenvalues --   -0.36512  -0.34778  -0.34300  -0.34211  -0.33673
 Alpha  occ. eigenvalues --   -0.33546  -0.33164  -0.32953  -0.32668  -0.31575
 Alpha  occ. eigenvalues --   -0.30899  -0.30711  -0.29571  -0.28245  -0.27668
 Alpha  occ. eigenvalues --   -0.26454  -0.25940  -0.25766  -0.25361  -0.25171
 Alpha  occ. eigenvalues --   -0.24252  -0.23889  -0.23328  -0.21076  -0.18205
 Alpha virt. eigenvalues --   -0.10827  -0.06891  -0.06573  -0.01368  -0.00993
 Alpha virt. eigenvalues --    0.00204   0.00670   0.02142   0.03299   0.03761
 Alpha virt. eigenvalues --    0.04112   0.04363   0.04635   0.04819   0.05164

 Mulliken charges:
               1
     1  O   -0.225374
     2  O   -0.100009
     3  O   -0.215463
     4  O   -0.200416
     5  O   -0.231021
     6  O   -0.176436
     7  N   -0.056531
     8  N   -0.176639
     9  N    0.040526
    10  N   -0.336281
    11  C    0.060126
    12  C    0.192395
    13  C   -0.081285
    14  C   -0.053353
    15  C   -0.148176
    16  C    0.096816
    17  C   -0.156529
    18  C    0.250402
    19  C   -0.007127
    20  C   -0.064708
    21  C    0.061099
    22  C    0.107723
    23  C   -0.005893
    24  C    0.042530
    25  C    0.078282
    26  C   -0.163831
    27  C   -0.012102
    28  C    0.098654
    29  C   -0.057979
    30  C   -0.040560
    31  C   -0.038777
    32  C    0.051193
    33  C   -0.131421
    34  C    0.084136
    35  C    0.086152
    36  C   -0.108594
    37  C    0.164227
    38  C    0.031711
    39  C   -0.188751
    40  C    0.142038
    41  C   -0.055302
    42  C    0.033562
    43  C   -0.105936
    44  H    0.046035
    45  H    0.016179
    46  H   -0.062999
    47  H    0.103855
    48  H    0.091511
    49  H   -0.024096
    50  H   -0.052565
    51  H   -0.032003
    52  H    0.032783
    53  H    0.029065
    54  H    0.037761
    55  H    0.021115
    56  H    0.013340
    57  H    0.047395
    58  H    0.027341
    59  H    0.010264
    60  H    0.064667
    61  H    0.069031
    62  H    0.049722
    63  H    0.073261
    64  H    0.058689
    65  H    0.065046
    66  H    0.018916
    67  H    0.045726
    68  H    0.056974
    69  H   -0.004807
    70  H    0.051886
    71  H    0.053190
    72  H    0.162037
    73  H    0.015650
    74  H    0.022048
    75  H    0.035451
    76  H    0.071810
    77  H    0.192969
    78  H    0.050663
    79  H    0.059013
 Sum of Mulliken charges =  -0.00000

 Dipole moment (field-independent basis, Debye):
    X=              1.0511    Y=              1.8441    Z=              3.5249  Tot=              4.1146
 Quadrupole moment (field-independent basis, Debye-Ang):
   XX=           -227.2900   YY=           -239.3833   ZZ=           -258.6042
   XY=            -12.0194   XZ=             29.7920   YZ=              3.4378

 Normal termination of Gaussian 16 at Tue Oct  8 09:06:17 2019.
