 Gaussian 16, Revision A.03,
 Gaussian 16:  ES64L-G16RevA.03 25-Dec-2016

 --------------------------
 # td=(NStates=1) B3LYP/SVP
 --------------------------

 --
 TD
 --
 Symbolic Z-matrix:
 Charge =  0 Multiplicity = 1

                         Standard orientation:
 ---------------------------------------------------------------------
 Center     Atomic      Atomic             Coordinates (Angstroms)
 Number     Number       Type             X           Y           Z
 ---------------------------------------------------------------------
      1          8           0       -3.114077   -1.337189   -2.884531
      2          8           0        3.385495    2.980694    3.200164
      3          8           0        3.798429    1.116697    4.350702
      4          8           0        7.733564   -1.302311   -0.836136
      5          8           0        6.700728   -2.653601   -2.353690
      6          8           0       -2.691881    1.565796    1.653379
      7          7           0       -0.137346   -2.464502    0.851390
      8          7           0       -2.650387   -1.171910   -0.717652
      9          7           0        1.167040    0.113816   -0.687005
     10          7           0       -1.085790    1.486571   -0.087800
     11          6           0       -3.374886   -1.431137    0.565310
     12          6           0       -2.612186   -2.452274    1.464499
     13          6           0       -1.197070   -2.119498    1.678825
     14          6           0       -0.460349   -1.330825    2.734802
     15          6           0        0.763561   -1.189417    2.363523
     16          6           0        1.043074   -1.913445    1.201596
     17          6           0       -4.694351   -1.864137    0.168730
     18          6           0        1.918566   -0.490016    3.161934
     19          6           0       -4.673900   -1.998354   -1.189324
     20          6           0        2.203140   -1.875621    0.224159
     21          6           0        2.141938   -0.818154   -0.706483
     22          6           0       -3.414159   -1.495685   -1.744218
     23          6           0        3.024538   -0.576567   -1.795473
     24          6           0       -1.262176   -0.726108    3.921367
     25          6           0       -5.603175   -2.278264    1.255679
     26          6           0        2.493457    0.602054   -2.375526
     27          6           0        2.079528    0.913928    2.885368
     28          6           0        1.208271    1.052874   -1.704185
     29          6           0        4.195295   -1.364995   -2.182881
     30          6           0       -5.880066   -2.375282   -2.022704
     31          6           0        5.269113   -1.027029   -1.270784
     32          6           0        2.995598    1.250946   -3.691269
     33          6           0        0.459067    2.127875   -1.801408
     34          6           0        3.163064    1.630063    3.510113
     35          6           0       -0.678352    2.314270   -1.014605
     36          6           0       -6.835729   -3.184457   -1.713755
     37          6           0        6.620470   -1.770113   -1.578821
     38          6           0       -1.581856    3.491673   -1.105356
     39          6           0       -2.541815    3.312401   -0.087740
     40          6           0       -2.170515    2.074245    0.615078
     41          6           0       -1.579500    4.672401   -1.995662
     42          6           0       -3.534160    4.157406    0.522714
     43          6           0       -2.292119    5.773559   -2.151954
     44          1           0       -3.654943   -0.497982    1.125191
     45          1           0       -2.796159   -3.585499    1.345296
     46          1           0       -3.135985   -2.471184    2.488469
     47          1           0       -0.128908   -2.858299   -0.234843
     48          1           0       -1.954139   -0.376763   -0.676028
     49          1           0        2.079994   -0.739663    4.385217
     50          1           0        2.873213   -0.976490    2.813487
     51          1           0        2.936433   -2.665522    0.070758
     52          1           0       -1.539666   -1.643248    4.646423
     53          1           0       -0.499872   -0.209437    4.644920
     54          1           0       -2.076342    0.077096    3.411795
     55          1           0       -5.227510   -1.778668    2.184313
     56          1           0       -5.713254   -3.619467    1.290402
     57          1           0       -6.637831   -1.717877    0.990967
     58          1           0        2.157427    1.202155    1.758253
     59          1           0        1.101584    1.399093    3.083247
     60          1           0        0.104441    0.112013   -0.086830
     61          1           0        4.443430   -1.367656   -3.221960
     62          1           0        3.837847   -2.438839   -1.988236
     63          1           0       -5.809517   -2.112734   -3.007835
     64          1           0        5.155654   -1.241056   -0.214035
     65          1           0        5.613382    0.012727   -1.653007
     66          1           0        3.945055    0.867293   -3.897070
     67          1           0        3.202689    2.243621   -3.287341
     68          1           0        2.374396    1.177057   -4.705714
     69          1           0        0.607257    2.996533   -2.646238
     70          1           0       -7.137137   -3.532690   -0.827423
     71          1           0       -7.538186   -3.542454   -2.418713
     72          1           0        4.140392    3.371869    3.580425
     73          1           0       -0.989618    4.286744   -2.842667
     74          1           0       -4.228590    4.752365   -0.272364
     75          1           0       -4.117701    3.635177    1.332400
     76          1           0       -3.365152    5.269191    1.045073
     77          1           0        8.553962   -1.758667   -1.322391
     78          1           0       -2.246664    6.596971   -2.903600
     79          1           0       -3.036529    5.871874   -1.391259
 ---------------------------------------------------------------------

 SCF Done:  E(RB3LYP) =  -1947.74941841     A.U. after   21 cycles

 Excitation energies and oscillator strengths:

 Excited State   1:      Singlet-A      0.7885 eV 1572.45 nm  f=0.0075  <S**2>=0.000
     155 ->156         0.70365
 This state for optimization and/or second-order correction.
 Total Energy, E(TD-HF/TD-DFT) =  -1947.72044237
 Copying the excited state density for this state as the 1-particle RhoCI density.

 The electronic state is 1-A.
 Alpha  occ. eigenvalues --  -19.18773 -19.15522 -19.14525 -19.13644 -19.11405
 Alpha  occ. eigenvalues --  -19.07136 -14.38329 -14.37546 -14.32782 -14.32392
 Alpha  occ. eigenvalues --  -10.32946 -10.30563 -10.29664 -10.26521 -10.26143
 Alpha  occ. eigenvalues --  -10.25561 -10.25350 -10.23190 -10.22922 -10.22909
 Alpha  occ. eigenvalues --  -10.22865 -10.22639 -10.22316 -10.22299 -10.22176
 Alpha  occ. eigenvalues --  -10.22015 -10.21896 -10.21853 -10.21695 -10.21295
 Alpha  occ. eigenvalues --  -10.21051 -10.20847 -10.20828 -10.20630 -10.20025
 Alpha  occ. eigenvalues --  -10.19558 -10.19552 -10.19316 -10.18113 -10.17601
 Alpha  occ. eigenvalues --  -10.16933 -10.16493 -10.16235  -1.09673  -1.08405
 Alpha  occ. eigenvalues --   -1.02222  -1.01964  -1.00768  -0.99954  -0.99351
 Alpha  occ. eigenvalues --   -0.96785  -0.95157  -0.92593  -0.85224  -0.82796
 Alpha  occ. eigenvalues --   -0.82018  -0.80919  -0.80614  -0.78957  -0.78283
 Alpha  occ. eigenvalues --   -0.77539  -0.76823  -0.76365  -0.74966  -0.72662
 Alpha  occ. eigenvalues --   -0.71533  -0.70281  -0.68927  -0.68274  -0.67378
 Alpha  occ. eigenvalues --   -0.66129  -0.65551  -0.63668  -0.61993  -0.60210
 Alpha  occ. eigenvalues --   -0.59811  -0.58606  -0.58341  -0.57277  -0.56658
 Alpha  occ. eigenvalues --   -0.56038  -0.55336  -0.54858  -0.54340  -0.52900
 Alpha  occ. eigenvalues --   -0.52141  -0.51749  -0.51140  -0.50378  -0.50167
 Alpha  occ. eigenvalues --   -0.49493  -0.49157  -0.48959  -0.47796  -0.47409
 Alpha  occ. eigenvalues --   -0.47128  -0.46950  -0.46754  -0.46186  -0.46123
 Alpha  occ. eigenvalues --   -0.45843  -0.45415  -0.44830  -0.44186  -0.43974
 Alpha  occ. eigenvalues --   -0.43702  -0.43432  -0.42712  -0.42615  -0.42413
 Alpha  occ. eigenvalues --   -0.42283  -0.41907  -0.41721  -0.41255  -0.40718
 Alpha  occ. eigenvalues --   -0.40545  -0.40133  -0.39802  -0.39366  -0.39148
 Alpha  occ. eigenvalues --   -0.39056  -0.38700  -0.38516  -0.38253  -0.38017
 Alpha  occ. eigenvalues --   -0.37634  -0.37277  -0.36943  -0.36724  -0.36426
 Alpha  occ. eigenvalues --   -0.36104  -0.35677  -0.35106  -0.34555  -0.33605
 Alpha  occ. eigenvalues --   -0.33394  -0.32822  -0.31831  -0.31488  -0.31038
 Alpha  occ. eigenvalues --   -0.30529  -0.30355  -0.29671  -0.29587  -0.29076
 Alpha  occ. eigenvalues --   -0.27097  -0.26912  -0.26349  -0.25092  -0.24605
 Alpha  occ. eigenvalues --   -0.24258  -0.23495  -0.22931  -0.22655  -0.18716
 Alpha virt. eigenvalues --   -0.13558  -0.08403  -0.03662  -0.02238  -0.00086
 Alpha virt. eigenvalues --    0.01084   0.01559   0.02137   0.02517   0.02705
 Alpha virt. eigenvalues --    0.03303   0.03503   0.03716   0.04020   0.04119

 Mulliken charges:
               1
     1  O   -0.208375
     2  O   -0.223547
     3  O   -0.183263
     4  O   -0.279315
     5  O   -0.180357
     6  O   -0.237167
     7  N   -0.094739
     8  N   -0.199409
     9  N   -0.190876
    10  N   -0.316377
    11  C    0.094049
    12  C    0.131478
    13  C   -0.095235
    14  C   -0.107109
    15  C   -0.055043
    16  C   -0.046073
    17  C   -0.168331
    18  C    0.046082
    19  C   -0.100839
    20  C   -0.095869
    21  C    0.082491
    22  C    0.100769
    23  C   -0.044117
    24  C   -0.022429
    25  C   -0.002211
    26  C   -0.192412
    27  C   -0.004177
    28  C    0.195851
    29  C    0.131973
    30  C    0.071880
    31  C    0.009366
    32  C    0.104386
    33  C   -0.158394
    34  C    0.123454
    35  C    0.106620
    36  C    0.010056
    37  C    0.116531
    38  C    0.009272
    39  C   -0.102254
    40  C    0.197133
    41  C    0.012089
    42  C   -0.060109
    43  C   -0.013790
    44  H    0.053252
    45  H    0.010550
    46  H   -0.007803
    47  H    0.169395
    48  H    0.155031
    49  H    0.046426
    50  H   -0.013443
    51  H    0.004532
    52  H    0.031281
    53  H    0.011794
    54  H    0.102466
    55  H    0.033324
    56  H    0.082128
    57  H    0.059120
    58  H    0.034375
    59  H    0.039358
    60  H    0.278541
    61  H    0.013234
    62  H    0.018638
    63  H   -0.038813
    64  H    0.059947
    65  H    0.048704
    66  H   -0.020969
    67  H    0.022177
    68  H    0.074147
    69  H    0.043002
    70  H   -0.041857
    71  H   -0.000046
    72  H    0.162463
    73  H   -0.005657
    74  H    0.046435
    75  H    0.052078
    76  H    0.056995
    77  H    0.218712
    78  H    0.050575
    79  H   -0.011756
 Sum of Mulliken charges =  -0.00000

 Dipole moment (field-independent basis, Debye):
    X=              2.0861    Y=              3.1036    Z=             -2.0006  Tot=              4.2410
 Quadrupole moment (field-independent basis, Debye-Ang):
   XX=           -233.6873   YY=           -232.3986   ZZ=           -271.7577
   XY=              0.5874   XZ=            -25.2217   YZ=            -14.3293

 Normal termination of Gaussian 16 at Tue Jul 30 19:52:03 2019.
