 Gaussian 16, Revision A.03,
 Gaussian 16:  ES64L-G16RevA.03 25-Dec-2016

 --------------------------
 # td=(NStates=1) B3LYP/SVP
 --------------------------

 --
 TD
 --
 Symbolic Z-matrix:
 Charge =  0 Multiplicity = 1

                         Standard orientation:
 ---------------------------------------------------------------------
 Center     Atomic      Atomic             Coordinates (Angstroms)
 Number     Number       Type             X           Y           Z
 ---------------------------------------------------------------------
      1          8           0       -3.188011   -1.996421   -2.593874
      2          8           0        3.156694    3.685961    2.641956
      3          8           0        3.566920    2.279610    4.337188
      4          8           0        7.739417   -1.862331   -0.487802
      5          8           0        6.627521   -3.390560   -1.722911
      6          8           0       -2.642965    1.920802    1.170620
      7          7           0       -0.245251   -2.143645    1.343241
      8          7           0       -2.642311   -1.277005   -0.412330
      9          7           0        1.184747    0.092916   -0.700121
     10          7           0       -1.012246    1.387844   -0.370331
     11          6           0       -3.363012   -1.118687    0.816797
     12          6           0       -2.622183   -1.951173    1.964350
     13          6           0       -1.231603   -1.605427    2.082368
     14          6           0       -0.605098   -0.688228    2.975400
     15          6           0        0.836573   -0.605031    2.725307
     16          6           0        0.978276   -1.502614    1.625381
     17          6           0       -4.741609   -1.749129    0.517991
     18          6           0        1.898174    0.310490    3.308421
     19          6           0       -4.754549   -2.156460   -0.705808
     20          6           0        2.084283   -1.666571    0.631419
     21          6           0        2.105825   -0.867030   -0.515326
     22          6           0       -3.487247   -1.843603   -1.372127
     23          6           0        3.023679   -0.942899   -1.576119
     24          6           0       -1.328117    0.272860    4.003099
     25          6           0       -5.654603   -1.963142    1.705982
     26          6           0        2.537391    0.122212   -2.460900
     27          6           0        1.830613    1.630029    2.660822
     28          6           0        1.328887    0.656399   -1.880158
     29          6           0        4.152512   -1.798974   -1.819192
     30          6           0       -5.638745   -3.135231   -1.483771
     31          6           0        5.501986   -1.379246   -1.060428
     32          6           0        3.151600    0.426786   -3.852988
     33          6           0        0.436176    1.660148   -2.290435
     34          6           0        2.972516    2.582765    3.302174
     35          6           0       -0.675054    1.997839   -1.606795
     36          6           0       -6.769535   -3.707975   -1.041545
     37          6           0        6.643847   -2.346928   -1.072655
     38          6           0       -1.527309    3.161838   -1.915259
     39          6           0       -2.474435    3.269142   -0.918356
     40          6           0       -2.092893    2.106950    0.070722
     41          6           0       -1.339318    4.028541   -3.066461
     42          6           0       -3.535547    4.261001   -0.561292
     43          6           0       -1.959664    5.156323   -3.449797
     44          1           0       -3.526578    0.023740    0.991557
     45          1           0       -2.712434   -3.022344    1.599969
     46          1           0       -3.184923   -1.820452    2.875371
     47          1           0       -0.239215   -2.626978    0.405665
     48          1           0       -1.888887   -0.734890   -0.783972
     49          1           0        1.967090    0.522951    4.296714
     50          1           0        2.981646   -0.083606    3.012905
     51          1           0        2.948912   -2.316474    1.052511
     52          1           0       -1.945923   -0.624937    4.520505
     53          1           0       -0.607967    0.758425    4.673748
     54          1           0       -1.896832    0.971259    3.347690
     55          1           0       -5.592500   -1.266995    2.487241
     56          1           0       -5.668966   -2.885393    2.223015
     57          1           0       -6.608036   -1.851117    1.241349
     58          1           0        2.063267    1.764382    1.527464
     59          1           0        0.975216    2.291401    2.726873
     60          1           0        0.363983    0.336247   -0.085238
     61          1           0        4.269403   -2.017370   -2.818498
     62          1           0        3.920251   -2.883549   -1.486527
     63          1           0       -5.173050   -3.204336   -2.570163
     64          1           0        4.970631   -1.382344   -0.005200
     65          1           0        5.706617   -0.568424   -1.582461
     66          1           0        4.060236   -0.070312   -4.097044
     67          1           0        3.526735    1.569371   -3.997375
     68          1           0        2.185624    0.388751   -4.636816
     69          1           0        0.571483    2.086859   -3.291031
     70          1           0       -7.116789   -3.666971   -0.031601
     71          1           0       -7.365182   -4.461790   -1.621550
     72          1           0        3.873436    4.202634    3.203334
     73          1           0       -0.508237    3.484883   -3.723957
     74          1           0       -4.230188    4.164663   -1.509906
     75          1           0       -4.210230    3.768616    0.261858
     76          1           0       -3.178915    5.214271   -0.373566
     77          1           0        8.468669   -2.402476   -0.790242
     78          1           0       -1.603262    5.417848   -4.324260
     79          1           0       -2.757159    5.717356   -2.947933
 ---------------------------------------------------------------------

 SCF Done:  E(RB3LYP) =  -1947.86667893     A.U. after   20 cycles

 Excitation energies and oscillator strengths:

 Excited State   1:      Singlet-A      1.0323 eV 1201.06 nm  f=0.0151  <S**2>=0.000
     155 ->156         0.70454
 This state for optimization and/or second-order correction.
 Total Energy, E(TD-HF/TD-DFT) =  -1947.82874307
 Copying the excited state density for this state as the 1-particle RhoCI density.

 The electronic state is 1-A.
 Alpha  occ. eigenvalues --  -19.20359 -19.20074 -19.13991 -19.12073 -19.10779
 Alpha  occ. eigenvalues --  -19.08170 -14.37840 -14.37361 -14.32965 -14.30570
 Alpha  occ. eigenvalues --  -10.33870 -10.31662 -10.27299 -10.26617 -10.26520
 Alpha  occ. eigenvalues --  -10.25787 -10.24481 -10.24264 -10.23821 -10.23816
 Alpha  occ. eigenvalues --  -10.23146 -10.22679 -10.22405 -10.21743 -10.21612
 Alpha  occ. eigenvalues --  -10.21451 -10.21197 -10.20707 -10.20620 -10.20517
 Alpha  occ. eigenvalues --  -10.20492 -10.20356 -10.20069 -10.19825 -10.19688
 Alpha  occ. eigenvalues --  -10.19609 -10.19124 -10.18888 -10.18542 -10.18455
 Alpha  occ. eigenvalues --  -10.18289 -10.18190 -10.17760  -1.12046  -1.10873
 Alpha  occ. eigenvalues --   -1.02610  -1.01655  -1.00855  -0.99666  -0.98757
 Alpha  occ. eigenvalues --   -0.96709  -0.91835  -0.91681  -0.84709  -0.82503
 Alpha  occ. eigenvalues --   -0.81085  -0.80884  -0.80514  -0.79194  -0.78549
 Alpha  occ. eigenvalues --   -0.76798  -0.75685  -0.75304  -0.74430  -0.72959
 Alpha  occ. eigenvalues --   -0.71499  -0.71215  -0.70418  -0.69489  -0.67500
 Alpha  occ. eigenvalues --   -0.66293  -0.65793  -0.63159  -0.62810  -0.61312
 Alpha  occ. eigenvalues --   -0.59661  -0.59157  -0.58663  -0.58207  -0.57718
 Alpha  occ. eigenvalues --   -0.57275  -0.55309  -0.54445  -0.53603  -0.52673
 Alpha  occ. eigenvalues --   -0.52335  -0.52050  -0.51422  -0.50752  -0.49780
 Alpha  occ. eigenvalues --   -0.49676  -0.49078  -0.48923  -0.48122  -0.47813
 Alpha  occ. eigenvalues --   -0.47730  -0.47305  -0.46961  -0.46013  -0.45687
 Alpha  occ. eigenvalues --   -0.45634  -0.45508  -0.45164  -0.44401  -0.44018
 Alpha  occ. eigenvalues --   -0.43978  -0.43749  -0.43378  -0.42897  -0.42114
 Alpha  occ. eigenvalues --   -0.41930  -0.41751  -0.41646  -0.41099  -0.40925
 Alpha  occ. eigenvalues --   -0.40877  -0.40257  -0.40193  -0.39866  -0.39437
 Alpha  occ. eigenvalues --   -0.39235  -0.39041  -0.38614  -0.38434  -0.38075
 Alpha  occ. eigenvalues --   -0.37769  -0.37580  -0.37477  -0.37231  -0.36144
 Alpha  occ. eigenvalues --   -0.35763  -0.35563  -0.35473  -0.34576  -0.34406
 Alpha  occ. eigenvalues --   -0.33905  -0.33811  -0.32423  -0.32172  -0.31321
 Alpha  occ. eigenvalues --   -0.30968  -0.30317  -0.29240  -0.29196  -0.28677
 Alpha  occ. eigenvalues --   -0.27590  -0.26765  -0.24941  -0.24444  -0.23732
 Alpha  occ. eigenvalues --   -0.23614  -0.23314  -0.23037  -0.22311  -0.19208
 Alpha virt. eigenvalues --   -0.13008  -0.07505  -0.03736  -0.02087  -0.01658
 Alpha virt. eigenvalues --    0.01130   0.01374   0.01756   0.02515   0.02781
 Alpha virt. eigenvalues --    0.03205   0.03928   0.04426   0.05182   0.05210

 Mulliken charges:
               1
     1  O   -0.297757
     2  O   -0.162668
     3  O   -0.267839
     4  O   -0.149745
     5  O   -0.240544
     6  O   -0.248224
     7  N   -0.066882
     8  N   -0.191798
     9  N   -0.010850
    10  N   -0.337320
    11  C    0.017900
    12  C    0.213259
    13  C   -0.045745
    14  C   -0.191349
    15  C   -0.016880
    16  C   -0.104281
    17  C   -0.194773
    18  C    0.173086
    19  C   -0.039610
    20  C   -0.149762
    21  C    0.117358
    22  C    0.135540
    23  C   -0.045922
    24  C    0.040616
    25  C    0.141600
    26  C   -0.123396
    27  C   -0.064880
    28  C    0.100882
    29  C    0.056169
    30  C    0.002143
    31  C    0.051014
    32  C    0.012121
    33  C   -0.132416
    34  C    0.104018
    35  C    0.156474
    36  C   -0.046181
    37  C    0.136924
    38  C    0.033603
    39  C   -0.220238
    40  C    0.165798
    41  C   -0.057233
    42  C    0.071379
    43  C    0.052145
    44  H    0.083441
    45  H   -0.011526
    46  H   -0.016219
    47  H    0.137478
    48  H    0.121135
    49  H   -0.010085
    50  H    0.009532
    51  H    0.056773
    52  H    0.034106
    53  H    0.013400
    54  H    0.070186
    55  H   -0.002050
    56  H    0.020730
    57  H    0.020390
    58  H    0.031488
    59  H    0.038042
    60  H    0.200747
    61  H   -0.005749
    62  H    0.023986
    63  H    0.049445
    64  H    0.070015
    65  H    0.003966
    66  H    0.022740
    67  H    0.040379
    68  H    0.069357
    69  H   -0.020471
    70  H    0.002323
    71  H    0.029088
    72  H    0.211354
    73  H    0.010722
    74  H    0.043677
    75  H    0.049886
    76  H    0.038996
    77  H    0.179520
    78  H   -0.017065
    79  H    0.024525
 Sum of Mulliken charges =  -0.00000

 Dipole moment (field-independent basis, Debye):
    X=              4.5814    Y=              2.8205    Z=             -1.3284  Tot=              5.5416
 Quadrupole moment (field-independent basis, Debye-Ang):
   XX=           -226.7899   YY=           -244.5534   ZZ=           -267.1249
   XY=              2.3287   XZ=            -24.2654   YZ=            -17.8203

 Normal termination of Gaussian 16 at Tue Jul 30 18:52:27 2019.
