 Gaussian 16, Revision A.03,
 Gaussian 16:  ES64L-G16RevA.03 25-Dec-2016

 --------------------------
 # td=(NStates=1) B3LYP/SVP
 --------------------------

 --
 TD
 --
 Symbolic Z-matrix:
 Charge =  0 Multiplicity = 1

                         Standard orientation:
 ---------------------------------------------------------------------
 Center     Atomic      Atomic             Coordinates (Angstroms)
 Number     Number       Type             X           Y           Z
 ---------------------------------------------------------------------
      1          8           0        5.481636    0.014088   -3.315296
      2          8           0       -3.047988   -2.977686    3.024540
      3          8           0       -3.260819   -0.763445    3.155270
      4          8           0       -1.611435    7.157113    1.595310
      5          8           0       -0.592955    7.000161   -0.427567
      6          8           0       -1.759009   -3.863596   -0.163561
      7          7           0        2.433456    0.825350    0.465647
      8          7           0        4.427134   -0.659129   -1.393622
      9          7           0       -1.998050    0.666817   -0.310985
     10          7           0       -2.631354   -1.787170   -0.718446
     11          6           0        4.802706   -1.246374    0.011608
     12          6           0        4.385342   -0.367394    1.094687
     13          6           0        3.042756   -0.116134    1.211417
     14          6           0        2.102333   -0.662689    2.067021
     15          6           0        0.770952   -0.165704    1.795214
     16          6           0        1.018427    0.814727    0.737788
     17          6           0        6.237874   -1.438751   -0.203490
     18          6           0       -0.452726   -0.267377    2.502883
     19          6           0        6.686975   -0.794452   -1.317630
     20          6           0        0.239318    1.845654    0.093389
     21          6           0       -1.075278    1.825642   -0.292296
     22          6           0        5.514001   -0.370676   -2.143141
     23          6           0       -1.853626    2.883247   -0.811763
     24          6           0        2.280590   -1.670223    3.209544
     25          6           0        7.090284   -2.061110    0.947800
     26          6           0       -3.176677    2.374394   -1.267399
     27          6           0       -1.036272   -1.706992    2.464830
     28          6           0       -3.096309    0.971223   -0.950180
     29          6           0       -1.542089    4.335221   -0.823110
     30          6           0        7.997516   -0.770281   -1.905806
     31          6           0       -1.774277    4.973359    0.517654
     32          6           0       -4.243883    3.084122   -1.966246
     33          6           0       -4.054387   -0.043690   -1.352825
     34          6           0       -2.511715   -1.679444    2.997495
     35          6           0       -3.858244   -1.396625   -1.230235
     36          6           0        9.201678   -0.778358   -1.241702
     37          6           0       -1.225325    6.476226    0.481155
     38          6           0       -4.739910   -2.532842   -1.428519
     39          6           0       -4.050982   -3.738777   -1.086958
     40          6           0       -2.701844   -3.184717   -0.498877
     41          6           0       -5.946956   -2.349419   -1.978674
     42          6           0       -4.418936   -5.092949   -1.055170
     43          6           0       -6.950016   -3.296925   -2.221665
     44          1           0        4.282592   -2.188641    0.022007
     45          1           0        4.958702    0.579124    0.951667
     46          1           0        4.789161   -0.591395    2.103568
     47          1           0        2.970746    1.158995   -0.480698
     48          1           0        3.498518   -0.686632   -1.791888
     49          1           0       -0.282852    0.068140    3.490604
     50          1           0       -1.397592    0.210312    2.063834
     51          1           0        0.982012    2.737404   -0.257286
     52          1           0        3.369517   -2.276128    3.194106
     53          1           0        1.886650   -0.992265    4.113710
     54          1           0        1.659323   -2.491547    2.851855
     55          1           0        6.450872   -2.730044    1.340695
     56          1           0        7.079986   -1.173974    1.690453
     57          1           0        8.115948   -2.427575    0.612806
     58          1           0       -1.083190   -1.946133    1.469082
     59          1           0       -0.494775   -2.562399    3.035230
     60          1           0       -1.609613   -0.289474   -0.325973
     61          1           0       -2.094413    4.941858   -1.649908
     62          1           0       -0.361567    4.489568   -0.961386
     63          1           0        7.952458   -0.357298   -2.887176
     64          1           0       -1.323059    4.407614    1.218779
     65          1           0       -2.957797    5.072868    0.674598
     66          1           0       -3.838805    4.121423   -2.280843
     67          1           0       -5.229657    3.220846   -1.453022
     68          1           0       -4.706825    2.592574   -2.775795
     69          1           0       -5.069855    0.179727   -1.537157
     70          1           0        9.049122   -0.813960   -0.336724
     71          1           0       10.042240   -0.673905   -1.906749
     72          1           0       -4.013934   -2.844520    3.274873
     73          1           0       -6.294362   -1.344098   -2.138403
     74          1           0       -5.383116   -5.447540   -0.633270
     75          1           0       -4.349329   -5.347102   -2.119879
     76          1           0       -3.807718   -5.730947   -0.560148
     77          1           0       -1.282959    7.928633    1.337537
     78          1           0       -8.081375   -3.418185   -2.718378
     79          1           0       -6.686592   -4.340965   -2.019243
 ---------------------------------------------------------------------

 SCF Done:  E(RB3LYP) =  -1947.79430861     A.U. after   19 cycles

 Excitation energies and oscillator strengths:

 Excited State   1:      Singlet-A      1.7974 eV  689.81 nm  f=0.1950  <S**2>=0.000
     154 ->156         0.28459
     155 ->156         0.64412
 This state for optimization and/or second-order correction.
 Total Energy, E(TD-HF/TD-DFT) =  -1947.72825693
 Copying the excited state density for this state as the 1-particle RhoCI density.

 The electronic state is 1-A.
 Alpha  occ. eigenvalues --  -19.19258 -19.16027 -19.14859 -19.12744 -19.10134
 Alpha  occ. eigenvalues --  -19.08840 -14.39616 -14.36350 -14.36198 -14.27202
 Alpha  occ. eigenvalues --  -10.33910 -10.31304 -10.28753 -10.26089 -10.25101
 Alpha  occ. eigenvalues --  -10.24717 -10.24618 -10.24590 -10.24255 -10.23228
 Alpha  occ. eigenvalues --  -10.22675 -10.22507 -10.22141 -10.22129 -10.22094
 Alpha  occ. eigenvalues --  -10.22022 -10.21981 -10.21500 -10.21471 -10.21207
 Alpha  occ. eigenvalues --  -10.20467 -10.20410 -10.20365 -10.20079 -10.19986
 Alpha  occ. eigenvalues --  -10.19750 -10.19731 -10.19678 -10.19107 -10.18722
 Alpha  occ. eigenvalues --  -10.18588 -10.17845 -10.17579  -1.12868  -1.07806
 Alpha  occ. eigenvalues --   -1.02420  -1.02197  -1.00166  -0.98798  -0.98608
 Alpha  occ. eigenvalues --   -0.97959  -0.93975  -0.89447  -0.84277  -0.83253
 Alpha  occ. eigenvalues --   -0.83082  -0.82457  -0.80549  -0.80162  -0.78408
 Alpha  occ. eigenvalues --   -0.77798  -0.77051  -0.76669  -0.74742  -0.72924
 Alpha  occ. eigenvalues --   -0.72645  -0.71293  -0.69851  -0.68587  -0.68121
 Alpha  occ. eigenvalues --   -0.67463  -0.67068  -0.63528  -0.62626  -0.60620
 Alpha  occ. eigenvalues --   -0.60355  -0.59191  -0.58566  -0.57337  -0.56858
 Alpha  occ. eigenvalues --   -0.55897  -0.55271  -0.54961  -0.54678  -0.53445
 Alpha  occ. eigenvalues --   -0.52751  -0.51687  -0.51463  -0.50664  -0.50346
 Alpha  occ. eigenvalues --   -0.50056  -0.49734  -0.49561  -0.48894  -0.48714
 Alpha  occ. eigenvalues --   -0.48472  -0.47611  -0.47180  -0.46655  -0.46156
 Alpha  occ. eigenvalues --   -0.45426  -0.45063  -0.44866  -0.44724  -0.44520
 Alpha  occ. eigenvalues --   -0.43784  -0.43586  -0.43283  -0.43198  -0.42869
 Alpha  occ. eigenvalues --   -0.42576  -0.42278  -0.41927  -0.41618  -0.41482
 Alpha  occ. eigenvalues --   -0.41387  -0.40845  -0.40749  -0.40294  -0.40060
 Alpha  occ. eigenvalues --   -0.39585  -0.39200  -0.38728  -0.38501  -0.38363
 Alpha  occ. eigenvalues --   -0.38102  -0.38015  -0.37582  -0.37507  -0.37185
 Alpha  occ. eigenvalues --   -0.36979  -0.36700  -0.36462  -0.36084  -0.34684
 Alpha  occ. eigenvalues --   -0.34131  -0.33880  -0.33076  -0.32596  -0.32252
 Alpha  occ. eigenvalues --   -0.31578  -0.31024  -0.30012  -0.28373  -0.27733
 Alpha  occ. eigenvalues --   -0.27318  -0.26281  -0.25830  -0.25429  -0.24971
 Alpha  occ. eigenvalues --   -0.24236  -0.23305  -0.22332  -0.20331  -0.18590
 Alpha virt. eigenvalues --   -0.11023  -0.07079  -0.06588  -0.01702  -0.01035
 Alpha virt. eigenvalues --    0.00029   0.00475   0.00682   0.01520   0.01840
 Alpha virt. eigenvalues --    0.03062   0.03350   0.04500   0.04757   0.05331

 Mulliken charges:
               1
     1  O   -0.241478
     2  O   -0.241105
     3  O   -0.208835
     4  O   -0.105561
     5  O   -0.234831
     6  O   -0.217914
     7  N   -0.149208
     8  N   -0.243380
     9  N   -0.060604
    10  N   -0.356994
    11  C    0.144451
    12  C    0.168569
    13  C   -0.026049
    14  C   -0.177847
    15  C   -0.027938
    16  C    0.034004
    17  C   -0.214842
    18  C    0.051406
    19  C   -0.061913
    20  C   -0.137719
    21  C    0.146232
    22  C    0.158883
    23  C   -0.068886
    24  C    0.032125
    25  C    0.119055
    26  C   -0.108774
    27  C   -0.018559
    28  C    0.112342
    29  C   -0.007277
    30  C   -0.053952
    31  C    0.024568
    32  C    0.106539
    33  C   -0.090960
    34  C    0.150412
    35  C    0.074030
    36  C    0.126337
    37  C    0.144843
    38  C    0.154197
    39  C   -0.174896
    40  C    0.155836
    41  C   -0.092684
    42  C    0.138369
    43  C   -0.101158
    44  H    0.011717
    45  H   -0.010898
    46  H    0.011067
    47  H    0.171269
    48  H    0.128917
    49  H    0.002011
    50  H    0.053019
    51  H    0.048719
    52  H    0.024570
    53  H    0.068268
    54  H    0.046161
    55  H   -0.014406
    56  H    0.049836
    57  H    0.067314
    58  H    0.040236
    59  H    0.052899
    60  H    0.159108
    61  H    0.042248
    62  H    0.030243
    63  H    0.004547
    64  H    0.010501
    65  H    0.060914
    66  H    0.025993
    67  H    0.018067
    68  H    0.002812
    69  H   -0.050449
    70  H   -0.081803
    71  H    0.035139
    72  H    0.187801
    73  H   -0.020833
    74  H    0.032087
    75  H    0.030207
    76  H   -0.022412
    77  H    0.112690
    78  H    0.057512
    79  H   -0.003908
 Sum of Mulliken charges =  -0.00000

 Dipole moment (field-independent basis, Debye):
    X=              1.8404    Y=              2.0427    Z=              4.2733  Tot=              5.0814
 Quadrupole moment (field-independent basis, Debye-Ang):
   XX=           -225.2236   YY=           -249.0118   ZZ=           -266.9703
   XY=            -11.7223   XZ=             30.9947   YZ=              0.6906

 Normal termination of Gaussian 16 at Fri Sep 27 21:45:41 2019.
