 Gaussian 16, Revision A.03,
 Gaussian 16:  ES64L-G16RevA.03 25-Dec-2016

 --------------------------
 # td=(NStates=1) B3LYP/SVP
 --------------------------

 --
 TD
 --
 Symbolic Z-matrix:
 Charge =  0 Multiplicity = 1

                         Standard orientation:
 ---------------------------------------------------------------------
 Center     Atomic      Atomic             Coordinates (Angstroms)
 Number     Number       Type             X           Y           Z
 ---------------------------------------------------------------------
      1          8           0        5.190300   -0.249950   -3.262674
      2          8           0       -3.067064   -2.896269    3.195215
      3          8           0       -3.526589   -0.688983    2.839322
      4          8           0       -1.715603    7.085836    1.486185
      5          8           0       -0.113169    6.837642   -0.267542
      6          8           0       -1.712068   -3.985547    0.004677
      7          7           0        2.346960    0.934411    0.691588
      8          7           0        4.301423   -0.453245   -1.144943
      9          7           0       -1.818419    0.702754   -0.384648
     10          7           0       -2.519800   -1.831317   -0.567315
     11          6           0        4.628086   -1.168414    0.029670
     12          6           0        4.414814   -0.320548    1.360094
     13          6           0        2.952361   -0.063863    1.512717
     14          6           0        1.917670   -0.663139    2.163863
     15          6           0        0.709959   -0.012176    1.832811
     16          6           0        0.918302    1.035442    0.905695
     17          6           0        6.222405   -1.372774   -0.181965
     18          6           0       -0.567217   -0.171801    2.608012
     19          6           0        6.588335   -1.051131   -1.430849
     20          6           0        0.149457    1.991656    0.186248
     21          6           0       -1.056931    1.838521   -0.466538
     22          6           0        5.314680   -0.577941   -2.120993
     23          6           0       -1.872825    2.819888   -0.941818
     24          6           0        2.142705   -1.775393    3.134191
     25          6           0        7.123257   -1.781724    0.938188
     26          6           0       -3.025689    2.324449   -1.473075
     27          6           0       -1.201555   -1.508399    2.562701
     28          6           0       -2.943561    0.933685   -1.198152
     29          6           0       -1.468242    4.176507   -0.987276
     30          6           0        7.818900   -0.992719   -2.085262
     31          6           0       -1.930111    5.030335    0.337492
     32          6           0       -4.058415    3.045903   -2.210825
     33          6           0       -3.812803   -0.102670   -1.475700
     34          6           0       -2.631369   -1.623467    2.931852
     35          6           0       -3.631753   -1.411030   -1.057476
     36          6           0        9.097750   -0.899319   -1.581695
     37          6           0       -1.112731    6.352790    0.425738
     38          6           0       -4.569139   -2.488883   -1.383361
     39          6           0       -3.885704   -3.632092   -0.979731
     40          6           0       -2.586695   -3.274099   -0.420401
     41          6           0       -5.922185   -2.371262   -2.089061
     42          6           0       -4.344040   -5.141382   -0.906866
     43          6           0       -6.735581   -3.323724   -2.507909
     44          1           0        3.996179   -2.055088    0.256967
     45          1           0        4.779384    0.495361    1.229727
     46          1           0        4.807315   -0.621590    2.235735
     47          1           0        2.946674    1.550555    0.049553
     48          1           0        3.420471   -0.681717   -1.598055
     49          1           0       -0.670537    0.328627    3.708067
     50          1           0       -1.319771    0.582273    2.113964
     51          1           0        0.734699    3.079038    0.326853
     52          1           0        3.257517   -2.037117    3.281695
     53          1           0        1.462804   -1.648197    4.149812
     54          1           0        1.616048   -2.815634    2.969596
     55          1           0        6.507779   -2.441178    1.566348
     56          1           0        7.421256   -0.982021    1.468010
     57          1           0        8.068171   -2.123678    0.519044
     58          1           0       -1.056238   -2.327836    1.815750
     59          1           0       -0.846947   -2.080894    3.494218
     60          1           0       -1.654770   -0.105550   -0.048400
     61          1           0       -1.792396    4.776634   -1.911135
     62          1           0       -0.303727    4.293369   -1.062249
     63          1           0        7.901253   -0.901809   -3.205383
     64          1           0       -1.730751    4.537794    1.285705
     65          1           0       -2.967667    5.441470    0.563474
     66          1           0       -3.713728    3.928499   -2.611032
     67          1           0       -4.965004    3.191655   -1.386850
     68          1           0       -4.486822    2.481697   -3.081266
     69          1           0       -4.740172    0.298725   -2.061666
     70          1           0        9.409354   -0.905787   -0.445983
     71          1           0        9.866382   -0.744714   -2.322547
     72          1           0       -4.018616   -2.626905    3.329674
     73          1           0       -6.108714   -1.214592   -2.263064
     74          1           0       -5.468454   -5.152955   -0.590776
     75          1           0       -4.158102   -5.641393   -1.979700
     76          1           0       -3.640255   -5.531904   -0.247009
     77          1           0       -0.993594    7.915741    1.451502
     78          1           0       -7.538668   -3.073410   -3.273045
     79          1           0       -6.490749   -4.404873   -2.433701
 ---------------------------------------------------------------------

 SCF Done:  E(RB3LYP) =  -1947.78687913     A.U. after   17 cycles

 Excitation energies and oscillator strengths:

 Excited State   1:      Singlet-A      1.9915 eV  622.56 nm  f=0.3875  <S**2>=0.000
     155 ->156         0.69028
     155 <-156        -0.11253
 This state for optimization and/or second-order correction.
 Total Energy, E(TD-HF/TD-DFT) =  -1947.71369192
 Copying the excited state density for this state as the 1-particle RhoCI density.

 The electronic state is 1-A.
 Alpha  occ. eigenvalues --  -19.19916 -19.17734 -19.14871 -19.11830 -19.11289
 Alpha  occ. eigenvalues --  -19.11177 -14.37529 -14.35436 -14.34929 -14.28131
 Alpha  occ. eigenvalues --  -10.34397 -10.31404 -10.28990 -10.26866 -10.25656
 Alpha  occ. eigenvalues --  -10.24228 -10.23789 -10.23427 -10.23186 -10.22866
 Alpha  occ. eigenvalues --  -10.22603 -10.22536 -10.22495 -10.22389 -10.21544
 Alpha  occ. eigenvalues --  -10.21454 -10.21430 -10.20921 -10.20834 -10.20713
 Alpha  occ. eigenvalues --  -10.20688 -10.20405 -10.20176 -10.20068 -10.20047
 Alpha  occ. eigenvalues --  -10.20026 -10.19929 -10.19855 -10.19601 -10.19368
 Alpha  occ. eigenvalues --  -10.19213 -10.19015 -10.18518  -1.07584  -1.06191
 Alpha  occ. eigenvalues --   -1.04505  -1.02939  -0.99546  -0.97468  -0.95795
 Alpha  occ. eigenvalues --   -0.95432  -0.94595  -0.92967  -0.84608  -0.83215
 Alpha  occ. eigenvalues --   -0.82265  -0.80951  -0.80561  -0.79102  -0.77623
 Alpha  occ. eigenvalues --   -0.77437  -0.76761  -0.76003  -0.74472  -0.73674
 Alpha  occ. eigenvalues --   -0.72405  -0.71297  -0.70190  -0.69282  -0.67739
 Alpha  occ. eigenvalues --   -0.66760  -0.66426  -0.64333  -0.61745  -0.60877
 Alpha  occ. eigenvalues --   -0.58725  -0.57935  -0.57811  -0.56876  -0.56581
 Alpha  occ. eigenvalues --   -0.55868  -0.55327  -0.54854  -0.54002  -0.52685
 Alpha  occ. eigenvalues --   -0.52218  -0.51742  -0.51407  -0.49852  -0.49361
 Alpha  occ. eigenvalues --   -0.49008  -0.48645  -0.48021  -0.47747  -0.47402
 Alpha  occ. eigenvalues --   -0.47193  -0.46714  -0.46388  -0.46218  -0.45871
 Alpha  occ. eigenvalues --   -0.45863  -0.44936  -0.44551  -0.44159  -0.43851
 Alpha  occ. eigenvalues --   -0.43625  -0.43527  -0.43263  -0.42650  -0.42558
 Alpha  occ. eigenvalues --   -0.42316  -0.42073  -0.41839  -0.41344  -0.40973
 Alpha  occ. eigenvalues --   -0.40662  -0.40479  -0.40353  -0.40183  -0.39882
 Alpha  occ. eigenvalues --   -0.39733  -0.39264  -0.39034  -0.38747  -0.38631
 Alpha  occ. eigenvalues --   -0.38534  -0.38368  -0.37930  -0.37490  -0.37196
 Alpha  occ. eigenvalues --   -0.35868  -0.35748  -0.35450  -0.35067  -0.34823
 Alpha  occ. eigenvalues --   -0.34673  -0.34109  -0.32652  -0.32240  -0.31070
 Alpha  occ. eigenvalues --   -0.30772  -0.29737  -0.29267  -0.28849  -0.28008
 Alpha  occ. eigenvalues --   -0.27898  -0.26394  -0.26325  -0.25912  -0.24561
 Alpha  occ. eigenvalues --   -0.23915  -0.23847  -0.23682  -0.22372  -0.19319
 Alpha virt. eigenvalues --   -0.11419  -0.06839  -0.06093  -0.03485  -0.00812
 Alpha virt. eigenvalues --   -0.00159   0.00298   0.00907   0.01725   0.02998
 Alpha virt. eigenvalues --    0.03199   0.03936   0.04136   0.04791   0.04947

 Mulliken charges:
               1
     1  O   -0.176875
     2  O   -0.198284
     3  O   -0.326898
     4  O   -0.280814
     5  O   -0.305488
     6  O   -0.178722
     7  N   -0.196642
     8  N   -0.168361
     9  N    0.015908
    10  N   -0.275309
    11  C    0.022890
    12  C    0.459675
    13  C   -0.159192
    14  C   -0.050940
    15  C   -0.051196
    16  C    0.087280
    17  C   -0.204670
    18  C   -0.010831
    19  C    0.055773
    20  C   -0.177679
    21  C    0.165667
    22  C    0.111650
    23  C   -0.018839
    24  C   -0.013485
    25  C    0.169013
    26  C   -0.099745
    27  C    0.032705
    28  C    0.081696
    29  C   -0.008104
    30  C   -0.074922
    31  C   -0.000159
    32  C    0.100575
    33  C   -0.152892
    34  C    0.133748
    35  C    0.126654
    36  C   -0.072088
    37  C    0.197694
    38  C   -0.002334
    39  C   -0.249824
    40  C    0.174999
    41  C    0.014952
    42  C    0.068622
    43  C   -0.051249
    44  H    0.032059
    45  H   -0.144523
    46  H   -0.038490
    47  H    0.138999
    48  H    0.132317
    49  H    0.036613
    50  H    0.024047
    51  H    0.057753
    52  H    0.024377
    53  H    0.025341
    54  H    0.033607
    55  H    0.024358
    56  H    0.000250
    57  H    0.025794
    58  H    0.083383
    59  H    0.019981
    60  H    0.039515
    61  H    0.034093
    62  H    0.048954
    63  H    0.027065
    64  H    0.046853
    65  H    0.060966
    66  H   -0.006468
    67  H    0.057874
    68  H    0.033669
    69  H   -0.006271
    70  H    0.034826
    71  H    0.027813
    72  H    0.184261
    73  H    0.014871
    74  H    0.051755
    75  H    0.047474
    76  H    0.014389
    77  H    0.229571
    78  H    0.038919
    79  H    0.030051
 Sum of Mulliken charges =  -0.00000

 Dipole moment (field-independent basis, Debye):
    X=              1.0548    Y=              2.1750    Z=              2.1303  Tot=              3.2220
 Quadrupole moment (field-independent basis, Debye-Ang):
   XX=           -220.2584   YY=           -252.9670   ZZ=           -257.9889
   XY=            -10.8235   XZ=             31.9975   YZ=              1.9733

 Normal termination of Gaussian 16 at Sat Sep 21 00:29:45 2019.
