 Gaussian 16, Revision A.03,
 Gaussian 16:  ES64L-G16RevA.03 25-Dec-2016

 --------------------------
 # td=(NStates=1) B3LYP/SVP
 --------------------------

 --
 TD
 --
 Symbolic Z-matrix:
 Charge =  0 Multiplicity = 1

                         Standard orientation:
 ---------------------------------------------------------------------
 Center     Atomic      Atomic             Coordinates (Angstroms)
 Number     Number       Type             X           Y           Z
 ---------------------------------------------------------------------
      1          8           0        5.003948   -0.116599   -3.258598
      2          8           0       -3.029029   -2.825721    3.351297
      3          8           0       -3.360907   -0.668178    2.783962
      4          8           0       -1.441621    7.148461    1.497243
      5          8           0       -0.305077    6.849842   -0.428946
      6          8           0       -1.797177   -3.920909    0.104306
      7          7           0        2.447899    0.866058    0.653483
      8          7           0        4.324259   -0.572581   -1.190184
      9          7           0       -1.808297    0.747651   -0.266445
     10          7           0       -2.641716   -1.911401   -0.551108
     11          6           0        4.709249   -1.274162    0.041992
     12          6           0        4.450227   -0.447551    1.228937
     13          6           0        2.952195   -0.086290    1.372962
     14          6           0        1.983972   -0.622857    2.230743
     15          6           0        0.796718    0.022089    1.891943
     16          6           0        1.041811    1.059131    0.838720
     17          6           0        6.194023   -1.579005   -0.290819
     18          6           0       -0.531982   -0.173368    2.636656
     19          6           0        6.488568   -0.980294   -1.487241
     20          6           0        0.329218    1.972586    0.122243
     21          6           0       -0.977355    1.885085   -0.329544
     22          6           0        5.288001   -0.499905   -2.164922
     23          6           0       -1.752005    2.933738   -0.977130
     24          6           0        2.079647   -1.807021    3.231442
     25          6           0        7.039935   -2.161337    0.863020
     26          6           0       -2.987430    2.421732   -1.323625
     27          6           0       -1.069843   -1.592176    2.421889
     28          6           0       -3.013263    0.981548   -0.978759
     29          6           0       -1.381149    4.370782   -0.933345
     30          6           0        7.857979   -0.931240   -2.099863
     31          6           0       -1.692721    4.934358    0.380786
     32          6           0       -4.225741    3.083843   -1.913770
     33          6           0       -3.917251   -0.002440   -1.495616
     34          6           0       -2.552636   -1.568403    2.848830
     35          6           0       -3.771671   -1.392492   -1.062264
     36          6           0        9.059170   -0.871264   -1.598199
     37          6           0       -0.999775    6.445502    0.453765
     38          6           0       -4.672793   -2.468978   -1.401711
     39          6           0       -4.062781   -3.678379   -0.946313
     40          6           0       -2.689779   -3.284645   -0.425146
     41          6           0       -5.949668   -2.345726   -2.108898
     42          6           0       -4.426641   -5.091452   -1.078085
     43          6           0       -6.859380   -3.262169   -2.572614
     44          1           0        4.141099   -2.162368    0.157083
     45          1           0        5.218758    0.474454    1.306918
     46          1           0        4.792533   -1.003148    2.085462
     47          1           0        2.869719    1.506457   -0.015817
     48          1           0        3.378614   -0.272818   -1.453787
     49          1           0       -0.564509    0.092037    3.684265
     50          1           0       -1.266584    0.596567    2.432253
     51          1           0        0.829006    3.080997    0.189295
     52          1           0        2.912729   -2.045551    3.484806
     53          1           0        1.369195   -1.543763    4.214082
     54          1           0        1.667425   -2.875006    2.505179
     55          1           0        6.387708   -2.948846    1.338219
     56          1           0        7.453322   -1.370291    1.474586
     57          1           0        8.034458   -2.577250    0.512913
     58          1           0       -0.883380   -1.978805    1.320017
     59          1           0       -0.597973   -2.296666    3.014840
     60          1           0       -1.589929   -0.233225   -0.091945
     61          1           0       -1.857597    4.937314   -1.931578
     62          1           0       -0.269360    4.592669   -1.216700
     63          1           0        7.839003   -0.923148   -3.075026
     64          1           0       -1.029577    4.445313    1.220460
     65          1           0       -2.900139    5.056780    0.671819
     66          1           0       -4.116785    4.153034   -2.203944
     67          1           0       -5.105396    2.835891   -1.211680
     68          1           0       -4.450751    2.561228   -2.825799
     69          1           0       -4.861029    0.159153   -1.709831
     70          1           0        9.304554   -0.989478   -0.531470
     71          1           0        9.892680   -0.781731   -2.233302
     72          1           0       -4.087875   -2.821497    3.422339
     73          1           0       -6.393981   -1.343046   -2.311536
     74          1           0       -5.282984   -5.548960   -0.338467
     75          1           0       -4.773929   -5.354485   -2.185111
     76          1           0       -3.609959   -5.743387   -0.828275
     77          1           0       -1.150150    8.126806    1.458784
     78          1           0       -7.765095   -2.941781   -2.975708
     79          1           0       -6.771017   -4.442124   -2.524073
 ---------------------------------------------------------------------

 SCF Done:  E(RB3LYP) =  -1947.82147465     A.U. after   18 cycles

 Excitation energies and oscillator strengths:

 Excited State   1:      Singlet-A      1.8807 eV  659.24 nm  f=0.2937  <S**2>=0.000
     154 ->156         0.27385
     155 ->156         0.64826
     155 <-156        -0.10470
 This state for optimization and/or second-order correction.
 Total Energy, E(TD-HF/TD-DFT) =  -1947.75236009
 Copying the excited state density for this state as the 1-particle RhoCI density.

 The electronic state is 1-A.
 Alpha  occ. eigenvalues --  -19.19926 -19.15058 -19.13763 -19.11571 -19.10545
 Alpha  occ. eigenvalues --  -19.09673 -14.39340 -14.36620 -14.34100 -14.27653
 Alpha  occ. eigenvalues --  -10.33009 -10.30648 -10.28000 -10.26105 -10.25432
 Alpha  occ. eigenvalues --  -10.24615 -10.24408 -10.24052 -10.23639 -10.23158
 Alpha  occ. eigenvalues --  -10.23063 -10.22953 -10.22551 -10.22537 -10.22210
 Alpha  occ. eigenvalues --  -10.21855 -10.21742 -10.21018 -10.20998 -10.20973
 Alpha  occ. eigenvalues --  -10.20604 -10.20570 -10.20383 -10.20280 -10.20197
 Alpha  occ. eigenvalues --  -10.19881 -10.19703 -10.19634 -10.19064 -10.19061
 Alpha  occ. eigenvalues --  -10.18940 -10.18871 -10.18621  -1.10575  -1.05022
 Alpha  occ. eigenvalues --   -1.03719  -1.02237  -1.01384  -1.00099  -0.96386
 Alpha  occ. eigenvalues --   -0.95959  -0.93711  -0.91289  -0.82620  -0.81932
 Alpha  occ. eigenvalues --   -0.81747  -0.81299  -0.79808  -0.78872  -0.77781
 Alpha  occ. eigenvalues --   -0.76709  -0.76288  -0.76169  -0.74244  -0.72474
 Alpha  occ. eigenvalues --   -0.71965  -0.70943  -0.69673  -0.68913  -0.67036
 Alpha  occ. eigenvalues --   -0.65977  -0.65760  -0.63539  -0.61184  -0.60642
 Alpha  occ. eigenvalues --   -0.60494  -0.58938  -0.58447  -0.58074  -0.56578
 Alpha  occ. eigenvalues --   -0.55945  -0.55439  -0.54848  -0.54303  -0.53078
 Alpha  occ. eigenvalues --   -0.51905  -0.51745  -0.51552  -0.49886  -0.49555
 Alpha  occ. eigenvalues --   -0.48846  -0.48663  -0.48430  -0.47936  -0.47217
 Alpha  occ. eigenvalues --   -0.46796  -0.46483  -0.46262  -0.45572  -0.45428
 Alpha  occ. eigenvalues --   -0.44916  -0.44294  -0.44138  -0.43870  -0.43758
 Alpha  occ. eigenvalues --   -0.43257  -0.43058  -0.42728  -0.42570  -0.42330
 Alpha  occ. eigenvalues --   -0.42044  -0.41839  -0.41702  -0.41242  -0.40992
 Alpha  occ. eigenvalues --   -0.40636  -0.40381  -0.39940  -0.39636  -0.39272
 Alpha  occ. eigenvalues --   -0.39208  -0.39013  -0.38784  -0.38603  -0.38420
 Alpha  occ. eigenvalues --   -0.38240  -0.37586  -0.37442  -0.37278  -0.37056
 Alpha  occ. eigenvalues --   -0.36357  -0.35450  -0.35062  -0.34309  -0.34221
 Alpha  occ. eigenvalues --   -0.34010  -0.33676  -0.32963  -0.32107  -0.31436
 Alpha  occ. eigenvalues --   -0.30393  -0.29642  -0.28767  -0.28193  -0.26418
 Alpha  occ. eigenvalues --   -0.26297  -0.26260  -0.25697  -0.25513  -0.25246
 Alpha  occ. eigenvalues --   -0.24946  -0.23958  -0.23355  -0.21229  -0.18943
 Alpha virt. eigenvalues --   -0.11313  -0.07084  -0.05806  -0.01042  -0.00063
 Alpha virt. eigenvalues --    0.00252   0.00445   0.01504   0.01902   0.02508
 Alpha virt. eigenvalues --    0.03648   0.03727   0.04012   0.04383   0.04769

 Mulliken charges:
               1
     1  O   -0.188678
     2  O   -0.299114
     3  O   -0.221172
     4  O   -0.195302
     5  O   -0.204893
     6  O   -0.194370
     7  N   -0.024510
     8  N   -0.236934
     9  N   -0.116790
    10  N   -0.292213
    11  C    0.138311
    12  C    0.156902
    13  C   -0.095466
    14  C   -0.124533
    15  C   -0.076014
    16  C    0.069171
    17  C   -0.164756
    18  C    0.061345
    19  C   -0.067118
    20  C   -0.149112
    21  C    0.094636
    22  C    0.141436
    23  C   -0.048092
    24  C    0.132597
    25  C    0.068228
    26  C   -0.133928
    27  C    0.009952
    28  C    0.092086
    29  C    0.000863
    30  C    0.063280
    31  C   -0.070427
    32  C    0.100404
    33  C    0.055895
    34  C    0.162392
    35  C    0.027741
    36  C   -0.012413
    37  C    0.124445
    38  C    0.083170
    39  C   -0.174740
    40  C    0.153107
    41  C   -0.048114
    42  C    0.011373
    43  C   -0.061978
    44  H    0.002790
    45  H    0.019559
    46  H   -0.020860
    47  H    0.117944
    48  H    0.121090
    49  H   -0.010571
    50  H    0.002834
    51  H    0.046793
    52  H   -0.094480
    53  H    0.062978
    54  H    0.062415
    55  H    0.046663
    56  H    0.039738
    57  H    0.034889
    58  H    0.110566
    59  H   -0.003899
    60  H    0.143414
    61  H    0.039729
    62  H    0.042241
    63  H   -0.053456
    64  H    0.060306
    65  H    0.079618
    66  H    0.021824
    67  H    0.043515
    68  H    0.022226
    69  H   -0.073595
    70  H   -0.000685
    71  H    0.014285
    72  H    0.215673
    73  H    0.000423
    74  H    0.042783
    75  H    0.047752
    76  H    0.017723
    77  H    0.209134
    78  H    0.006654
    79  H    0.035318
 Sum of Mulliken charges =  -0.00000

 Dipole moment (field-independent basis, Debye):
    X=              1.5789    Y=              3.5887    Z=              3.7640  Tot=              5.4350
 Quadrupole moment (field-independent basis, Debye-Ang):
   XX=           -212.7561   YY=           -235.7748   ZZ=           -265.4246
   XY=            -13.9797   XZ=             31.3358   YZ=              6.5228

 Normal termination of Gaussian 16 at Sun Sep 15 20:36:00 2019.
