 Gaussian 16, Revision A.03,
 Gaussian 16:  ES64L-G16RevA.03 25-Dec-2016

 --------------------------
 # td=(NStates=1) B3LYP/SVP
 --------------------------

 --
 TD
 --
 Symbolic Z-matrix:
 Charge =  0 Multiplicity = 1

                         Standard orientation:
 ---------------------------------------------------------------------
 Center     Atomic      Atomic             Coordinates (Angstroms)
 Number     Number       Type             X           Y           Z
 ---------------------------------------------------------------------
      1          8           0       -3.151114   -1.398338   -2.766788
      2          8           0        3.286176    3.142248    3.158593
      3          8           0        3.729102    1.354216    4.468000
      4          8           0        7.712376   -1.499405   -0.696935
      5          8           0        6.737107   -3.015223   -2.010647
      6          8           0       -2.579133    1.668333    1.425598
      7          7           0       -0.486236   -2.460637    1.030891
      8          7           0       -2.662592   -1.197326   -0.555834
      9          7           0        1.101593   -0.036611   -0.830825
     10          7           0       -1.040718    1.524501   -0.184358
     11          6           0       -3.360877   -1.274454    0.670315
     12          6           0       -2.741718   -2.354400    1.689797
     13          6           0       -1.319159   -1.970550    1.852933
     14          6           0       -0.681847   -1.139579    2.888125
     15          6           0        0.660302   -1.060731    2.441401
     16          6           0        0.910397   -1.804620    1.307883
     17          6           0       -4.748347   -1.679033    0.250271
     18          6           0        1.737342   -0.280951    3.146599
     19          6           0       -4.786243   -2.062008   -0.994170
     20          6           0        1.969926   -1.847566    0.312687
     21          6           0        2.013840   -0.969008   -0.734343
     22          6           0       -3.501503   -1.673796   -1.599668
     23          6           0        2.963349   -0.782878   -1.802797
     24          6           0       -1.336328   -0.389174    3.908756
     25          6           0       -5.798012   -1.972341    1.252244
     26          6           0        2.624598    0.342871   -2.494841
     27          6           0        1.916329    1.125517    2.751847
     28          6           0        1.427042    0.796583   -1.834082
     29          6           0        4.154241   -1.591159   -2.020827
     30          6           0       -5.837969   -2.464373   -1.948686
     31          6           0        5.354835   -1.338147   -1.115325
     32          6           0        3.230390    0.982097   -3.670933
     33          6           0        0.563619    1.838123   -2.088145
     34          6           0        3.097886    1.878521    3.524183
     35          6           0       -0.587882    2.280049   -1.290463
     36          6           0       -6.853873   -3.318502   -1.709270
     37          6           0        6.632726   -1.992652   -1.268881
     38          6           0       -1.341654    3.532270   -1.391449
     39          6           0       -2.326163    3.451575   -0.315706
     40          6           0       -1.975653    2.191693    0.429087
     41          6           0       -1.226116    4.577391   -2.365710
     42          6           0       -3.291687    4.452861    0.274469
     43          6           0       -1.895312    5.698940   -2.496043
     44          1           0       -3.483625   -0.337360    1.133587
     45          1           0       -2.931054   -3.266575    1.172890
     46          1           0       -2.989328   -2.105887    2.656011
     47          1           0       -0.544844   -2.755191    0.134965
     48          1           0       -2.065801   -0.519954   -0.757559
     49          1           0        1.495647   -0.386300    4.234416
     50          1           0        2.693219   -0.818339    3.166458
     51          1           0        2.792033   -2.557511    0.560164
     52          1           0       -1.831341   -1.216657    4.531561
     53          1           0       -0.585928    0.424310    4.342642
     54          1           0       -2.219021    0.198015    3.518108
     55          1           0       -5.722797   -1.280126    2.179679
     56          1           0       -5.733291   -3.071736    1.519372
     57          1           0       -6.777247   -1.915098    0.694577
     58          1           0        2.463688    1.086427    1.741364
     59          1           0        0.975729    1.596214    2.940209
     60          1           0        0.324237   -0.040801   -0.316259
     61          1           0        4.530412   -1.517325   -3.040163
     62          1           0        3.774612   -2.673862   -1.992079
     63          1           0       -5.818415   -2.070640   -2.892125
     64          1           0        4.946971   -1.129219   -0.003540
     65          1           0        5.384272   -0.253166   -1.443034
     66          1           0        4.168211    0.565917   -4.312990
     67          1           0        3.559543    2.157849   -3.411014
     68          1           0        2.295301    0.966460   -4.338170
     69          1           0        0.765044    2.514953   -2.816548
     70          1           0       -6.894267   -3.859632   -0.642406
     71          1           0       -7.654841   -3.619462   -2.333471
     72          1           0        3.955439    3.383801    3.747386
     73          1           0       -0.407119    4.370915   -3.206408
     74          1           0       -4.063030    4.658444   -0.418754
     75          1           0       -3.760663    3.928905    1.102146
     76          1           0       -2.694364    5.278802    0.558225
     77          1           0        8.457313   -2.028151   -1.078583
     78          1           0       -1.829180    6.379458   -3.295301
     79          1           0       -2.714829    5.992966   -1.832601
 ---------------------------------------------------------------------

 SCF Done:  E(RB3LYP) =  -1947.82327069     A.U. after   21 cycles

 Excitation energies and oscillator strengths:

 Excited State   1:      Singlet-A      0.5051 eV 2454.52 nm  f=0.0017  <S**2>=0.000
     155 ->156         0.70465
 This state for optimization and/or second-order correction.
 Total Energy, E(TD-HF/TD-DFT) =  -1947.80470762
 Copying the excited state density for this state as the 1-particle RhoCI density.

 The electronic state is 1-A.
 Alpha  occ. eigenvalues --  -19.20504 -19.19320 -19.12774 -19.12385 -19.10658
 Alpha  occ. eigenvalues --  -19.08405 -14.37518 -14.35527 -14.31517 -14.29520
 Alpha  occ. eigenvalues --  -10.33688 -10.32361 -10.26864 -10.26803 -10.26534
 Alpha  occ. eigenvalues --  -10.26059 -10.25010 -10.24757 -10.23592 -10.23492
 Alpha  occ. eigenvalues --  -10.22740 -10.22364 -10.22085 -10.21988 -10.21959
 Alpha  occ. eigenvalues --  -10.21585 -10.21261 -10.20786 -10.20734 -10.20684
 Alpha  occ. eigenvalues --  -10.20176 -10.19959 -10.19917 -10.19488 -10.19488
 Alpha  occ. eigenvalues --  -10.19157 -10.19032 -10.18805 -10.18644 -10.18383
 Alpha  occ. eigenvalues --  -10.17996 -10.17634 -10.16218  -1.11791  -1.11642
 Alpha  occ. eigenvalues --   -1.03736  -1.00085  -0.99862  -0.99222  -0.99077
 Alpha  occ. eigenvalues --   -0.96381  -0.92156  -0.91756  -0.86106  -0.83744
 Alpha  occ. eigenvalues --   -0.82020  -0.81239  -0.81185  -0.80154  -0.78413
 Alpha  occ. eigenvalues --   -0.76983  -0.76510  -0.76153  -0.75023  -0.74161
 Alpha  occ. eigenvalues --   -0.71749  -0.71371  -0.70924  -0.70371  -0.67613
 Alpha  occ. eigenvalues --   -0.67041  -0.66022  -0.63975  -0.62653  -0.61626
 Alpha  occ. eigenvalues --   -0.60691  -0.60084  -0.59830  -0.59138  -0.57525
 Alpha  occ. eigenvalues --   -0.57075  -0.56304  -0.54470  -0.53545  -0.53373
 Alpha  occ. eigenvalues --   -0.53020  -0.52169  -0.51874  -0.50581  -0.49972
 Alpha  occ. eigenvalues --   -0.49856  -0.49387  -0.49374  -0.49083  -0.48427
 Alpha  occ. eigenvalues --   -0.47942  -0.47635  -0.47427  -0.47119  -0.46202
 Alpha  occ. eigenvalues --   -0.45997  -0.45595  -0.45210  -0.45053  -0.44512
 Alpha  occ. eigenvalues --   -0.43907  -0.43243  -0.43046  -0.42767  -0.42625
 Alpha  occ. eigenvalues --   -0.42433  -0.41901  -0.41695  -0.41465  -0.41233
 Alpha  occ. eigenvalues --   -0.41097  -0.40871  -0.40500  -0.40258  -0.40005
 Alpha  occ. eigenvalues --   -0.39483  -0.38872  -0.38471  -0.38096  -0.37997
 Alpha  occ. eigenvalues --   -0.37741  -0.37593  -0.37465  -0.36756  -0.36415
 Alpha  occ. eigenvalues --   -0.35791  -0.35252  -0.34884  -0.34599  -0.34304
 Alpha  occ. eigenvalues --   -0.33842  -0.32817  -0.32694  -0.32243  -0.32109
 Alpha  occ. eigenvalues --   -0.31677  -0.29879  -0.28739  -0.28393  -0.28133
 Alpha  occ. eigenvalues --   -0.27405  -0.27173  -0.25123  -0.24623  -0.24251
 Alpha  occ. eigenvalues --   -0.23933  -0.23493  -0.22849  -0.21982  -0.17626
 Alpha virt. eigenvalues --   -0.13331  -0.08095  -0.03895  -0.02848  -0.01968
 Alpha virt. eigenvalues --   -0.00017   0.00790   0.01591   0.01886   0.03321
 Alpha virt. eigenvalues --    0.03979   0.04137   0.04768   0.05287   0.05474

 Mulliken charges:
               1
     1  O   -0.270809
     2  O   -0.114599
     3  O   -0.271782
     4  O   -0.146225
     5  O   -0.291250
     6  O   -0.269525
     7  N   -0.010968
     8  N   -0.148973
     9  N    0.103158
    10  N   -0.247875
    11  C    0.088380
    12  C    0.366137
    13  C   -0.178938
    14  C   -0.076948
    15  C   -0.053822
    16  C   -0.087401
    17  C   -0.208067
    18  C    0.037051
    19  C   -0.016203
    20  C   -0.137773
    21  C    0.087209
    22  C    0.137247
    23  C   -0.118617
    24  C    0.023965
    25  C    0.044836
    26  C   -0.029270
    27  C    0.068113
    28  C    0.125959
    29  C    0.121612
    30  C    0.029116
    31  C   -0.048035
    32  C   -0.053220
    33  C   -0.044779
    34  C    0.106297
    35  C    0.067606
    36  C   -0.057272
    37  C    0.174369
    38  C    0.061216
    39  C   -0.241573
    40  C    0.140881
    41  C   -0.035907
    42  C    0.159776
    43  C   -0.024922
    44  H    0.016795
    45  H   -0.034785
    46  H   -0.050453
    47  H    0.080799
    48  H    0.080270
    49  H    0.008475
    50  H   -0.012153
    51  H    0.022032
    52  H    0.023568
    53  H    0.027387
    54  H    0.044110
    55  H    0.039474
    56  H    0.045758
    57  H    0.035985
    58  H    0.036165
    59  H    0.045059
    60  H    0.100215
    61  H    0.000022
    62  H    0.027395
    63  H   -0.016392
    64  H    0.066072
    65  H    0.038681
    66  H    0.069795
    67  H    0.065005
    68  H    0.066126
    69  H   -0.087019
    70  H    0.024648
    71  H    0.017194
    72  H    0.147678
    73  H    0.013740
    74  H    0.022127
    75  H    0.020917
    76  H    0.037220
    77  H    0.201562
    78  H    0.011786
    79  H    0.006569
 Sum of Mulliken charges =  -0.00000

 Dipole moment (field-independent basis, Debye):
    X=              2.5811    Y=              3.5148    Z=             -2.1231  Tot=              4.8501
 Quadrupole moment (field-independent basis, Debye-Ang):
   XX=           -227.3434   YY=           -241.0079   ZZ=           -268.4581
   XY=             11.8307   XZ=            -19.8818   YZ=            -12.7197

 Normal termination of Gaussian 16 at Thu Jul 25 08:08:12 2019.
