 Gaussian 16, Revision A.03,
 Gaussian 16:  ES64L-G16RevA.03 25-Dec-2016

 --------------------------
 # td=(NStates=1) B3LYP/SVP
 --------------------------

 --
 TD
 --
 Symbolic Z-matrix:
 Charge =  0 Multiplicity = 1

                         Standard orientation:
 ---------------------------------------------------------------------
 Center     Atomic      Atomic             Coordinates (Angstroms)
 Number     Number       Type             X           Y           Z
 ---------------------------------------------------------------------
      1          8           0       -3.247086   -1.481592   -2.895366
      2          8           0        3.080606    3.233289    2.926365
      3          8           0        3.496980    1.642550    4.412067
      4          8           0        7.733663   -1.586151   -0.805637
      5          8           0        6.615533   -3.303632   -1.770084
      6          8           0       -2.573831    1.684022    1.493333
      7          7           0       -0.207141   -2.342065    0.929326
      8          7           0       -2.621007   -1.131355   -0.662648
      9          7           0        1.232053    0.227528   -0.686522
     10          7           0       -1.079849    1.552997   -0.249879
     11          6           0       -3.349843   -1.170203    0.610827
     12          6           0       -2.522202   -2.313320    1.651002
     13          6           0       -1.085919   -2.080305    1.818332
     14          6           0       -0.493659   -1.228325    2.821343
     15          6           0        0.845645   -1.088338    2.440638
     16          6           0        1.021409   -1.854183    1.317725
     17          6           0       -4.680380   -1.809904    0.338851
     18          6           0        1.825003   -0.301499    3.254289
     19          6           0       -4.767505   -2.138974   -1.018940
     20          6           0        2.145192   -1.795636    0.364857
     21          6           0        2.136055   -0.847154   -0.618045
     22          6           0       -3.497877   -1.587593   -1.673973
     23          6           0        3.002969   -0.686682   -1.809147
     24          6           0       -1.292083   -0.422202    3.757990
     25          6           0       -5.698197   -2.261079    1.317537
     26          6           0        2.549660    0.481699   -2.382018
     27          6           0        1.886732    1.096058    2.672338
     28          6           0        1.314759    0.956376   -1.749407
     29          6           0        4.114331   -1.541621   -2.178860
     30          6           0       -5.767983   -2.717400   -1.830184
     31          6           0        5.406763   -1.198686   -1.157092
     32          6           0        3.075075    1.125871   -3.614609
     33          6           0        0.444691    2.054205   -2.011283
     34          6           0        2.874942    2.019734    3.469120
     35          6           0       -0.608914    2.352215   -1.276735
     36          6           0       -6.922912   -3.445540   -1.515651
     37          6           0        6.587332   -2.166461   -1.188068
     38          6           0       -1.461374    3.511057   -1.264184
     39          6           0       -2.264133    3.427235   -0.251227
     40          6           0       -2.084744    2.086864    0.421548
     41          6           0       -1.369886    4.544866   -2.283841
     42          6           0       -3.366406    4.233750    0.245206
     43          6           0       -2.060518    5.681114   -2.472187
     44          1           0       -3.300964   -0.199432    1.147916
     45          1           0       -2.555961   -3.218368    1.075658
     46          1           0       -2.988187   -2.338681    2.666270
     47          1           0       -0.552633   -2.804906   -0.040489
     48          1           0       -1.921170   -0.511963   -0.771217
     49          1           0        1.405315   -0.118849    4.247570
     50          1           0        2.823720   -0.886165    3.175797
     51          1           0        2.968753   -2.586843    0.212448
     52          1           0       -2.252354   -1.102305    4.062434
     53          1           0       -0.623297   -0.135969    4.552959
     54          1           0       -1.762722    0.491603    3.263482
     55          1           0       -5.580368   -1.712334    2.226095
     56          1           0       -5.585402   -3.327053    1.612796
     57          1           0       -6.610376   -2.112319    1.020168
     58          1           0        2.079482    1.147629    1.721204
     59          1           0        0.791848    1.493091    2.644730
     60          1           0        0.250418    0.320361   -0.289845
     61          1           0        4.595753   -1.216420   -3.375082
     62          1           0        3.850517   -2.627972   -2.098142
     63          1           0       -5.614110   -2.613062   -2.932785
     64          1           0        4.965387   -1.006463   -0.122749
     65          1           0        5.779713   -0.196690   -1.279632
     66          1           0        4.311403    0.818647   -3.604542
     67          1           0        3.251339    2.346200   -3.567029
     68          1           0        2.520141    0.697134   -4.511104
     69          1           0        0.889454    2.720658   -2.849996
     70          1           0       -7.091897   -3.583833   -0.526995
     71          1           0       -7.600270   -4.249014   -2.145275
     72          1           0        3.790524    3.491622    3.419172
     73          1           0       -0.747849    4.387947   -3.223282
     74          1           0       -4.146179    4.383793   -0.618530
     75          1           0       -3.932253    3.755958    0.989158
     76          1           0       -3.032950    5.192619    0.771493
     77          1           0        8.383143   -2.224404   -1.116439
     78          1           0       -1.848583    6.154090   -3.611524
     79          1           0       -2.640839    6.218422   -1.558967
 ---------------------------------------------------------------------

 SCF Done:  E(RB3LYP) =  -1947.80338415     A.U. after   19 cycles

 Excitation energies and oscillator strengths:

 Excited State   1:      Singlet-A      0.8098 eV 1531.05 nm  f=0.0001  <S**2>=0.000
     155 ->156         0.70346
 This state for optimization and/or second-order correction.
 Total Energy, E(TD-HF/TD-DFT) =  -1947.77362453
 Copying the excited state density for this state as the 1-particle RhoCI density.

 The electronic state is 1-A.
 Alpha  occ. eigenvalues --  -19.20689 -19.17956 -19.14228 -19.12794 -19.11395
 Alpha  occ. eigenvalues --  -19.08628 -14.38795 -14.38310 -14.33543 -14.29808
 Alpha  occ. eigenvalues --  -10.34770 -10.31822 -10.27689 -10.27680 -10.27125
 Alpha  occ. eigenvalues --  -10.26860 -10.25906 -10.24711 -10.24630 -10.24590
 Alpha  occ. eigenvalues --  -10.24448 -10.24157 -10.23610 -10.23394 -10.21850
 Alpha  occ. eigenvalues --  -10.21844 -10.21361 -10.21081 -10.20728 -10.20042
 Alpha  occ. eigenvalues --  -10.19940 -10.19666 -10.19620 -10.19557 -10.19457
 Alpha  occ. eigenvalues --  -10.19420 -10.19370 -10.19224 -10.19121 -10.18292
 Alpha  occ. eigenvalues --  -10.17828 -10.17187 -10.15844  -1.11875  -1.11844
 Alpha  occ. eigenvalues --   -1.02808  -1.01894  -1.01755  -0.99510  -0.99465
 Alpha  occ. eigenvalues --   -0.99211  -0.94426  -0.91524  -0.85557  -0.83428
 Alpha  occ. eigenvalues --   -0.81578  -0.81437  -0.81248  -0.79658  -0.78826
 Alpha  occ. eigenvalues --   -0.76879  -0.76218  -0.75648  -0.75044  -0.73337
 Alpha  occ. eigenvalues --   -0.71421  -0.71014  -0.69970  -0.69726  -0.68122
 Alpha  occ. eigenvalues --   -0.66935  -0.66381  -0.64035  -0.62172  -0.61168
 Alpha  occ. eigenvalues --   -0.60690  -0.60119  -0.59261  -0.58093  -0.57163
 Alpha  occ. eigenvalues --   -0.56355  -0.56182  -0.55066  -0.54116  -0.52684
 Alpha  occ. eigenvalues --   -0.52362  -0.51974  -0.51561  -0.50644  -0.50218
 Alpha  occ. eigenvalues --   -0.50029  -0.49451  -0.48969  -0.48917  -0.48453
 Alpha  occ. eigenvalues --   -0.48334  -0.47657  -0.47023  -0.46917  -0.46212
 Alpha  occ. eigenvalues --   -0.45786  -0.45320  -0.44986  -0.44718  -0.44077
 Alpha  occ. eigenvalues --   -0.43888  -0.43357  -0.42875  -0.42689  -0.42312
 Alpha  occ. eigenvalues --   -0.42187  -0.42073  -0.41863  -0.41655  -0.41173
 Alpha  occ. eigenvalues --   -0.40835  -0.40627  -0.40447  -0.40375  -0.40109
 Alpha  occ. eigenvalues --   -0.40034  -0.39154  -0.39081  -0.38508  -0.38461
 Alpha  occ. eigenvalues --   -0.37743  -0.37706  -0.37475  -0.37178  -0.36656
 Alpha  occ. eigenvalues --   -0.36359  -0.35701  -0.35449  -0.34834  -0.34566
 Alpha  occ. eigenvalues --   -0.34321  -0.33337  -0.33097  -0.33020  -0.32464
 Alpha  occ. eigenvalues --   -0.31860  -0.30345  -0.29706  -0.29421  -0.28617
 Alpha  occ. eigenvalues --   -0.28173  -0.27815  -0.25241  -0.25056  -0.24460
 Alpha  occ. eigenvalues --   -0.23861  -0.23774  -0.22873  -0.21987  -0.18781
 Alpha virt. eigenvalues --   -0.13264  -0.07469  -0.05739  -0.03838  -0.01464
 Alpha virt. eigenvalues --   -0.00038   0.00744   0.01008   0.02259   0.02542
 Alpha virt. eigenvalues --    0.02978   0.03245   0.03652   0.04564   0.04712

 Mulliken charges:
               1
     1  O   -0.266285
     2  O   -0.124020
     3  O   -0.211591
     4  O   -0.151399
     5  O   -0.288941
     6  O   -0.254244
     7  N   -0.043529
     8  N   -0.175105
     9  N   -0.032417
    10  N   -0.320997
    11  C    0.055824
    12  C    0.166649
    13  C   -0.139831
    14  C   -0.140628
    15  C   -0.112186
    16  C   -0.011852
    17  C   -0.161489
    18  C    0.173686
    19  C   -0.008340
    20  C   -0.101667
    21  C    0.078832
    22  C    0.160438
    23  C   -0.001377
    24  C    0.053670
    25  C    0.188507
    26  C   -0.125614
    27  C   -0.005294
    28  C    0.023491
    29  C    0.000280
    30  C   -0.058622
    31  C   -0.032686
    32  C   -0.051904
    33  C   -0.119015
    34  C    0.130985
    35  C    0.179356
    36  C   -0.053449
    37  C    0.188997
    38  C    0.152002
    39  C   -0.232928
    40  C    0.167962
    41  C   -0.063155
    42  C    0.084503
    43  C   -0.118104
    44  H    0.069063
    45  H   -0.035670
    46  H    0.014105
    47  H    0.166764
    48  H    0.082018
    49  H    0.005105
    50  H    0.018918
    51  H    0.029163
    52  H    0.007063
    53  H   -0.004716
    54  H    0.067733
    55  H   -0.007722
    56  H    0.036788
    57  H   -0.012681
    58  H   -0.043999
    59  H    0.058250
    60  H    0.187857
    61  H    0.067728
    62  H    0.059906
    63  H    0.020040
    64  H    0.052980
    65  H    0.027051
    66  H    0.039938
    67  H    0.068031
    68  H    0.080285
    69  H    0.016124
    70  H   -0.030214
    71  H    0.057803
    72  H    0.127572
    73  H    0.004929
    74  H    0.044675
    75  H   -0.001855
    76  H    0.038297
    77  H    0.179451
    78  H    0.053813
    79  H    0.056894
 Sum of Mulliken charges =  -0.00000

 Dipole moment (field-independent basis, Debye):
    X=              4.5116    Y=              2.0631    Z=             -1.8019  Tot=              5.2781
 Quadrupole moment (field-independent basis, Debye-Ang):
   XX=           -236.2365   YY=           -247.5519   ZZ=           -272.5410
   XY=              9.9322   XZ=            -26.3350   YZ=            -13.1864

 Normal termination of Gaussian 16 at Thu Jul 25 01:52:06 2019.
