 Gaussian 16, Revision A.03,
 Gaussian 16:  ES64L-G16RevA.03 25-Dec-2016

 --------------------------
 # td=(NStates=1) B3LYP/SVP
 --------------------------

 --
 TD
 --
 Symbolic Z-matrix:
 Charge =  0 Multiplicity = 1

                         Standard orientation:
 ---------------------------------------------------------------------
 Center     Atomic      Atomic             Coordinates (Angstroms)
 Number     Number       Type             X           Y           Z
 ---------------------------------------------------------------------
      1          8           0        5.479178   -0.095326   -3.309105
      2          8           0       -3.012783   -2.753283    3.248635
      3          8           0       -3.282438   -0.526593    2.964097
      4          8           0       -1.821460    6.934219    1.498699
      5          8           0       -1.096258    7.009098   -0.701565
      6          8           0       -1.684152   -4.008174    0.220273
      7          7           0        2.292610    1.009922    0.547236
      8          7           0        4.452218   -0.470392   -1.334298
      9          7           0       -1.930260    0.577087   -0.517385
     10          7           0       -2.542362   -1.981944   -0.453475
     11          6           0        4.858212   -0.961049   -0.024287
     12          6           0        4.476812   -0.109835    1.183363
     13          6           0        2.899863    0.092525    1.328049
     14          6           0        1.953740   -0.518914    2.103572
     15          6           0        0.779720    0.201893    1.888975
     16          6           0        0.949672    1.158240    0.809908
     17          6           0        6.349798   -1.213092   -0.078373
     18          6           0       -0.525914   -0.031009    2.574318
     19          6           0        6.782860   -0.866580   -1.364725
     20          6           0        0.087806    2.013185    0.061542
     21          6           0       -1.113926    1.729284   -0.437714
     22          6           0        5.508461   -0.376814   -2.134258
     23          6           0       -2.010306    2.764852   -1.065098
     24          6           0        2.240276   -1.558458    3.082867
     25          6           0        7.098462   -1.701012    1.139963
     26          6           0       -3.151458    2.145939   -1.513268
     27          6           0       -1.172538   -1.443475    2.615728
     28          6           0       -3.060396    0.809862   -1.118426
     29          6           0       -1.737171    4.255339   -1.034086
     30          6           0        8.081931   -0.861070   -1.989786
     31          6           0       -1.812958    4.902848    0.354597
     32          6           0       -4.449678    2.769104   -1.915772
     33          6           0       -3.900894   -0.238439   -1.452448
     34          6           0       -2.549956   -1.479868    2.931406
     35          6           0       -3.700994   -1.652699   -1.009828
     36          6           0        9.306670   -0.923805   -1.367966
     37          6           0       -1.501981    6.449077    0.230301
     38          6           0       -4.567249   -2.759295   -1.392657
     39          6           0       -3.892066   -3.858553   -0.941082
     40          6           0       -2.602002   -3.425509   -0.332793
     41          6           0       -5.794289   -2.674986   -2.125746
     42          6           0       -4.078264   -5.321432   -0.990384
     43          6           0       -6.696687   -3.670850   -2.369867
     44          1           0        4.401917   -2.015416    0.261495
     45          1           0        5.011103    0.961037    1.122949
     46          1           0        4.887561   -0.430895    2.253144
     47          1           0        2.756677    1.369653   -0.164338
     48          1           0        3.478129   -0.596823   -1.710618
     49          1           0       -0.540898    0.416899    3.527242
     50          1           0       -1.298309    0.651291    2.145888
     51          1           0        0.380845    3.100053   -0.053386
     52          1           0        3.299698   -1.584932    3.434725
     53          1           0        1.774765   -1.365673    4.152819
     54          1           0        2.109673   -2.606773    2.747411
     55          1           0        6.506229   -2.411554    1.659843
     56          1           0        7.617565   -0.852905    1.689217
     57          1           0        8.030779   -2.177045    0.781750
     58          1           0       -0.804810   -1.985849    1.791048
     59          1           0       -0.582159   -1.788620    3.445075
     60          1           0       -1.624071   -0.407845   -0.325130
     61          1           0       -2.162483    4.961782   -1.636271
     62          1           0       -0.566311    4.281606   -1.396408
     63          1           0        8.116580   -0.856236   -3.131134
     64          1           0       -1.295199    4.492534    1.296249
     65          1           0       -2.975179    4.896211    0.735226
     66          1           0       -4.273415    3.979750   -1.733517
     67          1           0       -5.236764    2.466187   -1.205791
     68          1           0       -4.792587    2.520566   -2.889494
     69          1           0       -4.794423    0.099531   -1.868695
     70          1           0        9.342540   -1.011475   -0.317298
     71          1           0       10.211725   -0.982005   -2.068410
     72          1           0       -3.811703   -2.603551    3.492952
     73          1           0       -6.140838   -1.585793   -2.316377
     74          1           0       -5.054749   -5.683258   -0.648026
     75          1           0       -3.989714   -5.632112   -2.023855
     76          1           0       -3.495549   -5.844468   -0.266234
     77          1           0       -1.608404    7.838099    1.458439
     78          1           0       -7.400142   -3.153672   -2.917696
     79          1           0       -6.373540   -4.752969   -2.261786
 ---------------------------------------------------------------------

 SCF Done:  E(RB3LYP) =  -1947.89199416     A.U. after   16 cycles

 Excitation energies and oscillator strengths:

 Excited State   1:      Singlet-A      2.0124 eV  616.12 nm  f=0.3335  <S**2>=0.000
     153 ->156         0.10318
     155 ->156         0.69774
 This state for optimization and/or second-order correction.
 Total Energy, E(TD-HF/TD-DFT) =  -1947.81804161
 Copying the excited state density for this state as the 1-particle RhoCI density.

 The electronic state is 1-A.
 Alpha  occ. eigenvalues --  -19.18488 -19.15602 -19.15213 -19.11668 -19.11435
 Alpha  occ. eigenvalues --  -19.09427 -14.37174 -14.36675 -14.35655 -14.29081
 Alpha  occ. eigenvalues --  -10.33333 -10.30488 -10.28312 -10.26934 -10.25857
 Alpha  occ. eigenvalues --  -10.24268 -10.23667 -10.23632 -10.23121 -10.22669
 Alpha  occ. eigenvalues --  -10.22594 -10.22281 -10.22195 -10.21654 -10.21615
 Alpha  occ. eigenvalues --  -10.21472 -10.21425 -10.21099 -10.20940 -10.20785
 Alpha  occ. eigenvalues --  -10.20507 -10.20396 -10.20337 -10.19956 -10.19931
 Alpha  occ. eigenvalues --  -10.19905 -10.19889 -10.18629 -10.18611 -10.18348
 Alpha  occ. eigenvalues --  -10.17914 -10.17489 -10.17456  -1.11500  -1.09308
 Alpha  occ. eigenvalues --   -1.04315  -1.03081  -1.01971  -1.00439  -0.99438
 Alpha  occ. eigenvalues --   -0.99048  -0.94645  -0.92120  -0.82788  -0.82158
 Alpha  occ. eigenvalues --   -0.81847  -0.81521  -0.81058  -0.79017  -0.77823
 Alpha  occ. eigenvalues --   -0.77702  -0.77082  -0.75857  -0.74374  -0.72252
 Alpha  occ. eigenvalues --   -0.71472  -0.71305  -0.70575  -0.69193  -0.68352
 Alpha  occ. eigenvalues --   -0.67918  -0.65667  -0.63927  -0.61314  -0.60856
 Alpha  occ. eigenvalues --   -0.59800  -0.59449  -0.58297  -0.57539  -0.57105
 Alpha  occ. eigenvalues --   -0.56466  -0.56097  -0.55203  -0.54393  -0.53806
 Alpha  occ. eigenvalues --   -0.52063  -0.51706  -0.50618  -0.50572  -0.50308
 Alpha  occ. eigenvalues --   -0.49963  -0.48984  -0.48733  -0.48636  -0.47966
 Alpha  occ. eigenvalues --   -0.47396  -0.47096  -0.46817  -0.46523  -0.45986
 Alpha  occ. eigenvalues --   -0.45659  -0.45503  -0.44617  -0.44529  -0.43730
 Alpha  occ. eigenvalues --   -0.43567  -0.43409  -0.42757  -0.42638  -0.42192
 Alpha  occ. eigenvalues --   -0.41854  -0.41712  -0.41614  -0.41510  -0.41185
 Alpha  occ. eigenvalues --   -0.40993  -0.40506  -0.40257  -0.39902  -0.39709
 Alpha  occ. eigenvalues --   -0.39647  -0.39215  -0.39091  -0.38847  -0.38439
 Alpha  occ. eigenvalues --   -0.38296  -0.38033  -0.37747  -0.37115  -0.36554
 Alpha  occ. eigenvalues --   -0.36131  -0.36003  -0.35316  -0.35243  -0.34964
 Alpha  occ. eigenvalues --   -0.34874  -0.33765  -0.33641  -0.31417  -0.31364
 Alpha  occ. eigenvalues --   -0.31171  -0.30785  -0.30078  -0.29110  -0.28233
 Alpha  occ. eigenvalues --   -0.27384  -0.27122  -0.25865  -0.25172  -0.24731
 Alpha  occ. eigenvalues --   -0.24548  -0.23635  -0.23334  -0.22264  -0.19197
 Alpha virt. eigenvalues --   -0.10942  -0.06515  -0.05871  -0.01012  -0.00262
 Alpha virt. eigenvalues --    0.01093   0.01167   0.01563   0.02683   0.02824
 Alpha virt. eigenvalues --    0.04720   0.05095   0.05389   0.05601   0.05796

 Mulliken charges:
               1
     1  O   -0.214832
     2  O   -0.133230
     3  O   -0.220758
     4  O   -0.187429
     5  O   -0.149091
     6  O   -0.177752
     7  N    0.034845
     8  N   -0.149247
     9  N   -0.046935
    10  N   -0.302995
    11  C    0.073248
    12  C    0.056625
    13  C   -0.105397
    14  C   -0.083347
    15  C   -0.116427
    16  C    0.071144
    17  C   -0.165822
    18  C    0.053579
    19  C   -0.046910
    20  C   -0.170340
    21  C    0.165671
    22  C    0.113120
    23  C   -0.053681
    24  C    0.041551
    25  C    0.114652
    26  C   -0.103264
    27  C    0.086098
    28  C    0.048676
    29  C    0.081794
    30  C   -0.065188
    31  C   -0.121912
    32  C    0.063650
    33  C   -0.058811
    34  C    0.131554
    35  C    0.089071
    36  C   -0.017419
    37  C    0.141292
    38  C    0.079974
    39  C   -0.235315
    40  C    0.161176
    41  C   -0.105915
    42  C    0.129613
    43  C    0.031621
    44  H    0.034937
    45  H    0.016130
    46  H    0.039565
    47  H    0.046933
    48  H    0.156654
    49  H   -0.023403
    50  H   -0.006114
    51  H    0.018498
    52  H   -0.014879
    53  H    0.030993
    54  H    0.035875
    55  H    0.022852
    56  H    0.049182
    57  H    0.020992
    58  H    0.047666
    59  H    0.014508
    60  H    0.158674
    61  H   -0.010159
    62  H    0.035229
    63  H    0.029948
    64  H    0.068206
    65  H    0.057380
    66  H    0.034214
    67  H    0.038383
    68  H    0.023416
    69  H   -0.070899
    70  H   -0.009805
    71  H    0.045922
    72  H    0.096370
    73  H    0.014883
    74  H    0.008720
    75  H    0.034232
    76  H    0.016508
    77  H    0.146868
    78  H    0.013467
    79  H    0.041118
 Sum of Mulliken charges =  -0.00000

 Dipole moment (field-independent basis, Debye):
    X=             -0.2420    Y=              1.7080    Z=              2.8435  Tot=              3.3258
 Quadrupole moment (field-independent basis, Debye-Ang):
   XX=           -225.0099   YY=           -240.9256   ZZ=           -262.9892
   XY=             -7.5630   XZ=             34.9329   YZ=              7.7060

 Normal termination of Gaussian 16 at Wed Sep 18 19:02:33 2019.
