 Gaussian 16, Revision A.03,
 Gaussian 16:  ES64L-G16RevA.03 25-Dec-2016

 --------------------------
 # td=(NStates=1) B3LYP/SVP
 --------------------------

 --
 TD
 --
 Symbolic Z-matrix:
 Charge =  0 Multiplicity = 1

                         Standard orientation:
 ---------------------------------------------------------------------
 Center     Atomic      Atomic             Coordinates (Angstroms)
 Number     Number       Type             X           Y           Z
 ---------------------------------------------------------------------
      1          8           0        5.357310   -0.185435   -3.349279
      2          8           0       -2.846635   -2.946042    3.282663
      3          8           0       -3.249539   -0.714178    3.102305
      4          8           0       -1.866871    7.197719    1.346211
      5          8           0       -0.757407    6.949206   -0.608868
      6          8           0       -1.610001   -3.967282    0.101554
      7          7           0        2.306307    1.030486    0.530456
      8          7           0        4.428553   -0.610838   -1.204240
      9          7           0       -1.708360    0.633071   -0.432682
     10          7           0       -2.482958   -1.918696   -0.422446
     11          6           0        4.802276   -1.080820   -0.003763
     12          6           0        4.272234   -0.266588    1.264019
     13          6           0        2.902375   -0.011770    1.363358
     14          6           0        1.909345   -0.519596    2.165444
     15          6           0        0.662486    0.093300    1.791507
     16          6           0        0.924780    0.979680    0.773494
     17          6           0        6.295709   -1.072292   -0.121876
     18          6           0       -0.587135   -0.105809    2.591899
     19          6           0        6.660167   -0.781900   -1.407583
     20          6           0        0.105024    2.079390    0.133079
     21          6           0       -1.122918    1.843197   -0.365480
     22          6           0        5.474642   -0.516752   -2.204888
     23          6           0       -2.033360    2.818937   -0.933947
     24          6           0        2.143975   -1.614746    3.139839
     25          6           0        7.191784   -1.594003    1.120951
     26          6           0       -3.204944    2.223365   -1.262252
     27          6           0       -1.044325   -1.582995    2.597979
     28          6           0       -3.033735    0.877025   -1.001359
     29          6           0       -1.719610    4.368266   -1.064871
     30          6           0        8.010324   -0.676823   -2.022202
     31          6           0       -1.948943    5.025456    0.234763
     32          6           0       -4.481990    2.793090   -1.820073
     33          6           0       -3.859860   -0.225341   -1.308600
     34          6           0       -2.551370   -1.701511    2.931880
     35          6           0       -3.721113   -1.564200   -0.977265
     36          6           0        9.161833   -0.887396   -1.517831
     37          6           0       -1.490221    6.496681    0.348546
     38          6           0       -4.552254   -2.742215   -1.383746
     39          6           0       -3.798485   -3.830329   -1.069529
     40          6           0       -2.506172   -3.276202   -0.487618
     41          6           0       -5.853179   -2.583291   -2.020198
     42          6           0       -4.081192   -5.406583   -1.265015
     43          6           0       -6.524326   -3.574236   -2.565012
     44          1           0        4.418750   -2.125675    0.233086
     45          1           0        4.807961    0.653461    1.202257
     46          1           0        4.657119   -0.680426    2.201672
     47          1           0        2.624397    1.695446   -0.125941
     48          1           0        3.403596   -0.305985   -1.446230
     49          1           0       -0.535325    0.299151    3.536238
     50          1           0       -1.408123    0.531350    2.154622
     51          1           0        0.413860    2.929484   -0.188866
     52          1           0        3.211779   -1.953057    3.473085
     53          1           0        1.843416   -1.471661    4.135742
     54          1           0        1.615353   -2.617265    2.805845
     55          1           0        6.486374   -2.054177    1.860679
     56          1           0        7.734433   -0.514465    1.606254
     57          1           0        7.912367   -2.337328    0.770434
     58          1           0       -0.830420   -2.069447    1.784038
     59          1           0       -0.486213   -2.025319    3.435048
     60          1           0       -1.468144   -0.310782   -0.351598
     61          1           0       -2.445001    4.945065   -1.749294
     62          1           0       -0.622484    4.632273   -1.352185
     63          1           0        7.881868   -0.204615   -3.050077
     64          1           0       -1.487851    4.550540    1.078439
     65          1           0       -2.966141    4.914378    0.646020
     66          1           0       -4.322961    3.866227   -2.097879
     67          1           0       -5.363709    2.332604   -1.120036
     68          1           0       -4.632100    2.184058   -2.604613
     69          1           0       -4.868780    0.031063   -1.771461
     70          1           0        9.245799   -1.168991   -0.346836
     71          1           0       10.104911   -0.809828   -2.044385
     72          1           0       -3.642292   -3.058858    3.748841
     73          1           0       -6.237813   -1.442812   -1.978899
     74          1           0       -5.119535   -5.417213   -1.037366
     75          1           0       -4.167247   -5.646194   -2.305580
     76          1           0       -3.270098   -5.898005   -0.758983
     77          1           0       -1.308291    7.982806    1.225385
     78          1           0       -7.548730   -3.427069   -3.066726
     79          1           0       -6.061307   -4.516739   -2.716941
 ---------------------------------------------------------------------

 SCF Done:  E(RB3LYP) =  -1947.85282198     A.U. after   24 cycles

 Excitation energies and oscillator strengths:

 Excited State   1:      Singlet-A      2.0225 eV  613.03 nm  f=0.3613  <S**2>=0.000
     152 ->156         0.12590
     153 ->156         0.11338
     155 ->156         0.68643
     155 <-156        -0.11771
 This state for optimization and/or second-order correction.
 Total Energy, E(TD-HF/TD-DFT) =  -1947.77849762
 Copying the excited state density for this state as the 1-particle RhoCI density.

 The electronic state is 1-A.
 Alpha  occ. eigenvalues --  -19.22009 -19.16931 -19.12596 -19.10787 -19.10766
 Alpha  occ. eigenvalues --  -19.08872 -14.37324 -14.35852 -14.34480 -14.28927
 Alpha  occ. eigenvalues --  -10.33559 -10.30487 -10.28502 -10.25581 -10.25064
 Alpha  occ. eigenvalues --  -10.23986 -10.23968 -10.23506 -10.23267 -10.23148
 Alpha  occ. eigenvalues --  -10.22636 -10.22619 -10.22185 -10.22183 -10.21427
 Alpha  occ. eigenvalues --  -10.21403 -10.21306 -10.21055 -10.20754 -10.20639
 Alpha  occ. eigenvalues --  -10.20333 -10.20173 -10.20002 -10.19941 -10.19837
 Alpha  occ. eigenvalues --  -10.19769 -10.19369 -10.19179 -10.19136 -10.19055
 Alpha  occ. eigenvalues --  -10.18875 -10.17500 -10.16795  -1.14515  -1.08771
 Alpha  occ. eigenvalues --   -1.03422  -0.99108  -0.98578  -0.98437  -0.97872
 Alpha  occ. eigenvalues --   -0.96478  -0.95045  -0.90458  -0.83779  -0.82446
 Alpha  occ. eigenvalues --   -0.81421  -0.81089  -0.80763  -0.80162  -0.78765
 Alpha  occ. eigenvalues --   -0.76424  -0.75993  -0.75436  -0.74594  -0.73219
 Alpha  occ. eigenvalues --   -0.72079  -0.70899  -0.70335  -0.69495  -0.68404
 Alpha  occ. eigenvalues --   -0.67298  -0.66435  -0.64206  -0.62159  -0.61244
 Alpha  occ. eigenvalues --   -0.60340  -0.60210  -0.59130  -0.57541  -0.57087
 Alpha  occ. eigenvalues --   -0.56563  -0.55968  -0.55159  -0.53372  -0.53140
 Alpha  occ. eigenvalues --   -0.51700  -0.51578  -0.51082  -0.51013  -0.50721
 Alpha  occ. eigenvalues --   -0.50397  -0.48964  -0.48623  -0.48020  -0.47820
 Alpha  occ. eigenvalues --   -0.46954  -0.46559  -0.46391  -0.46189  -0.45552
 Alpha  occ. eigenvalues --   -0.45162  -0.44820  -0.44632  -0.44082  -0.43654
 Alpha  occ. eigenvalues --   -0.43166  -0.43034  -0.42716  -0.42639  -0.42399
 Alpha  occ. eigenvalues --   -0.42284  -0.42046  -0.41487  -0.41291  -0.41081
 Alpha  occ. eigenvalues --   -0.40908  -0.40543  -0.40409  -0.40076  -0.39998
 Alpha  occ. eigenvalues --   -0.39757  -0.39152  -0.38773  -0.38556  -0.38410
 Alpha  occ. eigenvalues --   -0.37430  -0.37036  -0.36837  -0.36727  -0.36399
 Alpha  occ. eigenvalues --   -0.36267  -0.35479  -0.35203  -0.35135  -0.34571
 Alpha  occ. eigenvalues --   -0.33583  -0.33496  -0.32212  -0.31923  -0.31488
 Alpha  occ. eigenvalues --   -0.31358  -0.30978  -0.28459  -0.28206  -0.27809
 Alpha  occ. eigenvalues --   -0.26501  -0.26421  -0.26197  -0.25534  -0.24489
 Alpha  occ. eigenvalues --   -0.24285  -0.23670  -0.23253  -0.22306  -0.19403
 Alpha virt. eigenvalues --   -0.11501  -0.06191  -0.05623  -0.01255  -0.00804
 Alpha virt. eigenvalues --    0.00741   0.01774   0.02007   0.02723   0.03042
 Alpha virt. eigenvalues --    0.03763   0.04345   0.04524   0.05031   0.05372

 Mulliken charges:
               1
     1  O   -0.185411
     2  O   -0.140293
     3  O   -0.246501
     4  O   -0.080924
     5  O   -0.323872
     6  O   -0.271397
     7  N   -0.147640
     8  N   -0.238799
     9  N   -0.057618
    10  N   -0.281655
    11  C    0.070771
    12  C    0.198082
    13  C   -0.020613
    14  C   -0.066666
    15  C   -0.087687
    16  C    0.043079
    17  C   -0.165093
    18  C    0.122837
    19  C   -0.076339
    20  C    0.037959
    21  C    0.086522
    22  C    0.174070
    23  C   -0.089613
    24  C    0.029066
    25  C    0.009495
    26  C   -0.131079
    27  C    0.056013
    28  C    0.111150
    29  C    0.070139
    30  C    0.029580
    31  C    0.004968
    32  C    0.172083
    33  C   -0.117280
    34  C    0.150391
    35  C    0.077454
    36  C   -0.060616
    37  C    0.128090
    38  C    0.046954
    39  C   -0.231756
    40  C    0.148416
    41  C   -0.024835
    42  C    0.153261
    43  C   -0.033333
    44  H    0.022918
    45  H   -0.035674
    46  H   -0.015573
    47  H    0.106226
    48  H    0.144090
    49  H   -0.020303
    50  H    0.008150
    51  H   -0.120528
    52  H    0.005844
    53  H   -0.000341
    54  H    0.059904
    55  H    0.034112
    56  H    0.068388
    57  H    0.058105
    58  H   -0.008291
    59  H    0.019079
    60  H    0.115240
    61  H    0.030544
    62  H    0.056710
    63  H    0.018134
    64  H    0.018404
    65  H    0.017175
    66  H    0.034520
    67  H    0.048189
    68  H   -0.004558
    69  H   -0.031726
    70  H    0.024425
    71  H    0.023730
    72  H    0.156436
    73  H    0.024968
    74  H    0.010212
    75  H    0.020039
    76  H    0.045107
    77  H    0.184691
    78  H    0.039310
    79  H    0.000980
 Sum of Mulliken charges =  -0.00000

 Dipole moment (field-independent basis, Debye):
    X=             -1.4540    Y=              3.1049    Z=              3.5905  Tot=              4.9645
 Quadrupole moment (field-independent basis, Debye-Ang):
   XX=           -222.9642   YY=           -242.3757   ZZ=           -257.1919
   XY=             -4.2178   XZ=             33.3636   YZ=              5.1876

 Normal termination of Gaussian 16 at Sun Sep 29 08:12:05 2019.
