 Gaussian 16, Revision A.03,
 Gaussian 16:  ES64L-G16RevA.03 25-Dec-2016

 --------------------------
 # td=(NStates=1) B3LYP/SVP
 --------------------------

 --
 TD
 --
 Symbolic Z-matrix:
 Charge =  0 Multiplicity = 1

                         Standard orientation:
 ---------------------------------------------------------------------
 Center     Atomic      Atomic             Coordinates (Angstroms)
 Number     Number       Type             X           Y           Z
 ---------------------------------------------------------------------
      1          8           0        5.281974   -0.261472   -3.260639
      2          8           0       -3.116689   -2.686138    3.291200
      3          8           0       -3.462602   -0.595302    2.998337
      4          8           0       -2.020023    7.371171    1.279926
      5          8           0       -0.546244    6.923427   -0.430753
      6          8           0       -1.670340   -4.038667    0.074425
      7          7           0        2.327202    1.032218    0.618669
      8          7           0        4.303561   -0.615647   -1.106670
      9          7           0       -1.717297    0.586287   -0.427322
     10          7           0       -2.586782   -1.934938   -0.441107
     11          6           0        4.848111   -1.145375    0.147695
     12          6           0        4.463092   -0.266009    1.386740
     13          6           0        2.956548    0.035323    1.419909
     14          6           0        1.885790   -0.596086    2.145679
     15          6           0        0.705577    0.029004    1.771733
     16          6           0        1.040147    1.028583    0.826492
     17          6           0        6.287449   -1.270811   -0.010322
     18          6           0       -0.597328   -0.127673    2.612619
     19          6           0        6.587876   -0.752655   -1.289795
     20          6           0        0.188898    2.029014    0.206352
     21          6           0       -1.098779    1.801034   -0.388477
     22          6           0        5.351639   -0.572125   -2.067009
     23          6           0       -1.905151    2.854056   -1.055838
     24          6           0        2.214701   -1.527025    3.272293
     25          6           0        7.175618   -1.725793    0.992572
     26          6           0       -3.124259    2.172632   -1.396158
     27          6           0       -1.234468   -1.577035    2.480700
     28          6           0       -2.963240    0.799123   -1.062332
     29          6           0       -1.532190    4.370831   -1.039836
     30          6           0        7.969513   -0.708455   -2.071437
     31          6           0       -2.046733    5.003587    0.167066
     32          6           0       -4.289204    2.936128   -2.010750
     33          6           0       -3.897570   -0.164593   -1.371807
     34          6           0       -2.726387   -1.524735    2.860601
     35          6           0       -3.641404   -1.579454   -1.140991
     36          6           0        9.156218   -0.832422   -1.627662
     37          6           0       -1.438209    6.544514    0.295714
     38          6           0       -4.480127   -2.719174   -1.527084
     39          6           0       -3.816134   -3.865395   -1.095051
     40          6           0       -2.555282   -3.357166   -0.380230
     41          6           0       -5.679031   -2.615223   -2.200986
     42          6           0       -4.205029   -5.350598   -0.987157
     43          6           0       -6.399173   -3.689821   -2.416976
     44          1           0        4.318706   -1.965669    0.059889
     45          1           0        5.094459    0.780454    1.466682
     46          1           0        4.592411   -1.017498    2.312519
     47          1           0        2.688598    1.422427   -0.171162
     48          1           0        3.380891   -0.794062   -1.352434
     49          1           0       -0.258242    0.130891    3.867259
     50          1           0       -1.450374    0.710024    2.355264
     51          1           0        0.957395    2.865713   -0.265065
     52          1           0        3.299387   -1.819763    3.278271
     53          1           0        1.874073   -0.931324    4.109972
     54          1           0        1.400594   -2.566525    3.266521
     55          1           0        6.659356   -2.284908    1.753432
     56          1           0        7.755009   -0.734894    1.509285
     57          1           0        7.836420   -2.470713    0.424436
     58          1           0       -0.961675   -1.909836    1.408058
     59          1           0       -0.785352   -2.179610    3.185910
     60          1           0       -1.408302   -0.387616   -0.360724
     61          1           0       -1.803616    4.698041   -2.000069
     62          1           0       -0.433315    4.393456   -1.032389
     63          1           0        7.596213   -0.606021   -3.299378
     64          1           0       -1.598077    4.748689    1.132296
     65          1           0       -3.085546    5.089023    0.380945
     66          1           0       -3.798086    3.902829   -2.566720
     67          1           0       -5.030528    3.386042   -1.250256
     68          1           0       -4.689152    2.072880   -2.690009
     69          1           0       -4.901582   -0.014177   -1.894119
     70          1           0        9.293777   -1.095942   -0.528559
     71          1           0       10.059566   -0.730598   -2.212608
     72          1           0       -4.091760   -2.714910    3.564685
     73          1           0       -5.871644   -1.771668   -2.536525
     74          1           0       -4.848050   -5.547028   -0.027984
     75          1           0       -4.642816   -5.771028   -1.867967
     76          1           0       -3.268002   -5.921769   -0.717552
     77          1           0       -1.731271    8.288427    0.849881
     78          1           0       -7.309323   -3.612077   -2.892839
     79          1           0       -6.064413   -4.638093   -2.061514
 ---------------------------------------------------------------------

 SCF Done:  E(RB3LYP) =  -1947.77861548     A.U. after   17 cycles

 Excitation energies and oscillator strengths:

 Excited State   1:      Singlet-A      1.8816 eV  658.94 nm  f=0.4385  <S**2>=0.000
     155 ->156         0.70343
     155 <-156        -0.13963
 This state for optimization and/or second-order correction.
 Total Energy, E(TD-HF/TD-DFT) =  -1947.70946886
 Copying the excited state density for this state as the 1-particle RhoCI density.

 The electronic state is 1-A.
 Alpha  occ. eigenvalues --  -19.19177 -19.16607 -19.14331 -19.11197 -19.10215
 Alpha  occ. eigenvalues --  -19.10025 -14.38009 -14.36781 -14.35100 -14.28937
 Alpha  occ. eigenvalues --  -10.33207 -10.29949 -10.28587 -10.26844 -10.24981
 Alpha  occ. eigenvalues --  -10.24687 -10.24543 -10.23806 -10.23402 -10.23129
 Alpha  occ. eigenvalues --  -10.22650 -10.22641 -10.22623 -10.22553 -10.22351
 Alpha  occ. eigenvalues --  -10.22130 -10.21857 -10.21832 -10.21537 -10.21248
 Alpha  occ. eigenvalues --  -10.21207 -10.20999 -10.20968 -10.19990 -10.19987
 Alpha  occ. eigenvalues --  -10.19951 -10.19557 -10.19356 -10.18968 -10.18927
 Alpha  occ. eigenvalues --  -10.18770 -10.17985 -10.17626  -1.09626  -1.08535
 Alpha  occ. eigenvalues --   -1.02386  -1.01389  -1.00388  -0.99938  -0.98608
 Alpha  occ. eigenvalues --   -0.97647  -0.94656  -0.92342  -0.82874  -0.82642
 Alpha  occ. eigenvalues --   -0.82286  -0.81695  -0.80681  -0.79024  -0.77562
 Alpha  occ. eigenvalues --   -0.77013  -0.75257  -0.75226  -0.74150  -0.72559
 Alpha  occ. eigenvalues --   -0.71913  -0.70662  -0.69889  -0.68823  -0.67918
 Alpha  occ. eigenvalues --   -0.65957  -0.65928  -0.63482  -0.61035  -0.60199
 Alpha  occ. eigenvalues --   -0.59893  -0.58651  -0.57905  -0.57585  -0.56620
 Alpha  occ. eigenvalues --   -0.56413  -0.55656  -0.54703  -0.53597  -0.52942
 Alpha  occ. eigenvalues --   -0.52249  -0.51731  -0.51139  -0.49929  -0.49738
 Alpha  occ. eigenvalues --   -0.49206  -0.48997  -0.48130  -0.47677  -0.47076
 Alpha  occ. eigenvalues --   -0.46929  -0.46547  -0.46034  -0.45747  -0.45366
 Alpha  occ. eigenvalues --   -0.45296  -0.44812  -0.44412  -0.44011  -0.43840
 Alpha  occ. eigenvalues --   -0.43385  -0.43280  -0.43216  -0.42988  -0.42847
 Alpha  occ. eigenvalues --   -0.42399  -0.42130  -0.42005  -0.41699  -0.41404
 Alpha  occ. eigenvalues --   -0.41152  -0.40493  -0.40246  -0.40017  -0.39498
 Alpha  occ. eigenvalues --   -0.39370  -0.39258  -0.38835  -0.38667  -0.38312
 Alpha  occ. eigenvalues --   -0.37897  -0.37520  -0.37147  -0.36941  -0.36503
 Alpha  occ. eigenvalues --   -0.35949  -0.35627  -0.34937  -0.34808  -0.34707
 Alpha  occ. eigenvalues --   -0.33682  -0.32961  -0.32334  -0.32116  -0.31639
 Alpha  occ. eigenvalues --   -0.30515  -0.30401  -0.28871  -0.28597  -0.28068
 Alpha  occ. eigenvalues --   -0.26569  -0.26275  -0.25738  -0.25457  -0.25062
 Alpha  occ. eigenvalues --   -0.24757  -0.24035  -0.23726  -0.21927  -0.18328
 Alpha virt. eigenvalues --   -0.11254  -0.06913  -0.05952  -0.00820  -0.00399
 Alpha virt. eigenvalues --    0.00564   0.01517   0.01847   0.02583   0.02756
 Alpha virt. eigenvalues --    0.03120   0.03564   0.03934   0.04737   0.05081

 Mulliken charges:
               1
     1  O   -0.244040
     2  O   -0.174737
     3  O   -0.222357
     4  O   -0.259351
     5  O   -0.221548
     6  O   -0.185074
     7  N    0.015100
     8  N   -0.242439
     9  N   -0.057944
    10  N   -0.297948
    11  C    0.237504
    12  C    0.111862
    13  C   -0.125508
    14  C   -0.093076
    15  C   -0.070830
    16  C   -0.045361
    17  C   -0.197826
    18  C   -0.088093
    19  C   -0.094540
    20  C   -0.109455
    21  C    0.086203
    22  C    0.172676
    23  C   -0.139973
    24  C    0.031300
    25  C    0.043645
    26  C   -0.140740
    27  C    0.020907
    28  C    0.194551
    29  C    0.210018
    30  C   -0.012667
    31  C    0.041312
    32  C    0.006760
    33  C   -0.152434
    34  C    0.114819
    35  C    0.027257
    36  C   -0.051838
    37  C    0.130969
    38  C    0.072012
    39  C   -0.216447
    40  C    0.156339
    41  C    0.061137
    42  C    0.064130
    43  C    0.090728
    44  H   -0.048447
    45  H    0.046765
    46  H    0.022213
    47  H    0.085510
    48  H    0.110539
    49  H    0.026080
    50  H    0.066207
    51  H    0.032382
    52  H    0.026586
    53  H    0.031491
    54  H    0.056412
    55  H    0.009998
    56  H    0.081182
    57  H    0.066004
    58  H    0.101316
    59  H    0.001670
    60  H    0.149547
    61  H    0.003385
    62  H    0.005685
    63  H    0.068763
    64  H    0.043731
    65  H    0.023362
    66  H    0.043456
    67  H    0.060959
    68  H    0.052068
    69  H    0.003813
    70  H    0.020013
    71  H    0.028097
    72  H    0.197442
    73  H   -0.156770
    74  H    0.046612
    75  H    0.034872
    76  H    0.029925
    77  H    0.213896
    78  H   -0.011952
    79  H   -0.017810
 Sum of Mulliken charges =  -0.00000

 Dipole moment (field-independent basis, Debye):
    X=             -0.5284    Y=              0.9016    Z=              2.3279  Tot=              2.5517
 Quadrupole moment (field-independent basis, Debye-Ang):
   XX=           -222.0716   YY=           -242.2733   ZZ=           -265.3600
   XY=             -9.6526   XZ=             34.6025   YZ=             -5.0613

 Normal termination of Gaussian 16 at Wed Oct  9 14:52:30 2019.
