 Gaussian 16, Revision A.03,
 Gaussian 16:  ES64L-G16RevA.03 25-Dec-2016

 --------------------------
 # td=(NStates=1) B3LYP/SVP
 --------------------------

 --
 TD
 --
 Symbolic Z-matrix:
 Charge =  0 Multiplicity = 1

                         Standard orientation:
 ---------------------------------------------------------------------
 Center     Atomic      Atomic             Coordinates (Angstroms)
 Number     Number       Type             X           Y           Z
 ---------------------------------------------------------------------
      1          8           0        5.477418    0.104536   -3.308854
      2          8           0       -3.020684   -3.114900    3.255688
      3          8           0       -3.391528   -0.919453    2.988442
      4          8           0       -1.654372    7.324443    1.442220
      5          8           0       -0.819376    7.086228   -0.595875
      6          8           0       -1.653607   -3.983806   -0.057726
      7          7           0        2.330810    0.969616    0.755735
      8          7           0        4.358792   -0.253840   -1.269646
      9          7           0       -1.746123    0.691760   -0.346114
     10          7           0       -2.540090   -1.969290   -0.603230
     11          6           0        4.818863   -1.087305   -0.107826
     12          6           0        4.460391   -0.374416    1.305120
     13          6           0        2.898422   -0.083331    1.422336
     14          6           0        1.935671   -0.744041    2.055470
     15          6           0        0.657729   -0.126157    1.837931
     16          6           0        1.006610    0.863216    0.938660
     17          6           0        6.392449   -1.243612   -0.158691
     18          6           0       -0.642514   -0.376964    2.590638
     19          6           0        6.660873   -0.830917   -1.426924
     20          6           0        0.155959    1.994189    0.345324
     21          6           0       -1.147891    1.871560   -0.166024
     22          6           0        5.439819   -0.188251   -2.193308
     23          6           0       -1.993099    2.977898   -0.700655
     24          6           0        2.166383   -1.899566    3.014221
     25          6           0        7.077913   -1.923762    0.839030
     26          6           0       -3.173086    2.401707   -1.211866
     27          6           0       -1.177130   -1.800309    2.516604
     28          6           0       -2.997436    0.903169   -0.995491
     29          6           0       -1.576826    4.385944   -0.769240
     30          6           0        7.979509   -0.858689   -2.077920
     31          6           0       -1.733508    5.129855    0.573556
     32          6           0       -4.282224    2.906417   -1.985624
     33          6           0       -3.868287   -0.097354   -1.372750
     34          6           0       -2.672274   -1.839746    2.899228
     35          6           0       -3.694358   -1.472587   -1.228063
     36          6           0        9.136636   -0.772368   -1.359403
     37          6           0       -1.404065    6.624271    0.397465
     38          6           0       -4.586737   -2.580396   -1.569001
     39          6           0       -3.839603   -3.824879   -1.122937
     40          6           0       -2.538285   -3.290139   -0.528140
     41          6           0       -5.878915   -2.378819   -2.195695
     42          6           0       -4.203664   -5.215502   -1.165127
     43          6           0       -6.689191   -3.300962   -2.513797
     44          1           0        4.318513   -1.940796   -0.091930
     45          1           0        5.059559    0.559992    1.236932
     46          1           0        4.878865   -0.905335    2.228047
     47          1           0        2.865740    1.650946    0.122562
     48          1           0        3.383000   -0.379935   -1.377571
     49          1           0       -0.430887   -0.198766    3.684480
     50          1           0       -1.361205    0.295472    2.074917
     51          1           0        0.612029    2.981447    0.406950
     52          1           0        3.208613   -2.083198    3.268967
     53          1           0        1.795860   -1.710181    3.999405
     54          1           0        1.746894   -2.720925    2.554917
     55          1           0        6.284338   -2.457738    1.707540
     56          1           0        7.589633   -1.076733    1.527893
     57          1           0        7.813451   -2.598791    0.515634
     58          1           0       -1.174013   -2.084840    1.352992
     59          1           0       -0.491694   -2.611659    3.129330
     60          1           0       -1.424019   -0.236361   -0.345884
     61          1           0       -2.275069    4.684369   -1.620261
     62          1           0       -0.520264    4.464267   -1.056301
     63          1           0        8.016103   -0.979367   -3.278147
     64          1           0       -1.013905    4.804293    1.360570
     65          1           0       -2.667061    4.974711    1.084461
     66          1           0       -4.186961    3.925810   -2.468408
     67          1           0       -5.039383    2.998597   -1.095771
     68          1           0       -4.764636    2.248372   -2.664946
     69          1           0       -5.039394   -0.091873   -1.718637
     70          1           0        9.188429   -0.598594   -0.108660
     71          1           0       10.117393   -1.198093   -1.934139
     72          1           0       -4.016478   -3.037072    3.299704
     73          1           0       -6.197120   -1.321227   -2.330053
     74          1           0       -5.296038   -5.266557   -0.743870
     75          1           0       -4.316247   -5.517417   -2.312820
     76          1           0       -3.543954   -6.082911   -0.705660
     77          1           0       -1.560078    8.271952    1.304653
     78          1           0       -7.627977   -2.894521   -3.344748
     79          1           0       -6.387389   -4.400359   -2.533124
 ---------------------------------------------------------------------

 SCF Done:  E(RB3LYP) =  -1947.81683094     A.U. after   24 cycles

 Excitation energies and oscillator strengths:

 Excited State   1:      Singlet-A      1.8067 eV  686.26 nm  f=0.0619  <S**2>=0.000
     154 ->156         0.54133
     155 ->156         0.44410
 This state for optimization and/or second-order correction.
 Total Energy, E(TD-HF/TD-DFT) =  -1947.75043762
 Copying the excited state density for this state as the 1-particle RhoCI density.

 The electronic state is 1-A.
 Alpha  occ. eigenvalues --  -19.20241 -19.16027 -19.12369 -19.11675 -19.11510
 Alpha  occ. eigenvalues --  -19.09187 -14.38066 -14.37357 -14.35333 -14.27434
 Alpha  occ. eigenvalues --  -10.32905 -10.29881 -10.29586 -10.26422 -10.25080
 Alpha  occ. eigenvalues --  -10.24837 -10.23895 -10.23473 -10.22731 -10.22678
 Alpha  occ. eigenvalues --  -10.22596 -10.22241 -10.22092 -10.22085 -10.22061
 Alpha  occ. eigenvalues --  -10.21914 -10.21724 -10.21712 -10.21589 -10.21540
 Alpha  occ. eigenvalues --  -10.21524 -10.21273 -10.21126 -10.20871 -10.20687
 Alpha  occ. eigenvalues --  -10.20343 -10.20207 -10.19806 -10.19189 -10.19026
 Alpha  occ. eigenvalues --  -10.18340 -10.17533 -10.17456  -1.12870  -1.08345
 Alpha  occ. eigenvalues --   -1.06372  -1.00589  -0.99985  -0.99731  -0.99281
 Alpha  occ. eigenvalues --   -0.98602  -0.93040  -0.90434  -0.83635  -0.82866
 Alpha  occ. eigenvalues --   -0.81313  -0.80621  -0.80594  -0.78638  -0.78043
 Alpha  occ. eigenvalues --   -0.76616  -0.75852  -0.75060  -0.74280  -0.73231
 Alpha  occ. eigenvalues --   -0.71247  -0.70821  -0.70066  -0.69788  -0.68255
 Alpha  occ. eigenvalues --   -0.65413  -0.65021  -0.63733  -0.62707  -0.60384
 Alpha  occ. eigenvalues --   -0.59795  -0.58297  -0.57529  -0.57138  -0.56962
 Alpha  occ. eigenvalues --   -0.55790  -0.55470  -0.54325  -0.53022  -0.52382
 Alpha  occ. eigenvalues --   -0.51589  -0.51371  -0.50838  -0.50468  -0.49491
 Alpha  occ. eigenvalues --   -0.49112  -0.48984  -0.48708  -0.47679  -0.47268
 Alpha  occ. eigenvalues --   -0.46951  -0.46728  -0.46315  -0.46114  -0.45503
 Alpha  occ. eigenvalues --   -0.45278  -0.45072  -0.44538  -0.44183  -0.43936
 Alpha  occ. eigenvalues --   -0.43369  -0.42964  -0.42930  -0.42827  -0.42638
 Alpha  occ. eigenvalues --   -0.42280  -0.41860  -0.41540  -0.41400  -0.41179
 Alpha  occ. eigenvalues --   -0.40865  -0.40857  -0.40025  -0.39831  -0.39668
 Alpha  occ. eigenvalues --   -0.39219  -0.38961  -0.38840  -0.38406  -0.38222
 Alpha  occ. eigenvalues --   -0.37677  -0.37288  -0.36942  -0.36831  -0.36506
 Alpha  occ. eigenvalues --   -0.36149  -0.35907  -0.35362  -0.34638  -0.33426
 Alpha  occ. eigenvalues --   -0.32944  -0.32600  -0.32453  -0.32105  -0.31385
 Alpha  occ. eigenvalues --   -0.31002  -0.30726  -0.28343  -0.28114  -0.27612
 Alpha  occ. eigenvalues --   -0.26912  -0.26332  -0.25988  -0.25749  -0.24306
 Alpha  occ. eigenvalues --   -0.23991  -0.23406  -0.22954  -0.20816  -0.19444
 Alpha virt. eigenvalues --   -0.11679  -0.06647  -0.05291  -0.00735  -0.00401
 Alpha virt. eigenvalues --    0.00432   0.02050   0.02421   0.02856   0.02908
 Alpha virt. eigenvalues --    0.03370   0.04287   0.04347   0.04596   0.04992

 Mulliken charges:
               1
     1  O   -0.125677
     2  O   -0.209008
     3  O   -0.189437
     4  O   -0.109740
     5  O   -0.266960
     6  O   -0.209196
     7  N   -0.070502
     8  N   -0.241276
     9  N   -0.024574
    10  N   -0.291542
    11  C    0.084437
    12  C    0.122692
    13  C   -0.089086
    14  C   -0.173178
    15  C   -0.088463
    16  C   -0.015104
    17  C   -0.049362
    18  C    0.153784
    19  C   -0.125805
    20  C   -0.101597
    21  C    0.105521
    22  C    0.192484
    23  C   -0.125973
    24  C    0.159275
    25  C    0.003731
    26  C   -0.089114
    27  C   -0.139560
    28  C    0.146899
    29  C    0.126684
    30  C   -0.039796
    31  C   -0.004863
    32  C    0.071561
    33  C   -0.110045
    34  C    0.138432
    35  C   -0.003594
    36  C   -0.127002
    37  C    0.110083
    38  C    0.049426
    39  C   -0.151758
    40  C    0.123590
    41  C    0.001034
    42  C   -0.031925
    43  C   -0.113067
    44  H   -0.016157
    45  H   -0.015465
    46  H    0.019946
    47  H    0.148448
    48  H    0.123238
    49  H    0.015635
    50  H    0.014657
    51  H   -0.007840
    52  H   -0.026852
    53  H    0.003524
    54  H    0.025157
    55  H    0.048730
    56  H    0.060280
    57  H    0.036453
    58  H    0.107366
    59  H    0.054752
    60  H    0.119823
    61  H    0.027470
    62  H    0.022038
    63  H    0.057367
    64  H    0.044105
    65  H    0.022288
    66  H    0.040775
    67  H    0.045746
    68  H    0.023813
    69  H    0.022215
    70  H    0.055001
    71  H    0.051703
    72  H    0.174651
    73  H   -0.002549
    74  H    0.053578
    75  H    0.055046
    76  H    0.066364
    77  H    0.186078
    78  H    0.038549
    79  H    0.031640
 Sum of Mulliken charges =  -0.00000

 Dipole moment (field-independent basis, Debye):
    X=             -0.6535    Y=              3.3465    Z=              2.4618  Tot=              4.2055
 Quadrupole moment (field-independent basis, Debye-Ang):
   XX=           -227.4519   YY=           -238.1858   ZZ=           -263.4360
   XY=            -19.4927   XZ=             31.5193   YZ=             12.6195

 Normal termination of Gaussian 16 at Thu Oct 10 12:35:11 2019.
