 Gaussian 16, Revision A.03,
 Gaussian 16:  ES64L-G16RevA.03 25-Dec-2016

 --------------------------
 # td=(NStates=1) B3LYP/SVP
 --------------------------

 --
 TD
 --
 Symbolic Z-matrix:
 Charge =  0 Multiplicity = 1

                         Standard orientation:
 ---------------------------------------------------------------------
 Center     Atomic      Atomic             Coordinates (Angstroms)
 Number     Number       Type             X           Y           Z
 ---------------------------------------------------------------------
      1          8           0        5.395995   -0.354377   -3.218021
      2          8           0       -3.157422   -2.701074    3.303522
      3          8           0       -3.423163   -0.440552    2.876681
      4          8           0       -1.506143    7.146332    1.420120
      5          8           0       -0.467996    6.938879   -0.567438
      6          8           0       -1.682941   -3.978389    0.119918
      7          7           0        2.374499    0.958470    0.526456
      8          7           0        4.415872   -0.692422   -1.227479
      9          7           0       -1.766625    0.635511   -0.491455
     10          7           0       -2.488187   -1.882193   -0.633952
     11          6           0        4.804979   -1.185460    0.070198
     12          6           0        4.409298   -0.296006    1.283976
     13          6           0        2.965137    0.003807    1.287698
     14          6           0        1.878697   -0.478532    2.123949
     15          6           0        0.696673    0.124663    1.824467
     16          6           0        0.964692    1.022084    0.707957
     17          6           0        6.308213   -1.461124   -0.095934
     18          6           0       -0.683989   -0.032069    2.537832
     19          6           0        6.752323   -0.964599   -1.258093
     20          6           0        0.241985    2.074650    0.065442
     21          6           0       -1.086396    1.838840   -0.497582
     22          6           0        5.466723   -0.632735   -2.017266
     23          6           0       -1.970880    2.830770   -1.072419
     24          6           0        2.074096   -1.501440    3.276466
     25          6           0        7.097735   -2.031327    1.033411
     26          6           0       -3.053002    2.251392   -1.496840
     27          6           0       -1.215833   -1.376202    2.674996
     28          6           0       -3.008801    0.852923   -1.061515
     29          6           0       -1.658744    4.286612   -1.080327
     30          6           0        8.056150   -0.897450   -1.985482
     31          6           0       -1.859311    5.151198    0.229108
     32          6           0       -4.379914    2.814209   -2.011258
     33          6           0       -3.979704   -0.144113   -1.299092
     34          6           0       -2.674089   -1.416652    2.957848
     35          6           0       -3.658562   -1.570555   -1.079187
     36          6           0        9.258474   -0.675925   -1.444119
     37          6           0       -1.202501    6.447488    0.294434
     38          6           0       -4.596739   -2.759137   -1.320681
     39          6           0       -3.822091   -3.817550   -0.991692
     40          6           0       -2.538774   -3.342347   -0.409967
     41          6           0       -5.953337   -2.522830   -1.873260
     42          6           0       -4.229556   -5.278248   -1.104659
     43          6           0       -6.799996   -3.557492   -2.349958
     44          1           0        4.076969   -2.089460    0.177299
     45          1           0        4.715481    0.786135    1.494487
     46          1           0        4.580175   -0.635759    2.302554
     47          1           0        2.797683    1.342666   -0.295892
     48          1           0        3.451811   -0.772909   -1.555801
     49          1           0       -0.783354    0.538501    3.636775
     50          1           0       -1.492697    0.554215    2.031326
     51          1           0        0.783968    2.974264   -0.350106
     52          1           0        2.991759   -1.965146    3.585019
     53          1           0        1.662145   -1.062588    4.313951
     54          1           0        1.544642   -2.459854    2.973224
     55          1           0        6.540509   -2.799221    1.561538
     56          1           0        7.079822   -1.246549    1.685570
     57          1           0        8.210169   -2.550659    0.798434
     58          1           0       -1.021241   -2.177489    1.850626
     59          1           0       -0.744078   -2.008925    3.347797
     60          1           0       -1.508981   -0.332359   -0.391440
     61          1           0       -2.243467    4.687681   -1.867824
     62          1           0       -0.702901    4.532770   -1.378009
     63          1           0        7.857443   -1.010790   -3.157473
     64          1           0       -1.518415    4.536303    1.078344
     65          1           0       -3.013921    5.405047    0.397460
     66          1           0       -4.350684    3.895332   -2.142662
     67          1           0       -5.046610    2.653722   -1.170696
     68          1           0       -4.639573    2.510996   -2.973203
     69          1           0       -4.713183    0.079763   -2.005583
     70          1           0        9.356935   -0.158262   -0.431707
     71          1           0       10.157626   -0.865630   -2.065498
     72          1           0       -4.197312   -2.605505    3.582274
     73          1           0       -6.251415   -1.484445   -2.010726
     74          1           0       -5.176361   -5.373364   -0.560341
     75          1           0       -4.370992   -5.466776   -2.246347
     76          1           0       -3.494962   -6.101802   -0.618934
     77          1           0       -1.050036    7.980931    1.373824
     78          1           0       -7.763925   -3.361156   -2.949985
     79          1           0       -6.356306   -4.512864   -2.222233
 ---------------------------------------------------------------------

 SCF Done:  E(RB3LYP) =  -1947.90589862     A.U. after   17 cycles

 Excitation energies and oscillator strengths:

 Excited State   1:      Singlet-A      1.9289 eV  642.78 nm  f=0.4221  <S**2>=0.000
     155 ->156         0.70219
     155 ->157         0.10707
     155 <-156        -0.11270
 This state for optimization and/or second-order correction.
 Total Energy, E(TD-HF/TD-DFT) =  -1947.83501408
 Copying the excited state density for this state as the 1-particle RhoCI density.

 The electronic state is 1-A.
 Alpha  occ. eigenvalues --  -19.18373 -19.17003 -19.12777 -19.11993 -19.11766
 Alpha  occ. eigenvalues --  -19.08721 -14.38572 -14.36132 -14.35709 -14.29283
 Alpha  occ. eigenvalues --  -10.32540 -10.31079 -10.27821 -10.27557 -10.26712
 Alpha  occ. eigenvalues --  -10.24032 -10.23725 -10.23303 -10.23278 -10.23134
 Alpha  occ. eigenvalues --  -10.22510 -10.22504 -10.22113 -10.21971 -10.21798
 Alpha  occ. eigenvalues --  -10.21260 -10.21128 -10.21032 -10.20909 -10.20768
 Alpha  occ. eigenvalues --  -10.20593 -10.20525 -10.20318 -10.20274 -10.20111
 Alpha  occ. eigenvalues --  -10.19946 -10.19789 -10.19655 -10.19579 -10.19572
 Alpha  occ. eigenvalues --  -10.19318 -10.18771 -10.18294  -1.09764  -1.05147
 Alpha  occ. eigenvalues --   -1.03816  -1.02384  -0.99872  -0.98344  -0.97707
 Alpha  occ. eigenvalues --   -0.97222  -0.94733  -0.92416  -0.83050  -0.82733
 Alpha  occ. eigenvalues --   -0.81495  -0.80930  -0.80388  -0.79287  -0.77857
 Alpha  occ. eigenvalues --   -0.77476  -0.76606  -0.75467  -0.74198  -0.72185
 Alpha  occ. eigenvalues --   -0.72078  -0.70443  -0.69706  -0.69041  -0.68641
 Alpha  occ. eigenvalues --   -0.66354  -0.66046  -0.63662  -0.61857  -0.60559
 Alpha  occ. eigenvalues --   -0.60218  -0.58583  -0.58362  -0.57815  -0.56856
 Alpha  occ. eigenvalues --   -0.56302  -0.55284  -0.54750  -0.53896  -0.52863
 Alpha  occ. eigenvalues --   -0.51511  -0.50779  -0.50417  -0.50376  -0.49584
 Alpha  occ. eigenvalues --   -0.49326  -0.49086  -0.48249  -0.48027  -0.47562
 Alpha  occ. eigenvalues --   -0.47266  -0.46458  -0.46108  -0.45907  -0.45657
 Alpha  occ. eigenvalues --   -0.45513  -0.45020  -0.44277  -0.44087  -0.43772
 Alpha  occ. eigenvalues --   -0.43415  -0.42953  -0.42486  -0.42410  -0.42243
 Alpha  occ. eigenvalues --   -0.41933  -0.41614  -0.41380  -0.41172  -0.40742
 Alpha  occ. eigenvalues --   -0.40554  -0.40373  -0.40101  -0.39970  -0.39582
 Alpha  occ. eigenvalues --   -0.39540  -0.39219  -0.38877  -0.38322  -0.38132
 Alpha  occ. eigenvalues --   -0.37809  -0.37624  -0.37279  -0.37158  -0.36820
 Alpha  occ. eigenvalues --   -0.36230  -0.35840  -0.35676  -0.35271  -0.35091
 Alpha  occ. eigenvalues --   -0.34787  -0.33806  -0.32400  -0.31045  -0.30937
 Alpha  occ. eigenvalues --   -0.30678  -0.30417  -0.28999  -0.28386  -0.28254
 Alpha  occ. eigenvalues --   -0.26988  -0.26700  -0.26371  -0.25738  -0.25146
 Alpha  occ. eigenvalues --   -0.24726  -0.24015  -0.23756  -0.22659  -0.17908
 Alpha virt. eigenvalues --   -0.10366  -0.06720  -0.05032  -0.01336  -0.00861
 Alpha virt. eigenvalues --    0.00615   0.00759   0.00883   0.03003   0.03560
 Alpha virt. eigenvalues --    0.03984   0.04120   0.04618   0.05155   0.05574

 Mulliken charges:
               1
     1  O   -0.254117
     2  O   -0.289050
     3  O   -0.247680
     4  O   -0.177227
     5  O   -0.250915
     6  O   -0.155661
     7  N   -0.075038
     8  N   -0.128551
     9  N   -0.057139
    10  N   -0.296062
    11  C    0.098428
    12  C    0.203580
    13  C   -0.174110
    14  C   -0.112875
    15  C   -0.022812
    16  C    0.040784
    17  C   -0.160209
    18  C    0.067351
    19  C   -0.055968
    20  C   -0.092286
    21  C    0.045126
    22  C    0.089817
    23  C   -0.069585
    24  C    0.015111
    25  C    0.098271
    26  C   -0.149185
    27  C    0.019016
    28  C    0.044639
    29  C    0.178511
    30  C   -0.033521
    31  C   -0.022294
    32  C    0.160195
    33  C   -0.045279
    34  C    0.159992
    35  C    0.021735
    36  C   -0.048455
    37  C    0.129031
    38  C    0.072989
    39  C   -0.219074
    40  C    0.175670
    41  C   -0.044234
    42  C    0.017009
    43  C   -0.011013
    44  H    0.034208
    45  H    0.021690
    46  H   -0.011294
    47  H    0.109613
    48  H    0.139386
    49  H    0.026692
    50  H    0.031271
    51  H    0.016869
    52  H   -0.005504
    53  H    0.042413
    54  H    0.037846
    55  H    0.005065
    56  H    0.009737
    57  H    0.069985
    58  H    0.068916
    59  H   -0.015282
    60  H    0.134098
    61  H   -0.015049
    62  H   -0.019822
    63  H    0.064118
    64  H    0.052407
    65  H    0.061535
    66  H   -0.012270
    67  H    0.039158
    68  H    0.011989
    69  H   -0.032317
    70  H    0.044159
    71  H    0.037937
    72  H    0.227858
    73  H    0.000616
    74  H    0.040056
    75  H    0.056566
    76  H    0.052123
    77  H    0.173469
    78  H    0.054782
    79  H    0.002065
 Sum of Mulliken charges =  -0.00000

 Dipole moment (field-independent basis, Debye):
    X=             -0.3408    Y=              0.5630    Z=              3.1699  Tot=              3.2375
 Quadrupole moment (field-independent basis, Debye-Ang):
   XX=           -219.8791   YY=           -247.7127   ZZ=           -260.1383
   XY=             -5.6803   XZ=             35.3861   YZ=              4.2542

 Normal termination of Gaussian 16 at Sat Sep 28 12:17:23 2019.
