 Gaussian 16, Revision A.03,
 Gaussian 16:  ES64L-G16RevA.03 25-Dec-2016

 --------------------------
 # td=(NStates=1) B3LYP/SVP
 --------------------------

 --
 TD
 --
 Symbolic Z-matrix:
 Charge =  0 Multiplicity = 1

                         Standard orientation:
 ---------------------------------------------------------------------
 Center     Atomic      Atomic             Coordinates (Angstroms)
 Number     Number       Type             X           Y           Z
 ---------------------------------------------------------------------
      1          8           0       -3.294912   -0.964632   -2.983445
      2          8           0        2.960716    2.752870    3.436487
      3          8           0        3.827302    0.762344    4.248362
      4          8           0        7.734871   -1.370925   -0.852067
      5          8           0        6.554891   -2.748370   -2.161030
      6          8           0       -2.739402    1.397050    1.540422
      7          7           0       -0.340430   -2.426631    0.547462
      8          7           0       -2.675881   -1.207368   -0.750805
      9          7           0        1.108985    0.118853   -0.753129
     10          7           0       -1.009736    1.462559   -0.041496
     11          6           0       -3.355866   -1.365581    0.547116
     12          6           0       -2.586219   -2.599546    1.383949
     13          6           0       -1.200689   -2.343808    1.565628
     14          6           0       -0.511104   -1.581862    2.567347
     15          6           0        0.793091   -1.527461    2.287047
     16          6           0        0.900522   -1.973179    0.948262
     17          6           0       -4.675324   -1.821261    0.099035
     18          6           0        1.956370   -0.814420    3.021873
     19          6           0       -4.773282   -1.755904   -1.325625
     20          6           0        1.986248   -1.985400   -0.034380
     21          6           0        2.165818   -0.827429   -0.870025
     22          6           0       -3.587268   -1.219568   -1.852696
     23          6           0        3.056740   -0.384449   -1.963108
     24          6           0       -1.129070   -1.058468    3.925019
     25          6           0       -5.771489   -2.264692    1.110462
     26          6           0        2.538951    0.812685   -2.407913
     27          6           0        1.958730    0.719562    2.676102
     28          6           0        1.320596    1.154692   -1.629798
     29          6           0        4.241006   -1.209585   -2.229050
     30          6           0       -5.886790   -2.149263   -2.216019
     31          6           0        5.399720   -0.992388   -1.158830
     32          6           0        3.149697    1.558684   -3.462130
     33          6           0        0.559641    2.253087   -1.817771
     34          6           0        3.004613    1.394004    3.623173
     35          6           0       -0.548292    2.470177   -0.933104
     36          6           0       -6.924397   -3.005603   -2.001889
     37          6           0        6.667326   -1.746699   -1.502119
     38          6           0       -1.407091    3.659037   -0.805549
     39          6           0       -2.316303    3.388667    0.196677
     40          6           0       -2.069214    2.011307    0.704105
     41          6           0       -1.192005    4.829238   -1.552457
     42          6           0       -3.442699    4.109889    0.782064
     43          6           0       -1.956130    5.892556   -1.473894
     44          1           0       -3.462246   -0.456355    1.146447
     45          1           0       -2.676360   -3.384137    0.783586
     46          1           0       -3.156387   -2.872099    2.240198
     47          1           0       -0.812770   -2.432386   -0.449429
     48          1           0       -2.263935   -0.286247   -0.723564
     49          1           0        1.841423   -1.051991    4.048134
     50          1           0        2.932588   -1.147925    2.656549
     51          1           0        2.541138   -2.964881    0.112396
     52          1           0       -1.949041   -1.678908    4.222096
     53          1           0       -0.518009   -0.912726    4.787690
     54          1           0       -1.785139   -0.136283    3.809912
     55          1           0       -5.515216   -1.671818    2.004748
     56          1           0       -5.481541   -3.264735    1.635143
     57          1           0       -6.923341   -1.996347    0.970642
     58          1           0        2.460758    1.181803    1.644159
     59          1           0        0.850735    1.039873    2.945998
     60          1           0        0.308862    0.135652   -0.188596
     61          1           0        4.566704   -0.848420   -3.107161
     62          1           0        4.197436   -2.361205   -2.506485
     63          1           0       -5.864340   -1.605742   -3.265487
     64          1           0        5.060196   -1.131614   -0.281490
     65          1           0        5.735690    0.073132   -0.997393
     66          1           0        4.265827    1.326120   -3.911018
     67          1           0        2.920096    2.855306   -3.280013
     68          1           0        2.459781    1.396507   -4.453886
     69          1           0        0.809055    3.203662   -2.378431
     70          1           0       -7.013224   -3.514725   -1.032737
     71          1           0       -7.656540   -3.117351   -2.849690
     72          1           0        3.754284    2.991864    4.044825
     73          1           0       -0.488719    4.724311   -2.337697
     74          1           0       -4.263711    4.484870    0.038397
     75          1           0       -4.195050    3.606934    1.368631
     76          1           0       -2.910619    5.138204    1.236575
     77          1           0        8.388288   -2.085637   -1.107503
     78          1           0       -1.778112    6.743694   -2.225993
     79          1           0       -2.501864    5.998891   -0.652620
 ---------------------------------------------------------------------

 SCF Done:  E(RB3LYP) =  -1947.79385406     A.U. after   19 cycles

 Excitation energies and oscillator strengths:

 Excited State   1:      Singlet-A      0.7653 eV 1620.03 nm  f=0.0004  <S**2>=0.000
     155 ->156         0.70332
 This state for optimization and/or second-order correction.
 Total Energy, E(TD-HF/TD-DFT) =  -1947.76572899
 Copying the excited state density for this state as the 1-particle RhoCI density.

 The electronic state is 1-A.
 Alpha  occ. eigenvalues --  -19.21049 -19.18831 -19.13360 -19.13170 -19.12104
 Alpha  occ. eigenvalues --  -19.09148 -14.37201 -14.35933 -14.31944 -14.30107
 Alpha  occ. eigenvalues --  -10.32992 -10.31732 -10.27745 -10.26678 -10.26122
 Alpha  occ. eigenvalues --  -10.25996 -10.25270 -10.24743 -10.23019 -10.22931
 Alpha  occ. eigenvalues --  -10.22627 -10.21862 -10.21742 -10.21649 -10.21358
 Alpha  occ. eigenvalues --  -10.21291 -10.21283 -10.21238 -10.21009 -10.20929
 Alpha  occ. eigenvalues --  -10.20768 -10.19942 -10.19707 -10.19421 -10.19404
 Alpha  occ. eigenvalues --  -10.18724 -10.18683 -10.18487 -10.18401 -10.18207
 Alpha  occ. eigenvalues --  -10.17120 -10.16409 -10.16321  -1.13021  -1.08760
 Alpha  occ. eigenvalues --   -1.02617  -1.02276  -1.02134  -1.00687  -0.98840
 Alpha  occ. eigenvalues --   -0.96635  -0.92110  -0.91554  -0.84278  -0.82471
 Alpha  occ. eigenvalues --   -0.81946  -0.79589  -0.79151  -0.79000  -0.78051
 Alpha  occ. eigenvalues --   -0.76742  -0.75535  -0.74597  -0.73927  -0.72706
 Alpha  occ. eigenvalues --   -0.71090  -0.70165  -0.69726  -0.68732  -0.66842
 Alpha  occ. eigenvalues --   -0.65895  -0.65599  -0.63550  -0.62334  -0.60927
 Alpha  occ. eigenvalues --   -0.59146  -0.58394  -0.58112  -0.56850  -0.56330
 Alpha  occ. eigenvalues --   -0.55992  -0.54812  -0.54443  -0.52868  -0.52770
 Alpha  occ. eigenvalues --   -0.52594  -0.51297  -0.50620  -0.50283  -0.49880
 Alpha  occ. eigenvalues --   -0.49331  -0.48799  -0.48704  -0.48464  -0.48286
 Alpha  occ. eigenvalues --   -0.47790  -0.46711  -0.46208  -0.45947  -0.45754
 Alpha  occ. eigenvalues --   -0.45368  -0.44815  -0.44416  -0.44257  -0.43755
 Alpha  occ. eigenvalues --   -0.43574  -0.43211  -0.42426  -0.42061  -0.41832
 Alpha  occ. eigenvalues --   -0.41198  -0.40929  -0.40857  -0.40665  -0.40549
 Alpha  occ. eigenvalues --   -0.40415  -0.40026  -0.39869  -0.39602  -0.39154
 Alpha  occ. eigenvalues --   -0.38910  -0.38556  -0.38295  -0.38164  -0.37793
 Alpha  occ. eigenvalues --   -0.37685  -0.37264  -0.37085  -0.36421  -0.36318
 Alpha  occ. eigenvalues --   -0.36115  -0.35713  -0.35304  -0.35055  -0.34662
 Alpha  occ. eigenvalues --   -0.34018  -0.33693  -0.32964  -0.32696  -0.32483
 Alpha  occ. eigenvalues --   -0.31944  -0.29322  -0.29237  -0.28488  -0.28197
 Alpha  occ. eigenvalues --   -0.27879  -0.26554  -0.26414  -0.25425  -0.24360
 Alpha  occ. eigenvalues --   -0.23336  -0.23068  -0.22295  -0.21855  -0.17862
 Alpha virt. eigenvalues --   -0.12561  -0.07721  -0.05312  -0.01872  -0.00628
 Alpha virt. eigenvalues --    0.00341   0.01584   0.01744   0.02532   0.02822
 Alpha virt. eigenvalues --    0.03614   0.03944   0.04187   0.04790   0.04962

 Mulliken charges:
               1
     1  O   -0.191968
     2  O   -0.215832
     3  O   -0.229983
     4  O   -0.140076
     5  O   -0.237575
     6  O   -0.222874
     7  N   -0.084896
     8  N   -0.249695
     9  N   -0.061060
    10  N   -0.372994
    11  C    0.022544
    12  C    0.292457
    13  C   -0.112465
    14  C   -0.120940
    15  C   -0.078556
    16  C   -0.092786
    17  C   -0.151895
    18  C    0.177054
    19  C   -0.044427
    20  C   -0.113719
    21  C    0.147776
    22  C    0.113534
    23  C   -0.058675
    24  C    0.097775
    25  C    0.045161
    26  C   -0.070130
    27  C   -0.114686
    28  C    0.218472
    29  C    0.135514
    30  C   -0.061344
    31  C    0.068598
    32  C   -0.101026
    33  C   -0.134899
    34  C    0.153058
    35  C    0.056304
    36  C   -0.037164
    37  C    0.125504
    38  C    0.104753
    39  C   -0.173237
    40  C    0.195627
    41  C   -0.034293
    42  C    0.012959
    43  C    0.053931
    44  H    0.073318
    45  H   -0.072682
    46  H   -0.023975
    47  H    0.169137
    48  H    0.141199
    49  H    0.004781
    50  H   -0.009339
    51  H    0.048371
    52  H   -0.028924
    53  H   -0.001224
    54  H    0.015260
    55  H    0.000319
    56  H    0.042450
    57  H    0.069410
    58  H    0.079218
    59  H    0.077802
    60  H    0.149807
    61  H   -0.054283
    62  H    0.071477
    63  H    0.030986
    64  H   -0.028494
    65  H    0.011948
    66  H    0.076348
    67  H    0.047561
    68  H    0.062460
    69  H    0.009278
    70  H    0.017915
    71  H    0.032796
    72  H    0.189029
    73  H   -0.035355
    74  H    0.037747
    75  H    0.025094
    76  H    0.064815
    77  H    0.194551
    78  H    0.037492
    79  H   -0.040123
 Sum of Mulliken charges =  -0.00000

 Dipole moment (field-independent basis, Debye):
    X=              3.5174    Y=              3.7351    Z=             -0.1546  Tot=              5.1330
 Quadrupole moment (field-independent basis, Debye-Ang):
   XX=           -224.1868   YY=           -238.5179   ZZ=           -264.3652
   XY=              3.6206   XZ=            -22.7372   YZ=            -10.1810

 Normal termination of Gaussian 16 at Wed Jul 24 23:17:26 2019.
