 Gaussian 16, Revision A.03,
 Gaussian 16:  ES64L-G16RevA.03 25-Dec-2016

 --------------------------
 # td=(NStates=1) B3LYP/SVP
 --------------------------

 --
 TD
 --
 Symbolic Z-matrix:
 Charge =  0 Multiplicity = 1

                         Standard orientation:
 ---------------------------------------------------------------------
 Center     Atomic      Atomic             Coordinates (Angstroms)
 Number     Number       Type             X           Y           Z
 ---------------------------------------------------------------------
      1          8           0       -3.271840   -1.210041   -2.956722
      2          8           0        3.112807    2.745128    3.341227
      3          8           0        3.827273    0.905568    4.300538
      4          8           0        7.718452   -1.415442   -0.796929
      5          8           0        6.792093   -2.740982   -2.317884
      6          8           0       -2.566989    1.586383    1.618883
      7          7           0       -0.327918   -2.368115    0.664140
      8          7           0       -2.761545   -1.055254   -0.696967
      9          7           0        1.219885    0.288931   -0.678140
     10          7           0       -0.870867    1.482681   -0.063791
     11          6           0       -3.478067   -1.374360    0.576991
     12          6           0       -2.781221   -2.471269    1.493455
     13          6           0       -1.226643   -2.156494    1.656179
     14          6           0       -0.503529   -1.608314    2.688251
     15          6           0        0.766784   -1.338490    2.321486
     16          6           0        0.904301   -1.952374    0.998298
     17          6           0       -4.768533   -1.825686    0.131996
     18          6           0        1.879453   -0.766806    3.125087
     19          6           0       -4.837087   -1.957329   -1.173304
     20          6           0        2.068833   -1.920229    0.093513
     21          6           0        2.075363   -0.758244   -0.727372
     22          6           0       -3.524055   -1.296970   -1.805167
     23          6           0        3.008125   -0.463214   -1.797761
     24          6           0       -1.295504   -0.837618    3.829361
     25          6           0       -5.924535   -2.094975    1.075117
     26          6           0        2.618651    0.679807   -2.434655
     27          6           0        1.920710    0.700038    2.848146
     28          6           0        1.360044    1.009763   -1.759002
     29          6           0        4.199871   -1.362349   -2.040671
     30          6           0       -5.886413   -2.355490   -2.137783
     31          6           0        5.336770   -1.173856   -1.183980
     32          6           0        3.152907    1.381594   -3.678831
     33          6           0        0.555790    2.142536   -1.922138
     34          6           0        3.147639    1.468202    3.535797
     35          6           0       -0.435942    2.428300   -0.910758
     36          6           0       -6.968761   -3.186828   -1.913387
     37          6           0        6.671428   -1.854589   -1.577107
     38          6           0       -1.386564    3.598088   -0.934307
     39          6           0       -2.249313    3.440592    0.171702
     40          6           0       -1.871207    2.022255    0.728749
     41          6           0       -1.202822    4.840005   -1.927750
     42          6           0       -3.479112    4.232312    0.688519
     43          6           0       -2.118295    5.874703   -1.966141
     44          1           0       -3.452486   -0.386663    1.056799
     45          1           0       -2.855179   -3.519188    1.064380
     46          1           0       -3.237310   -2.419431    2.518164
     47          1           0       -0.302099   -2.876575   -0.331599
     48          1           0       -2.058581   -0.183810   -0.697345
     49          1           0        1.778341   -1.092828    4.174613
     50          1           0        2.684802   -1.313786    2.899199
     51          1           0        2.614513   -2.817772    0.014080
     52          1           0       -2.052513   -1.133596    4.617134
     53          1           0       -0.445587   -0.110838    4.481630
     54          1           0       -1.558293    0.182702    3.646946
     55          1           0       -5.915652   -1.186810    1.857082
     56          1           0       -6.041544   -3.070779    1.571976
     57          1           0       -6.726101   -2.025409    0.371426
     58          1           0        1.959889    1.052058    1.678625
     59          1           0        0.968445    1.235207    3.457207
     60          1           0        0.189000    0.278779   -0.287584
     61          1           0        4.442369   -1.333345   -3.049056
     62          1           0        3.731653   -2.341891   -1.821073
     63          1           0       -5.834481   -1.813143   -3.045730
     64          1           0        5.216445   -1.167620   -0.138491
     65          1           0        5.585116   -0.096489   -1.086368
     66          1           0        3.637827    0.584452   -4.269420
     67          1           0        3.675196    2.331185   -3.404123
     68          1           0        2.089725    1.630127   -4.404744
     69          1           0        0.637091    2.966259   -2.728692
     70          1           0       -7.175872   -3.749519   -0.973177
     71          1           0       -7.682828   -3.486871   -2.875204
     72          1           0        3.789178    3.089680    3.954569
     73          1           0       -0.324838    4.749266   -2.699378
     74          1           0       -4.188029    4.494294    0.111250
     75          1           0       -3.903772    3.769056    1.699996
     76          1           0       -2.903483    5.298750    1.034877
     77          1           0        8.487144   -1.885575   -0.817061
     78          1           0       -1.901288    6.612347   -2.805025
     79          1           0       -3.012436    5.958884   -1.300684
 ---------------------------------------------------------------------

 SCF Done:  E(RB3LYP) =  -1947.76395218     A.U. after   19 cycles

 Excitation energies and oscillator strengths:

 Excited State   1:      Singlet-A      1.0216 eV 1213.68 nm  f=0.0029  <S**2>=0.000
     155 ->156         0.70340
 This state for optimization and/or second-order correction.
 Total Energy, E(TD-HF/TD-DFT) =  -1947.72641062
 Copying the excited state density for this state as the 1-particle RhoCI density.

 The electronic state is 1-A.
 Alpha  occ. eigenvalues --  -19.18732 -19.17236 -19.13946 -19.13058 -19.11565
 Alpha  occ. eigenvalues --  -19.08868 -14.37848 -14.36916 -14.33120 -14.32245
 Alpha  occ. eigenvalues --  -10.33153 -10.30499 -10.29360 -10.26513 -10.26359
 Alpha  occ. eigenvalues --  -10.26263 -10.25823 -10.23963 -10.23403 -10.22822
 Alpha  occ. eigenvalues --  -10.22708 -10.22646 -10.22533 -10.22240 -10.21800
 Alpha  occ. eigenvalues --  -10.21725 -10.21605 -10.21346 -10.21337 -10.21319
 Alpha  occ. eigenvalues --  -10.21090 -10.21032 -10.20198 -10.20161 -10.20029
 Alpha  occ. eigenvalues --  -10.19245 -10.19132 -10.18860 -10.18620 -10.17614
 Alpha  occ. eigenvalues --  -10.17004 -10.16752 -10.16356  -1.12203  -1.11199
 Alpha  occ. eigenvalues --   -1.04304  -1.02992  -1.02334  -1.02320  -1.02210
 Alpha  occ. eigenvalues --   -0.97593  -0.94544  -0.91660  -0.85066  -0.82079
 Alpha  occ. eigenvalues --   -0.80240  -0.80107  -0.80013  -0.79321  -0.77804
 Alpha  occ. eigenvalues --   -0.75709  -0.74922  -0.74531  -0.73257  -0.72399
 Alpha  occ. eigenvalues --   -0.70679  -0.69823  -0.68964  -0.68372  -0.67427
 Alpha  occ. eigenvalues --   -0.66338  -0.65879  -0.63069  -0.62855  -0.60707
 Alpha  occ. eigenvalues --   -0.59371  -0.59043  -0.58519  -0.57688  -0.57382
 Alpha  occ. eigenvalues --   -0.55504  -0.55127  -0.54498  -0.53695  -0.53278
 Alpha  occ. eigenvalues --   -0.52585  -0.51417  -0.50617  -0.50103  -0.49174
 Alpha  occ. eigenvalues --   -0.48913  -0.48570  -0.48187  -0.47975  -0.47787
 Alpha  occ. eigenvalues --   -0.47427  -0.47310  -0.47049  -0.46142  -0.45600
 Alpha  occ. eigenvalues --   -0.45293  -0.45061  -0.44448  -0.44326  -0.44128
 Alpha  occ. eigenvalues --   -0.43808  -0.43224  -0.43221  -0.42833  -0.42156
 Alpha  occ. eigenvalues --   -0.41987  -0.41944  -0.41702  -0.41194  -0.40893
 Alpha  occ. eigenvalues --   -0.40571  -0.40186  -0.40041  -0.39705  -0.39013
 Alpha  occ. eigenvalues --   -0.38798  -0.38460  -0.38361  -0.38065  -0.37721
 Alpha  occ. eigenvalues --   -0.37494  -0.37121  -0.36896  -0.36726  -0.36124
 Alpha  occ. eigenvalues --   -0.36079  -0.35859  -0.35568  -0.34620  -0.34497
 Alpha  occ. eigenvalues --   -0.33773  -0.33132  -0.32880  -0.32273  -0.31300
 Alpha  occ. eigenvalues --   -0.30096  -0.29620  -0.29486  -0.29426  -0.29050
 Alpha  occ. eigenvalues --   -0.28190  -0.26737  -0.25968  -0.24735  -0.23856
 Alpha  occ. eigenvalues --   -0.23674  -0.23214  -0.22696  -0.22610  -0.18965
 Alpha virt. eigenvalues --   -0.12579  -0.07424  -0.03327  -0.02538   0.00074
 Alpha virt. eigenvalues --    0.01652   0.01859   0.02613   0.03037   0.03448
 Alpha virt. eigenvalues --    0.03884   0.04068   0.04736   0.04900   0.05240

 Mulliken charges:
               1
     1  O   -0.191935
     2  O   -0.125461
     3  O   -0.195714
     4  O   -0.186345
     5  O   -0.153400
     6  O   -0.188275
     7  N   -0.051434
     8  N   -0.289816
     9  N   -0.053994
    10  N   -0.338559
    11  C    0.121460
    12  C    0.207984
    13  C   -0.093792
    14  C   -0.029757
    15  C   -0.149792
    16  C   -0.109543
    17  C   -0.191960
    18  C    0.262292
    19  C   -0.087382
    20  C   -0.084237
    21  C    0.111215
    22  C    0.128700
    23  C   -0.143085
    24  C   -0.032857
    25  C    0.064694
    26  C   -0.118603
    27  C   -0.127387
    28  C    0.092233
    29  C    0.245148
    30  C    0.018249
    31  C    0.008608
    32  C    0.028536
    33  C   -0.126480
    34  C    0.082283
    35  C    0.081801
    36  C   -0.093728
    37  C    0.121601
    38  C   -0.012523
    39  C   -0.189869
    40  C    0.198406
    41  C   -0.034335
    42  C    0.061465
    43  C   -0.038596
    44  H    0.032014
    45  H    0.001356
    46  H    0.013370
    47  H    0.157296
    48  H    0.180964
    49  H    0.003722
    50  H   -0.057808
    51  H    0.009622
    52  H    0.028664
    53  H   -0.029651
    54  H    0.013373
    55  H    0.036346
    56  H    0.036974
    57  H    0.013610
    58  H    0.064701
    59  H    0.060409
    60  H    0.237562
    61  H   -0.021522
    62  H    0.007858
    63  H    0.003124
    64  H    0.009900
    65  H    0.009086
    66  H    0.043016
    67  H    0.063665
    68  H    0.056249
    69  H    0.015062
    70  H    0.029617
    71  H    0.046259
    72  H    0.168717
    73  H    0.033773
    74  H    0.001163
    75  H    0.060668
    76  H    0.045334
    77  H    0.147095
    78  H    0.042798
    79  H    0.039799
 Sum of Mulliken charges =  -0.00000

 Dipole moment (field-independent basis, Debye):
    X=              3.2847    Y=              3.5027    Z=             -1.0461  Tot=              4.9145
 Quadrupole moment (field-independent basis, Debye-Ang):
   XX=           -239.5472   YY=           -235.2183   ZZ=           -269.2299
   XY=              3.3557   XZ=            -17.1782   YZ=             -8.9064

 Normal termination of Gaussian 16 at Thu Jul 25 00:39:47 2019.
