 Gaussian 16, Revision A.03,
 Gaussian 16:  ES64L-G16RevA.03 25-Dec-2016

 --------------------------
 # td=(NStates=1) B3LYP/SVP
 --------------------------

 --
 TD
 --
 Symbolic Z-matrix:
 Charge =  0 Multiplicity = 1

                         Standard orientation:
 ---------------------------------------------------------------------
 Center     Atomic      Atomic             Coordinates (Angstroms)
 Number     Number       Type             X           Y           Z
 ---------------------------------------------------------------------
      1          8           0        5.310460   -0.047354   -3.347106
      2          8           0       -3.013066   -2.839051    3.289629
      3          8           0       -3.295473   -0.631842    3.180277
      4          8           0       -1.956855    7.202999    1.299751
      5          8           0       -0.848237    7.018556   -0.640350
      6          8           0       -1.383909   -4.001070   -0.012563
      7          7           0        2.296413    0.920037    0.626640
      8          7           0        4.296629   -0.434189   -1.192679
      9          7           0       -1.886891    0.603289   -0.362822
     10          7           0       -2.423427   -1.932591   -0.552200
     11          6           0        4.748106   -1.011117    0.092757
     12          6           0        4.308815   -0.238358    1.323975
     13          6           0        2.894407    0.034294    1.415073
     14          6           0        1.920427   -0.441427    2.273606
     15          6           0        0.703691    0.056122    1.911307
     16          6           0        1.041599    0.978445    0.802735
     17          6           0        6.310041   -1.093578   -0.176383
     18          6           0       -0.594259   -0.120411    2.633522
     19          6           0        6.613779   -0.701849   -1.333985
     20          6           0        0.116879    1.947395    0.134666
     21          6           0       -1.137578    1.797466   -0.339382
     22          6           0        5.345180   -0.261217   -2.127859
     23          6           0       -2.005396    2.770729   -0.948835
     24          6           0        2.218558   -1.384270    3.339212
     25          6           0        7.131896   -1.856956    0.912347
     26          6           0       -3.184686    2.243422   -1.350341
     27          6           0       -1.163033   -1.526686    2.575555
     28          6           0       -3.121433    0.782529   -1.018717
     29          6           0       -1.678179    4.257344   -0.976265
     30          6           0        7.886179   -0.645835   -2.030201
     31          6           0       -1.988940    5.030993    0.234180
     32          6           0       -4.398968    2.911859   -2.027592
     33          6           0       -3.862306   -0.267018   -1.409850
     34          6           0       -2.526096   -1.573963    3.017567
     35          6           0       -3.541398   -1.666630   -1.128860
     36          6           0        9.154930   -0.788737   -1.580168
     37          6           0       -1.658760    6.565877    0.239658
     38          6           0       -4.424983   -2.812982   -1.489331
     39          6           0       -3.622987   -3.899626   -1.063718
     40          6           0       -2.382895   -3.413570   -0.439303
     41          6           0       -5.693186   -2.747387   -2.166291
     42          6           0       -3.959460   -5.377138   -1.049762
     43          6           0       -6.445301   -3.851975   -2.527927
     44          1           0        4.575963   -2.197079    0.161823
     45          1           0        4.845382    0.834285    0.867007
     46          1           0        4.667587   -0.454963    2.293964
     47          1           0        2.780770    1.568352    0.011490
     48          1           0        3.309758   -0.413045   -1.487018
     49          1           0       -0.470665    0.058439    3.712181
     50          1           0       -1.469109    0.278033    1.992041
     51          1           0        0.578655    2.935607    0.135519
     52          1           0        3.253911   -1.648767    3.744284
     53          1           0        1.665283   -1.063810    4.283934
     54          1           0        1.740722   -2.292664    3.119888
     55          1           0        6.324567   -2.542014    1.354955
     56          1           0        7.943486   -1.266557    1.596015
     57          1           0        7.834868   -2.622264    0.451781
     58          1           0       -1.053573   -2.005824    1.495312
     59          1           0       -0.484692   -2.256553    3.252415
     60          1           0       -1.611598   -0.338331    0.094801
     61          1           0       -2.238756    4.734842   -1.791329
     62          1           0       -0.733710    4.537692   -1.189926
     63          1           0        7.907888   -0.471137   -3.115575
     64          1           0       -1.390831    4.770480    1.167641
     65          1           0       -3.008668    4.876744    0.572380
     66          1           0       -4.254761    4.027690   -2.392214
     67          1           0       -5.263628    2.749030   -1.330154
     68          1           0       -4.778627    2.481923   -2.974692
     69          1           0       -4.930679   -0.157185   -1.728466
     70          1           0        9.316608   -1.199878   -0.472501
     71          1           0       10.054575   -0.620738   -2.066983
     72          1           0       -3.752516   -2.621488    3.680657
     73          1           0       -6.102237   -1.892258   -2.736228
     74          1           0       -5.045320   -5.634264   -0.503235
     75          1           0       -4.081045   -5.711092   -2.020962
     76          1           0       -3.253138   -5.916968   -0.460695
     77          1           0       -1.643600    8.190508    1.408701
     78          1           0       -7.339345   -3.737649   -2.981496
     79          1           0       -6.403808   -4.867282   -2.263346
 ---------------------------------------------------------------------

 SCF Done:  E(RB3LYP) =  -1947.84263152     A.U. after   16 cycles

 Excitation energies and oscillator strengths:

 Excited State   1:      Singlet-A      1.7825 eV  695.57 nm  f=0.2782  <S**2>=0.000
     155 ->156         0.70364
 This state for optimization and/or second-order correction.
 Total Energy, E(TD-HF/TD-DFT) =  -1947.77712670
 Copying the excited state density for this state as the 1-particle RhoCI density.

 The electronic state is 1-A.
 Alpha  occ. eigenvalues --  -19.20799 -19.15663 -19.12414 -19.11899 -19.11221
 Alpha  occ. eigenvalues --  -19.11214 -14.38784 -14.36482 -14.35738 -14.29538
 Alpha  occ. eigenvalues --  -10.32741 -10.30928 -10.29778 -10.28022 -10.26215
 Alpha  occ. eigenvalues --  -10.24611 -10.23774 -10.23450 -10.22519 -10.22507
 Alpha  occ. eigenvalues --  -10.22424 -10.22139 -10.21905 -10.21677 -10.21602
 Alpha  occ. eigenvalues --  -10.21281 -10.21253 -10.21245 -10.21233 -10.20898
 Alpha  occ. eigenvalues --  -10.20839 -10.20044 -10.19828 -10.19759 -10.19599
 Alpha  occ. eigenvalues --  -10.19558 -10.19535 -10.19360 -10.19132 -10.19046
 Alpha  occ. eigenvalues --  -10.18932 -10.18152 -10.17739  -1.11522  -1.09680
 Alpha  occ. eigenvalues --   -1.02483  -1.01833  -1.01548  -0.99379  -0.97304
 Alpha  occ. eigenvalues --   -0.96286  -0.93430  -0.92703  -0.82683  -0.82439
 Alpha  occ. eigenvalues --   -0.82254  -0.81485  -0.80961  -0.79624  -0.78071
 Alpha  occ. eigenvalues --   -0.77644  -0.76499  -0.75581  -0.74443  -0.72137
 Alpha  occ. eigenvalues --   -0.71260  -0.70658  -0.70382  -0.69359  -0.68723
 Alpha  occ. eigenvalues --   -0.67864  -0.66058  -0.64293  -0.62292  -0.61373
 Alpha  occ. eigenvalues --   -0.60768  -0.59583  -0.59273  -0.58313  -0.57190
 Alpha  occ. eigenvalues --   -0.56776  -0.55613  -0.54869  -0.54196  -0.52961
 Alpha  occ. eigenvalues --   -0.52562  -0.51662  -0.50364  -0.50272  -0.49939
 Alpha  occ. eigenvalues --   -0.49447  -0.48684  -0.48468  -0.48222  -0.47903
 Alpha  occ. eigenvalues --   -0.47667  -0.47390  -0.47165  -0.46385  -0.45988
 Alpha  occ. eigenvalues --   -0.45296  -0.44396  -0.44259  -0.44090  -0.43652
 Alpha  occ. eigenvalues --   -0.43508  -0.43029  -0.42906  -0.42635  -0.42428
 Alpha  occ. eigenvalues --   -0.42165  -0.41988  -0.41854  -0.41459  -0.41331
 Alpha  occ. eigenvalues --   -0.41027  -0.40512  -0.40162  -0.40091  -0.39810
 Alpha  occ. eigenvalues --   -0.39665  -0.39263  -0.38980  -0.38304  -0.38023
 Alpha  occ. eigenvalues --   -0.37787  -0.37505  -0.36965  -0.36679  -0.36605
 Alpha  occ. eigenvalues --   -0.36294  -0.35694  -0.34640  -0.34586  -0.34185
 Alpha  occ. eigenvalues --   -0.34091  -0.32995  -0.31787  -0.31611  -0.31472
 Alpha  occ. eigenvalues --   -0.31123  -0.31037  -0.29219  -0.28672  -0.27511
 Alpha  occ. eigenvalues --   -0.27237  -0.26760  -0.26014  -0.25898  -0.24892
 Alpha  occ. eigenvalues --   -0.24698  -0.24532  -0.23348  -0.22435  -0.18766
 Alpha virt. eigenvalues --   -0.11425  -0.06660  -0.04739  -0.01681  -0.00625
 Alpha virt. eigenvalues --   -0.00265   0.00577   0.00977   0.01428   0.03172
 Alpha virt. eigenvalues --    0.03795   0.04327   0.04779   0.05276   0.05494

 Mulliken charges:
               1
     1  O   -0.226556
     2  O   -0.129498
     3  O   -0.252935
     4  O   -0.149805
     5  O   -0.311934
     6  O   -0.198560
     7  N    0.096071
     8  N   -0.250525
     9  N   -0.188356
    10  N   -0.287471
    11  C    0.069413
    12  C    0.146191
    13  C   -0.124953
    14  C   -0.087995
    15  C   -0.088742
    16  C   -0.070981
    17  C   -0.193550
    18  C    0.107545
    19  C    0.035623
    20  C   -0.114064
    21  C    0.169543
    22  C    0.200561
    23  C   -0.094223
    24  C    0.079837
    25  C    0.008677
    26  C   -0.077282
    27  C   -0.146834
    28  C    0.159828
    29  C    0.205475
    30  C   -0.028768
    31  C   -0.028379
    32  C    0.046144
    33  C   -0.101577
    34  C    0.150154
    35  C    0.007635
    36  C   -0.042970
    37  C    0.130535
    38  C    0.110647
    39  C   -0.203135
    40  C    0.200428
    41  C   -0.049210
    42  C    0.091450
    43  C    0.004899
    44  H    0.044832
    45  H    0.006255
    46  H   -0.004542
    47  H    0.112176
    48  H    0.143176
    49  H    0.011472
    50  H    0.031709
    51  H   -0.005375
    52  H    0.017029
    53  H    0.002824
    54  H    0.014544
    55  H    0.025574
    56  H    0.070896
    57  H    0.037346
    58  H    0.120782
    59  H    0.042712
    60  H    0.186427
    61  H   -0.004171
    62  H   -0.035219
    63  H    0.012507
    64  H    0.039882
    65  H    0.014043
    66  H    0.040030
    67  H    0.037990
    68  H    0.026404
    69  H   -0.014049
    70  H    0.008596
    71  H    0.011282
    72  H    0.104632
    73  H    0.020266
    74  H    0.039099
    75  H    0.017532
    76  H    0.022670
    77  H    0.238169
    78  H   -0.009325
    79  H   -0.000530
 Sum of Mulliken charges =  -0.00000

 Dipole moment (field-independent basis, Debye):
    X=             -1.9449    Y=              1.6621    Z=              3.4018  Tot=              4.2564
 Quadrupole moment (field-independent basis, Debye-Ang):
   XX=           -217.6385   YY=           -236.7196   ZZ=           -261.1919
   XY=             -6.6593   XZ=             35.4256   YZ=             12.7704

 Normal termination of Gaussian 16 at Thu Sep 19 01:08:12 2019.
