 Gaussian 16, Revision A.03,
 Gaussian 16:  ES64L-G16RevA.03 25-Dec-2016

 --------------------------
 # td=(NStates=1) B3LYP/SVP
 --------------------------

 --
 TD
 --
 Symbolic Z-matrix:
 Charge =  0 Multiplicity = 1

                         Standard orientation:
 ---------------------------------------------------------------------
 Center     Atomic      Atomic             Coordinates (Angstroms)
 Number     Number       Type             X           Y           Z
 ---------------------------------------------------------------------
      1          8           0        5.127225   -0.027804   -3.255799
      2          8           0       -3.082271   -2.875251    3.024913
      3          8           0       -3.105989   -0.583377    3.207361
      4          8           0       -2.160280    7.187022    1.275159
      5          8           0       -1.571252    7.052924   -0.845885
      6          8           0       -1.306381   -4.010524    0.156886
      7          7           0        2.364229    1.033714    0.690230
      8          7           0        4.288890   -0.508215   -1.190963
      9          7           0       -1.796052    0.507927   -0.480338
     10          7           0       -2.381240   -1.970994   -0.408282
     11          6           0        4.884015   -0.969970    0.030784
     12          6           0        4.523968   -0.107989    1.332382
     13          6           0        2.972453    0.088662    1.454414
     14          6           0        1.977526   -0.483236    2.295207
     15          6           0        0.771887    0.152812    1.947987
     16          6           0        1.000749    1.092822    0.928531
     17          6           0        6.328477   -1.108529   -0.163674
     18          6           0       -0.557661   -0.142208    2.594335
     19          6           0        6.560785   -0.600191   -1.431988
     20          6           0        0.139153    2.011365    0.147144
     21          6           0       -1.147317    1.667913   -0.349427
     22          6           0        5.261367   -0.193763   -2.088331
     23          6           0       -2.088906    2.797292   -0.911636
     24          6           0        2.259767   -1.386468    3.461211
     25          6           0        7.253915   -1.609757    0.859929
     26          6           0       -3.219375    2.091528   -1.383836
     27          6           0       -1.024897   -1.597997    2.673334
     28          6           0       -2.988373    0.627277   -1.126946
     29          6           0       -1.811956    4.209495   -0.973308
     30          6           0        7.792948   -0.468078   -2.177857
     31          6           0       -2.156545    5.016907    0.353258
     32          6           0       -4.382722    2.687450   -1.973036
     33          6           0       -3.880450   -0.393096   -1.352484
     34          6           0       -2.452851   -1.609751    2.948765
     35          6           0       -3.470201   -1.708231   -1.117045
     36          6           0        9.102907   -0.551207   -1.735718
     37          6           0       -1.900075    6.531737    0.169074
     38          6           0       -4.366065   -2.922875   -1.397309
     39          6           0       -3.652018   -3.956411   -0.992464
     40          6           0       -2.317466   -3.419798   -0.283777
     41          6           0       -5.581946   -2.846007   -2.175985
     42          6           0       -3.794621   -5.482575   -1.124794
     43          6           0       -6.287572   -3.914492   -2.471220
     44          1           0        4.309834   -2.013621    0.457658
     45          1           0        4.965467    0.833602    1.399669
     46          1           0        4.874297   -0.444870    2.318021
     47          1           0        2.867050    1.783865   -0.046499
     48          1           0        3.213538   -0.598169   -1.311946
     49          1           0       -0.603569    0.434394    3.699876
     50          1           0       -1.334372    0.556584    2.282119
     51          1           0        0.367994    3.006244   -0.050855
     52          1           0        3.239725   -1.277883    3.791793
     53          1           0        1.698574   -1.302723    4.245263
     54          1           0        2.256464   -2.576222    3.080746
     55          1           0        6.824441   -2.216236    1.700618
     56          1           0        7.867178   -0.734621    1.325902
     57          1           0        8.172765   -2.091776    0.382400
     58          1           0       -1.000768   -1.938474    1.660512
     59          1           0       -0.490031   -2.082891    3.506819
     60          1           0       -1.525570   -0.458272   -0.193060
     61          1           0       -2.295936    4.719453   -1.828725
     62          1           0       -0.754331    4.389883   -1.240704
     63          1           0        7.528379   -0.152528   -3.467514
     64          1           0       -1.577304    4.692542    1.160928
     65          1           0       -3.319568    4.989411    0.576012
     66          1           0       -4.259703    3.724192   -2.020284
     67          1           0       -5.109176    2.628113   -1.071036
     68          1           0       -4.827529    2.141514   -2.798545
     69          1           0       -4.736397   -0.137409   -1.883684
     70          1           0        9.245638   -0.517748   -0.724024
     71          1           0        9.892593   -0.624529   -2.451615
     72          1           0       -3.920418   -2.607141    3.304390
     73          1           0       -5.820206   -1.985567   -2.783613
     74          1           0       -4.745721   -5.869039   -0.753024
     75          1           0       -3.763084   -5.872226   -2.130799
     76          1           0       -2.948589   -6.098599   -0.494202
     77          1           0       -1.845100    8.091469    1.228482
     78          1           0       -7.293905   -3.852572   -3.236214
     79          1           0       -6.185255   -4.934891   -2.203603
 ---------------------------------------------------------------------

 SCF Done:  E(RB3LYP) =  -1947.86547734     A.U. after   16 cycles

 Excitation energies and oscillator strengths:

 Excited State   1:      Singlet-A      2.1242 eV  583.68 nm  f=0.4041  <S**2>=0.000
     155 ->156         0.70153
 This state for optimization and/or second-order correction.
 Total Energy, E(TD-HF/TD-DFT) =  -1947.78741448
 Copying the excited state density for this state as the 1-particle RhoCI density.

 The electronic state is 1-A.
 Alpha  occ. eigenvalues --  -19.19241 -19.16336 -19.13136 -19.11699 -19.11633
 Alpha  occ. eigenvalues --  -19.09819 -14.38965 -14.36578 -14.36111 -14.30082
 Alpha  occ. eigenvalues --  -10.32510 -10.31008 -10.28222 -10.28203 -10.26054
 Alpha  occ. eigenvalues --  -10.24777 -10.24771 -10.23705 -10.22728 -10.22356
 Alpha  occ. eigenvalues --  -10.22128 -10.22118 -10.22075 -10.21497 -10.21486
 Alpha  occ. eigenvalues --  -10.21451 -10.21320 -10.21139 -10.20989 -10.20868
 Alpha  occ. eigenvalues --  -10.20698 -10.20477 -10.20399 -10.20126 -10.20044
 Alpha  occ. eigenvalues --  -10.19856 -10.19091 -10.18955 -10.18911 -10.18710
 Alpha  occ. eigenvalues --  -10.18570 -10.18469 -10.18435  -1.12227  -1.07151
 Alpha  occ. eigenvalues --   -1.04036  -1.02537  -1.00197  -0.98651  -0.98295
 Alpha  occ. eigenvalues --   -0.97570  -0.94774  -0.91819  -0.82849  -0.82053
 Alpha  occ. eigenvalues --   -0.81728  -0.80977  -0.80466  -0.78866  -0.77748
 Alpha  occ. eigenvalues --   -0.77023  -0.76336  -0.75122  -0.74426  -0.72713
 Alpha  occ. eigenvalues --   -0.71454  -0.71353  -0.69839  -0.68886  -0.68518
 Alpha  occ. eigenvalues --   -0.66212  -0.65925  -0.63833  -0.62205  -0.61547
 Alpha  occ. eigenvalues --   -0.60712  -0.58886  -0.57292  -0.56971  -0.56620
 Alpha  occ. eigenvalues --   -0.56052  -0.55198  -0.54883  -0.53461  -0.52998
 Alpha  occ. eigenvalues --   -0.52573  -0.51096  -0.50702  -0.49733  -0.49630
 Alpha  occ. eigenvalues --   -0.49054  -0.48827  -0.48389  -0.48163  -0.48086
 Alpha  occ. eigenvalues --   -0.47538  -0.47332  -0.46893  -0.46705  -0.45295
 Alpha  occ. eigenvalues --   -0.45252  -0.45043  -0.44649  -0.44303  -0.43981
 Alpha  occ. eigenvalues --   -0.43622  -0.43163  -0.42909  -0.42754  -0.42722
 Alpha  occ. eigenvalues --   -0.42204  -0.42008  -0.41577  -0.41104  -0.40820
 Alpha  occ. eigenvalues --   -0.40650  -0.40358  -0.40150  -0.39922  -0.39767
 Alpha  occ. eigenvalues --   -0.39625  -0.39351  -0.39146  -0.38975  -0.38541
 Alpha  occ. eigenvalues --   -0.38127  -0.37717  -0.37573  -0.37408  -0.36968
 Alpha  occ. eigenvalues --   -0.36034  -0.36030  -0.35099  -0.34688  -0.34431
 Alpha  occ. eigenvalues --   -0.33962  -0.33656  -0.32861  -0.32008  -0.31772
 Alpha  occ. eigenvalues --   -0.30887  -0.30591  -0.28890  -0.28467  -0.28226
 Alpha  occ. eigenvalues --   -0.26839  -0.26257  -0.25668  -0.25046  -0.24713
 Alpha  occ. eigenvalues --   -0.24212  -0.23816  -0.23117  -0.22699  -0.18917
 Alpha virt. eigenvalues --   -0.10474  -0.06264  -0.05728  -0.00633   0.00413
 Alpha virt. eigenvalues --    0.00549   0.00844   0.01066   0.02069   0.02800
 Alpha virt. eigenvalues --    0.03360   0.04261   0.04681   0.04842   0.04987

 Mulliken charges:
               1
     1  O   -0.192385
     2  O   -0.192606
     3  O   -0.266762
     4  O   -0.144869
     5  O   -0.203896
     6  O   -0.223769
     7  N   -0.132231
     8  N   -0.188719
     9  N   -0.017587
    10  N   -0.332296
    11  C   -0.001303
    12  C    0.220604
    13  C   -0.128465
    14  C   -0.120398
    15  C   -0.076623
    16  C    0.080720
    17  C   -0.061904
    18  C   -0.042815
    19  C   -0.103287
    20  C   -0.048556
    21  C    0.049487
    22  C    0.162184
    23  C   -0.067605
    24  C    0.163888
    25  C    0.042377
    26  C   -0.157963
    27  C    0.160074
    28  C    0.098573
    29  C    0.035549
    30  C   -0.103560
    31  C   -0.006092
    32  C    0.158852
    33  C   -0.071435
    34  C    0.104952
    35  C    0.088273
    36  C    0.011682
    37  C    0.091477
    38  C    0.074145
    39  C   -0.180276
    40  C    0.214001
    41  C    0.027074
    42  C    0.038401
    43  C   -0.086721
    44  H    0.044959
    45  H   -0.038349
    46  H   -0.012033
    47  H    0.177472
    48  H    0.170933
    49  H    0.006994
    50  H    0.002676
    51  H   -0.045521
    52  H   -0.028193
    53  H   -0.028131
    54  H    0.032706
    55  H    0.038563
    56  H    0.044216
    57  H    0.039284
    58  H    0.055624
    59  H    0.045904
    60  H    0.162110
    61  H    0.022135
    62  H    0.017039
    63  H    0.065782
    64  H    0.025475
    65  H    0.061156
    66  H   -0.014675
    67  H    0.030881
    68  H    0.033751
    69  H   -0.063584
    70  H   -0.015698
    71  H    0.028779
    72  H    0.146247
    73  H    0.000835
    74  H    0.024650
    75  H    0.025855
    76  H    0.053531
    77  H    0.177150
    78  H    0.035402
    79  H    0.005884
 Sum of Mulliken charges =  -0.00000

 Dipole moment (field-independent basis, Debye):
    X=             -0.4612    Y=              3.0953    Z=              2.9064  Tot=              4.2709
 Quadrupole moment (field-independent basis, Debye-Ang):
   XX=           -221.5918   YY=           -241.2655   ZZ=           -263.6329
   XY=              0.3913   XZ=             36.8197   YZ=              9.7117

 Normal termination of Gaussian 16 at Wed Oct  2 16:26:24 2019.
