 Gaussian 16, Revision A.03,
 Gaussian 16:  ES64L-G16RevA.03 25-Dec-2016

 --------------------------
 # td=(NStates=1) B3LYP/SVP
 --------------------------

 --
 TD
 --
 Symbolic Z-matrix:
 Charge =  0 Multiplicity = 1

                         Standard orientation:
 ---------------------------------------------------------------------
 Center     Atomic      Atomic             Coordinates (Angstroms)
 Number     Number       Type             X           Y           Z
 ---------------------------------------------------------------------
      1          8           0        5.466691    0.184040   -3.288857
      2          8           0       -3.129740   -3.121679    2.986466
      3          8           0       -3.375466   -0.891684    2.871566
      4          8           0       -1.495002    7.299339    1.625231
      5          8           0       -0.395745    7.168876   -0.324080
      6          8           0       -1.955130   -4.011125   -0.048517
      7          7           0        2.352424    0.732891    0.670098
      8          7           0        4.353479   -0.596726   -1.313969
      9          7           0       -1.846167    0.727217   -0.524122
     10          7           0       -2.613127   -1.829657   -0.667617
     11          6           0        4.724076   -1.337028   -0.050896
     12          6           0        4.397166   -0.641395    1.227497
     13          6           0        2.954831   -0.324613    1.354201
     14          6           0        1.867669   -0.895192    2.121717
     15          6           0        0.688058   -0.285529    1.811526
     16          6           0        0.987930    0.784904    0.902667
     17          6           0        6.312069   -1.395074   -0.198703
     18          6           0       -0.682593   -0.437698    2.551377
     19          6           0        6.736074   -0.688771   -1.329779
     20          6           0        0.214009    1.842703    0.347686
     21          6           0       -1.051948    1.854207   -0.105214
     22          6           0        5.463482   -0.357707   -2.160410
     23          6           0       -1.854185    3.011368   -0.693494
     24          6           0        2.065615   -2.108021    3.063349
     25          6           0        7.028185   -2.148018    0.810563
     26          6           0       -3.058153    2.525052   -1.195227
     27          6           0       -1.193889   -1.919645    2.518255
     28          6           0       -3.021897    1.014972   -1.000004
     29          6           0       -1.407451    4.439108   -0.744237
     30          6           0        8.075025   -0.639620   -2.015137
     31          6           0       -1.532142    5.290586    0.581588
     32          6           0       -4.152121    3.304873   -1.866465
     33          6           0       -3.952777    0.075049   -1.355842
     34          6           0       -2.693432   -1.888347    2.796643
     35          6           0       -3.728096   -1.327458   -1.138184
     36          6           0        9.307280   -0.821324   -1.350673
     37          6           0       -1.081554    6.694310    0.596162
     38          6           0       -4.710460   -2.381059   -1.486757
     39          6           0       -4.005322   -3.599735   -1.212085
     40          6           0       -2.802896   -3.216882   -0.612287
     41          6           0       -5.903285   -2.177498   -2.213445
     42          6           0       -4.542142   -4.982852   -1.337842
     43          6           0       -6.936225   -3.096898   -2.422258
     44          1           0        4.426309   -2.538151   -0.060439
     45          1           0        4.902636    0.217576    1.334622
     46          1           0        4.696804   -1.409567    1.989811
     47          1           0        2.889744    1.406698   -0.006121
     48          1           0        3.519272   -0.542811   -1.682651
     49          1           0       -0.538991   -0.299820    3.731752
     50          1           0       -1.326567    0.139251    2.191179
     51          1           0        0.709020    2.878532    0.350292
     52          1           0        3.251310   -2.427088    3.039250
     53          1           0        1.674123   -2.146964    4.185421
     54          1           0        1.517997   -3.084822    2.811078
     55          1           0        6.370264   -2.894004    1.345270
     56          1           0        7.440119   -1.642239    1.733751
     57          1           0        7.917741   -2.443958    0.301676
     58          1           0       -1.027444   -2.430722    1.523833
     59          1           0       -0.682211   -2.584274    3.231814
     60          1           0       -1.501603   -0.328176   -0.428668
     61          1           0       -1.742980    5.137708   -1.558886
     62          1           0       -0.291971    4.316976   -0.726949
     63          1           0        8.016978   -0.261035   -3.013417
     64          1           0       -0.837003    4.697549    1.278705
     65          1           0       -2.519620    5.351359    1.026362
     66          1           0       -3.962251    4.342194   -1.685706
     67          1           0       -5.106284    2.858823   -1.376066
     68          1           0       -4.072481    3.270787   -3.097948
     69          1           0       -4.950660    0.201288   -1.745582
     70          1           0        9.450546   -1.025689   -0.275677
     71          1           0       10.179526   -0.752851   -2.073459
     72          1           0       -4.075583   -3.109731    3.108614
     73          1           0       -6.198427   -1.207681   -2.468026
     74          1           0       -5.679569   -5.188339   -0.970667
     75          1           0       -4.545994   -5.293245   -2.506485
     76          1           0       -3.897755   -5.840861   -0.799241
     77          1           0       -1.241162    8.245535    1.546221
     78          1           0       -7.859692   -2.757559   -2.997934
     79          1           0       -6.620675   -4.113527   -2.146686
 ---------------------------------------------------------------------

 SCF Done:  E(RB3LYP) =  -1947.87578595     A.U. after   19 cycles

 Excitation energies and oscillator strengths:

 Excited State   1:      Singlet-A      1.9225 eV  644.89 nm  f=0.3450  <S**2>=0.000
     154 ->156         0.15340
     155 ->156         0.68870
 This state for optimization and/or second-order correction.
 Total Energy, E(TD-HF/TD-DFT) =  -1947.80513356
 Copying the excited state density for this state as the 1-particle RhoCI density.

 The electronic state is 1-A.
 Alpha  occ. eigenvalues --  -19.21036 -19.16854 -19.11961 -19.10901 -19.10806
 Alpha  occ. eigenvalues --  -19.09769 -14.39582 -14.36813 -14.35564 -14.28966
 Alpha  occ. eigenvalues --  -10.32239 -10.30065 -10.29714 -10.26897 -10.25892
 Alpha  occ. eigenvalues --  -10.24863 -10.24811 -10.23668 -10.23143 -10.23018
 Alpha  occ. eigenvalues --  -10.22841 -10.22315 -10.21779 -10.21768 -10.21761
 Alpha  occ. eigenvalues --  -10.21730 -10.21647 -10.21561 -10.21419 -10.21392
 Alpha  occ. eigenvalues --  -10.21368 -10.21256 -10.21154 -10.21068 -10.20651
 Alpha  occ. eigenvalues --  -10.20643 -10.20129 -10.19929 -10.19677 -10.19241
 Alpha  occ. eigenvalues --  -10.18680 -10.18463 -10.18105  -1.14001  -1.09069
 Alpha  occ. eigenvalues --   -1.00936  -1.00035  -0.99350  -0.98579  -0.97985
 Alpha  occ. eigenvalues --   -0.97647  -0.93055  -0.91899  -0.83033  -0.82501
 Alpha  occ. eigenvalues --   -0.81447  -0.80562  -0.80334  -0.79920  -0.78027
 Alpha  occ. eigenvalues --   -0.77037  -0.75911  -0.75466  -0.74501  -0.72466
 Alpha  occ. eigenvalues --   -0.71715  -0.70678  -0.69149  -0.68259  -0.67977
 Alpha  occ. eigenvalues --   -0.66683  -0.65998  -0.64154  -0.61862  -0.60958
 Alpha  occ. eigenvalues --   -0.60770  -0.59034  -0.58649  -0.58132  -0.57417
 Alpha  occ. eigenvalues --   -0.55838  -0.55279  -0.54979  -0.54618  -0.53421
 Alpha  occ. eigenvalues --   -0.52343  -0.51455  -0.51195  -0.50908  -0.49899
 Alpha  occ. eigenvalues --   -0.49620  -0.48853  -0.48763  -0.48116  -0.47495
 Alpha  occ. eigenvalues --   -0.47099  -0.46664  -0.46576  -0.46459  -0.46075
 Alpha  occ. eigenvalues --   -0.45883  -0.45009  -0.44702  -0.43896  -0.43545
 Alpha  occ. eigenvalues --   -0.43294  -0.43146  -0.42668  -0.42579  -0.42345
 Alpha  occ. eigenvalues --   -0.41702  -0.41515  -0.41098  -0.40779  -0.40757
 Alpha  occ. eigenvalues --   -0.40151  -0.39751  -0.39663  -0.39374  -0.39279
 Alpha  occ. eigenvalues --   -0.39108  -0.38685  -0.38498  -0.38361  -0.38147
 Alpha  occ. eigenvalues --   -0.37741  -0.37586  -0.37516  -0.37420  -0.36877
 Alpha  occ. eigenvalues --   -0.36200  -0.35254  -0.34937  -0.34764  -0.33955
 Alpha  occ. eigenvalues --   -0.33818  -0.33240  -0.32820  -0.32511  -0.31297
 Alpha  occ. eigenvalues --   -0.31031  -0.30991  -0.28747  -0.27660  -0.27215
 Alpha  occ. eigenvalues --   -0.27124  -0.26619  -0.25914  -0.25262  -0.25044
 Alpha  occ. eigenvalues --   -0.23788  -0.23766  -0.23272  -0.21847  -0.19127
 Alpha virt. eigenvalues --   -0.11286  -0.06990  -0.06599  -0.01254  -0.00632
 Alpha virt. eigenvalues --   -0.00306   0.00795   0.02025   0.02662   0.02794
 Alpha virt. eigenvalues --    0.03076   0.03907   0.04034   0.04636   0.05263

 Mulliken charges:
               1
     1  O   -0.255498
     2  O   -0.140453
     3  O   -0.237344
     4  O   -0.092232
     5  O   -0.271832
     6  O   -0.271081
     7  N   -0.130950
     8  N   -0.178966
     9  N   -0.122590
    10  N   -0.252195
    11  C    0.011862
    12  C    0.323447
    13  C   -0.091316
    14  C   -0.066599
    15  C   -0.098553
    16  C    0.059614
    17  C   -0.171402
    18  C    0.234375
    19  C   -0.051688
    20  C   -0.123362
    21  C    0.135403
    22  C    0.173169
    23  C   -0.069424
    24  C   -0.035055
    25  C    0.069200
    26  C   -0.142260
    27  C   -0.079085
    28  C    0.178294
    29  C    0.074769
    30  C   -0.007049
    31  C   -0.028717
    32  C    0.062008
    33  C   -0.107288
    34  C    0.129979
    35  C    0.013559
    36  C   -0.050713
    37  C    0.086624
    38  C    0.054487
    39  C   -0.088622
    40  C    0.148034
    41  C   -0.053967
    42  C   -0.054642
    43  C   -0.023387
    44  H    0.061315
    45  H   -0.044850
    46  H   -0.002875
    47  H    0.154335
    48  H    0.077867
    49  H    0.025073
    50  H   -0.081806
    51  H    0.017113
    52  H    0.012075
    53  H    0.034030
    54  H    0.045574
    55  H    0.028084
    56  H    0.040356
    57  H    0.028700
    58  H    0.078728
    59  H    0.018387
    60  H    0.197466
    61  H    0.038145
    62  H    0.008492
    63  H    0.020193
    64  H    0.046101
    65  H    0.025882
    66  H    0.007128
    67  H    0.058729
    68  H    0.056499
    69  H   -0.042920
    70  H    0.036129
    71  H    0.045781
    72  H    0.162597
    73  H   -0.028825
    74  H    0.060734
    75  H    0.049585
    76  H    0.057032
    77  H    0.191435
    78  H    0.046765
    79  H    0.012392
 Sum of Mulliken charges =  -0.00000

 Dipole moment (field-independent basis, Debye):
    X=             -0.0762    Y=              2.1813    Z=              3.5293  Tot=              4.1497
 Quadrupole moment (field-independent basis, Debye-Ang):
   XX=           -217.6699   YY=           -240.7026   ZZ=           -263.1440
   XY=            -16.1864   XZ=             32.9960   YZ=              7.6126

 Normal termination of Gaussian 16 at Tue Oct  1 16:16:09 2019.
