 Gaussian 16, Revision A.03,
 Gaussian 16:  ES64L-G16RevA.03 25-Dec-2016

 --------------------------
 # td=(NStates=1) B3LYP/SVP
 --------------------------

 --
 TD
 --
 Symbolic Z-matrix:
 Charge =  0 Multiplicity = 1

                         Standard orientation:
 ---------------------------------------------------------------------
 Center     Atomic      Atomic             Coordinates (Angstroms)
 Number     Number       Type             X           Y           Z
 ---------------------------------------------------------------------
      1          8           0        5.098840   -0.312757   -3.350943
      2          8           0       -3.132858   -2.737587    3.231479
      3          8           0       -3.479538   -0.580841    2.906612
      4          8           0       -1.554469    7.061322    1.529011
      5          8           0       -0.985851    7.041149   -0.775220
      6          8           0       -1.521483   -4.063160    0.217161
      7          7           0        2.318079    1.008632    0.598333
      8          7           0        4.271519   -0.495765   -1.185694
      9          7           0       -1.787253    0.623680   -0.484238
     10          7           0       -2.361501   -1.952352   -0.403536
     11          6           0        4.757110   -1.075483    0.013899
     12          6           0        4.403358   -0.198548    1.358206
     13          6           0        2.976898    0.048194    1.455361
     14          6           0        1.848528   -0.532747    2.280263
     15          6           0        0.658560    0.044630    1.798928
     16          6           0        0.886151    1.000254    0.788762
     17          6           0        6.235334   -1.276973   -0.092781
     18          6           0       -0.667135   -0.170776    2.495900
     19          6           0        6.558360   -0.810257   -1.366216
     20          6           0        0.154568    2.004979    0.138903
     21          6           0       -1.062723    1.797563   -0.455797
     22          6           0        5.233045   -0.573315   -2.200228
     23          6           0       -2.005383    2.856399   -0.972741
     24          6           0        2.171818   -1.517382    3.237223
     25          6           0        7.174087   -1.701800    1.022872
     26          6           0       -3.156414    2.207619   -1.427156
     27          6           0       -1.175206   -1.584989    2.738843
     28          6           0       -2.999135    0.884820   -1.048315
     29          6           0       -1.709414    4.314638   -0.965908
     30          6           0        7.764143   -0.751911   -2.046174
     31          6           0       -1.784190    5.092673    0.397207
     32          6           0       -4.404650    2.871469   -1.989736
     33          6           0       -3.823337   -0.258180   -1.265631
     34          6           0       -2.726424   -1.538454    2.895258
     35          6           0       -3.486616   -1.601505   -1.031459
     36          6           0        9.026593   -0.657651   -1.595021
     37          6           0       -1.390126    6.477112    0.258922
     38          6           0       -4.375117   -2.714660   -1.386225
     39          6           0       -3.681647   -3.846159   -0.992743
     40          6           0       -2.319180   -3.389841   -0.292968
     41          6           0       -5.511945   -2.582986   -2.197255
     42          6           0       -4.036228   -5.258665   -0.917056
     43          6           0       -6.297256   -3.640242   -2.762700
     44          1           0        4.089684   -2.015492    0.286702
     45          1           0        4.702082    0.979761    0.965260
     46          1           0        4.975667   -0.472683    2.244802
     47          1           0        2.689071    1.281036   -0.301693
     48          1           0        3.386158   -0.687557   -1.522143
     49          1           0       -0.596065    0.473080    3.439156
     50          1           0       -1.497152    0.348463    1.905107
     51          1           0        0.565230    3.133321   -0.086960
     52          1           0        3.353667   -1.689698    3.478521
     53          1           0        1.464529   -1.302951    4.152793
     54          1           0        1.885051   -2.650016    2.941697
     55          1           0        6.616910   -2.283377    1.751995
     56          1           0        7.679961   -0.779128    1.443368
     57          1           0        7.899683   -2.441024    0.745469
     58          1           0       -0.827063   -2.359255    1.970150
     59          1           0       -0.922881   -2.334537    3.655887
     60          1           0       -1.569513   -0.504229   -0.327221
     61          1           0       -2.327792    4.986119   -1.470827
     62          1           0       -0.686819    4.519783   -1.456768
     63          1           0        7.588514   -0.569296   -3.084234
     64          1           0       -1.086917    4.502110    1.237573
     65          1           0       -2.652739    4.781177    0.718177
     66          1           0       -4.361396    3.804168   -2.108427
     67          1           0       -5.183620    2.550537   -1.103098
     68          1           0       -4.779149    2.471576   -2.983750
     69          1           0       -4.703462   -0.064925   -1.773641
     70          1           0        9.326768   -0.959957   -0.485777
     71          1           0        9.864984   -0.235729   -2.148884
     72          1           0       -4.139002   -2.538660    3.091302
     73          1           0       -6.035397   -1.649175   -2.687297
     74          1           0       -5.077870   -5.190837   -0.750225
     75          1           0       -3.759480   -6.008823   -1.903503
     76          1           0       -3.359549   -6.003378   -0.085800
     77          1           0       -1.115066    7.978147    1.482560
     78          1           0       -7.160281   -3.354191   -3.598970
     79          1           0       -6.148310   -4.775689   -2.616770
 ---------------------------------------------------------------------

 SCF Done:  E(RB3LYP) =  -1947.78484200     A.U. after   16 cycles

 Excitation energies and oscillator strengths:

 Excited State   1:      Singlet-A      1.9878 eV  623.72 nm  f=0.4973  <S**2>=0.000
     155 ->156         0.70027
     155 <-156        -0.10918
 This state for optimization and/or second-order correction.
 Total Energy, E(TD-HF/TD-DFT) =  -1947.71179084
 Copying the excited state density for this state as the 1-particle RhoCI density.

 The electronic state is 1-A.
 Alpha  occ. eigenvalues --  -19.19232 -19.17728 -19.14875 -19.12413 -19.11710
 Alpha  occ. eigenvalues --  -19.11550 -14.37629 -14.36176 -14.35161 -14.29422
 Alpha  occ. eigenvalues --  -10.33926 -10.30663 -10.29886 -10.27310 -10.26462
 Alpha  occ. eigenvalues --  -10.24209 -10.23873 -10.23735 -10.23533 -10.23079
 Alpha  occ. eigenvalues --  -10.22905 -10.22903 -10.22534 -10.21865 -10.21810
 Alpha  occ. eigenvalues --  -10.21706 -10.21675 -10.21636 -10.21471 -10.21114
 Alpha  occ. eigenvalues --  -10.20836 -10.20775 -10.20598 -10.20572 -10.20550
 Alpha  occ. eigenvalues --  -10.20462 -10.20240 -10.20192 -10.20028 -10.19857
 Alpha  occ. eigenvalues --  -10.19599 -10.19326 -10.17848  -1.10062  -1.07944
 Alpha  occ. eigenvalues --   -1.05538  -1.05026  -1.00593  -0.98973  -0.97654
 Alpha  occ. eigenvalues --   -0.96450  -0.95057  -0.91711  -0.83003  -0.82711
 Alpha  occ. eigenvalues --   -0.81738  -0.81095  -0.80307  -0.79559  -0.78456
 Alpha  occ. eigenvalues --   -0.77203  -0.75727  -0.75295  -0.73700  -0.72234
 Alpha  occ. eigenvalues --   -0.72012  -0.71287  -0.69231  -0.68952  -0.68205
 Alpha  occ. eigenvalues --   -0.65875  -0.65697  -0.62916  -0.62046  -0.59825
 Alpha  occ. eigenvalues --   -0.59337  -0.58819  -0.57913  -0.57135  -0.56660
 Alpha  occ. eigenvalues --   -0.56046  -0.54714  -0.54183  -0.54105  -0.52446
 Alpha  occ. eigenvalues --   -0.52096  -0.51506  -0.50979  -0.50509  -0.49415
 Alpha  occ. eigenvalues --   -0.48774  -0.48657  -0.48507  -0.48366  -0.47790
 Alpha  occ. eigenvalues --   -0.47518  -0.46658  -0.46263  -0.46044  -0.45561
 Alpha  occ. eigenvalues --   -0.45125  -0.44888  -0.44693  -0.44236  -0.44045
 Alpha  occ. eigenvalues --   -0.43571  -0.43476  -0.43234  -0.42806  -0.42700
 Alpha  occ. eigenvalues --   -0.42169  -0.41817  -0.41586  -0.41328  -0.41096
 Alpha  occ. eigenvalues --   -0.41020  -0.40803  -0.40274  -0.40176  -0.40055
 Alpha  occ. eigenvalues --   -0.39893  -0.39298  -0.38952  -0.38654  -0.38334
 Alpha  occ. eigenvalues --   -0.38026  -0.37270  -0.36939  -0.36721  -0.36589
 Alpha  occ. eigenvalues --   -0.36158  -0.35722  -0.35372  -0.35235  -0.34334
 Alpha  occ. eigenvalues --   -0.33519  -0.33143  -0.32823  -0.32198  -0.31756
 Alpha  occ. eigenvalues --   -0.31101  -0.30497  -0.29985  -0.29050  -0.28751
 Alpha  occ. eigenvalues --   -0.28078  -0.27313  -0.27249  -0.25313  -0.24616
 Alpha  occ. eigenvalues --   -0.23946  -0.23640  -0.22593  -0.21500  -0.18727
 Alpha virt. eigenvalues --   -0.10854  -0.07072  -0.06606  -0.03189  -0.01784
 Alpha virt. eigenvalues --   -0.00531   0.00533   0.01473   0.02434   0.02777
 Alpha virt. eigenvalues --    0.03039   0.03979   0.04393   0.04933   0.05012

 Mulliken charges:
               1
     1  O   -0.170169
     2  O   -0.173700
     3  O   -0.255121
     4  O   -0.243334
     5  O   -0.241516
     6  O   -0.134440
     7  N   -0.166693
     8  N   -0.142334
     9  N   -0.151361
    10  N   -0.338581
    11  C    0.045494
    12  C    0.039754
    13  C   -0.020134
    14  C   -0.063951
    15  C   -0.066110
    16  C    0.116076
    17  C   -0.129091
    18  C    0.070525
    19  C   -0.093389
    20  C   -0.154029
    21  C    0.091271
    22  C    0.145891
    23  C   -0.060800
    24  C   -0.035005
    25  C    0.104690
    26  C   -0.117734
    27  C   -0.093429
    28  C    0.091009
    29  C    0.043805
    30  C    0.017133
    31  C   -0.007740
    32  C    0.158200
    33  C   -0.056867
    34  C    0.149229
    35  C    0.092875
    36  C   -0.073571
    37  C    0.219164
    38  C    0.147580
    39  C   -0.183631
    40  C    0.170783
    41  C   -0.098565
    42  C   -0.055536
    43  C   -0.145629
    44  H    0.037878
    45  H    0.034529
    46  H    0.027044
    47  H    0.120061
    48  H    0.110464
    49  H    0.029676
    50  H    0.041426
    51  H    0.044274
    52  H    0.031040
    53  H    0.039276
    54  H    0.046681
    55  H    0.007674
    56  H    0.062277
    57  H    0.030832
    58  H    0.070390
    59  H    0.044985
    60  H    0.217470
    61  H   -0.010596
    62  H    0.035461
    63  H   -0.006579
    64  H    0.068443
    65  H   -0.004336
    66  H   -0.059043
    67  H    0.054412
    68  H    0.035966
    69  H   -0.082827
    70  H    0.027178
    71  H    0.033829
    72  H    0.190900
    73  H    0.038091
    74  H    0.037910
    75  H    0.054694
    76  H    0.064919
    77  H    0.203042
    78  H    0.048507
    79  H    0.043032
 Sum of Mulliken charges =  -0.00000

 Dipole moment (field-independent basis, Debye):
    X=              1.7533    Y=              1.6221    Z=              2.4881  Tot=              3.4490
 Quadrupole moment (field-independent basis, Debye-Ang):
   XX=           -223.1599   YY=           -247.3678   ZZ=           -265.9474
   XY=             -8.1741   XZ=             31.3022   YZ=              4.8160

 Normal termination of Gaussian 16 at Fri Sep 20 22:22:01 2019.
