 Gaussian 16, Revision A.03,
 Gaussian 16:  ES64L-G16RevA.03 25-Dec-2016

 --------------------------
 # td=(NStates=1) B3LYP/SVP
 --------------------------

 --
 TD
 --
 Symbolic Z-matrix:
 Charge =  0 Multiplicity = 1

                         Standard orientation:
 ---------------------------------------------------------------------
 Center     Atomic      Atomic             Coordinates (Angstroms)
 Number     Number       Type             X           Y           Z
 ---------------------------------------------------------------------
      1          8           0        5.363411    0.069246   -3.312949
      2          8           0       -2.824417   -2.965531    3.402848
      3          8           0       -3.292410   -0.808831    3.055075
      4          8           0       -2.138502    7.047110    1.528783
      5          8           0       -1.427417    7.034013   -0.722103
      6          8           0       -1.317405   -3.887050    0.262604
      7          7           0        2.248070    1.224942    0.599161
      8          7           0        4.276493   -0.212871   -1.251817
      9          7           0       -1.816005    0.564806   -0.507504
     10          7           0       -2.341416   -2.026713   -0.479682
     11          6           0        4.701818   -0.792836   -0.032821
     12          6           0        4.321826   -0.003988    1.310739
     13          6           0        2.883565    0.229634    1.404716
     14          6           0        1.922043   -0.370940    2.244645
     15          6           0        0.706232    0.215950    1.857680
     16          6           0        0.951005    1.131522    0.854722
     17          6           0        6.102012   -1.115224   -0.122473
     18          6           0       -0.622930   -0.124337    2.657354
     19          6           0        6.602889   -0.652894   -1.347534
     20          6           0       -0.001969    2.168326    0.167372
     21          6           0       -1.249026    1.795875   -0.341816
     22          6           0        5.414549   -0.261430   -2.187060
     23          6           0       -2.195317    2.766778   -0.981656
     24          6           0        2.253492   -1.399295    3.267457
     25          6           0        7.074238   -1.655624    0.910821
     26          6           0       -3.230944    2.139047   -1.520345
     27          6           0       -1.003776   -1.651224    2.634773
     28          6           0       -3.051129    0.718498   -1.172669
     29          6           0       -1.898315    4.154176   -1.079449
     30          6           0        7.866381   -0.626363   -2.015722
     31          6           0       -2.289491    4.932042    0.308016
     32          6           0       -4.520041    2.476326   -2.073100
     33          6           0       -3.810864   -0.380646   -1.433495
     34          6           0       -2.495338   -1.696881    3.023919
     35          6           0       -3.465357   -1.742494   -1.165102
     36          6           0        9.081379   -0.526636   -1.410189
     37          6           0       -1.927468    6.478559    0.269320
     38          6           0       -4.185673   -2.946801   -1.435717
     39          6           0       -3.344145   -4.000868   -1.000012
     40          6           0       -2.148491   -3.393876   -0.351756
     41          6           0       -5.437173   -2.964909   -2.206343
     42          6           0       -3.529701   -5.400799   -1.017633
     43          6           0       -6.183829   -4.033056   -2.538134
     44          1           0        4.164929   -1.657655    0.267706
     45          1           0        4.910090    1.029672    1.233078
     46          1           0        4.694688   -0.597687    2.143531
     47          1           0        2.584776    1.902081   -0.019520
     48          1           0        3.362358   -0.282150   -1.563538
     49          1           0       -0.471866    0.351130    3.718882
     50          1           0       -1.470891    0.481240    2.287777
     51          1           0        0.305857    3.120734   -0.077772
     52          1           0        3.396194   -1.770412    3.319206
     53          1           0        1.989372   -0.974740    4.315506
     54          1           0        1.476470   -2.211210    2.836372
     55          1           0        6.655786   -2.403837    1.764171
     56          1           0        7.340339   -0.780835    1.613420
     57          1           0        7.810803   -2.268141    0.386698
     58          1           0       -0.657943   -1.998095    1.654445
     59          1           0       -0.483778   -2.230494    3.419575
     60          1           0       -1.487376   -0.490679   -0.325246
     61          1           0       -2.533253    4.677793   -1.715029
     62          1           0       -0.780949    4.289465   -1.430314
     63          1           0        8.009779   -0.590380   -3.122637
     64          1           0       -1.700829    4.502596    1.245745
     65          1           0       -3.291547    4.857891    0.578419
     66          1           0       -4.270889    3.427068   -2.552449
     67          1           0       -5.321580    2.670817   -1.301659
     68          1           0       -4.799724    1.802037   -2.963806
     69          1           0       -4.727424   -0.115472   -1.969686
     70          1           0        9.252963   -0.398568   -0.425447
     71          1           0       10.035346   -0.379231   -2.050978
     72          1           0       -3.920394   -2.896120    3.408416
     73          1           0       -5.835128   -2.160185   -2.615325
     74          1           0       -4.364514   -5.819473   -0.323861
     75          1           0       -3.483128   -5.894954   -2.052242
     76          1           0       -2.445411   -5.861389   -0.667429
     77          1           0       -2.037527    8.141595    1.299570
     78          1           0       -7.234009   -3.916769   -3.168566
     79          1           0       -5.890389   -5.112128   -2.253230
 ---------------------------------------------------------------------

 SCF Done:  E(RB3LYP) =  -1947.85345461     A.U. after   17 cycles

 Excitation energies and oscillator strengths:

 Excited State   1:      Singlet-A      1.8316 eV  676.90 nm  f=0.3055  <S**2>=0.000
     153 ->156         0.10466
     155 ->156         0.69813
 This state for optimization and/or second-order correction.
 Total Energy, E(TD-HF/TD-DFT) =  -1947.78614292
 Copying the excited state density for this state as the 1-particle RhoCI density.

 The electronic state is 1-A.
 Alpha  occ. eigenvalues --  -19.20344 -19.17086 -19.14458 -19.11940 -19.11648
 Alpha  occ. eigenvalues --  -19.10622 -14.37395 -14.35647 -14.33718 -14.28427
 Alpha  occ. eigenvalues --  -10.33798 -10.30652 -10.28220 -10.26319 -10.24220
 Alpha  occ. eigenvalues --  -10.24068 -10.23696 -10.23180 -10.22776 -10.22476
 Alpha  occ. eigenvalues --  -10.22182 -10.22159 -10.21735 -10.21589 -10.21490
 Alpha  occ. eigenvalues --  -10.21415 -10.21411 -10.21098 -10.21069 -10.20816
 Alpha  occ. eigenvalues --  -10.20696 -10.20412 -10.20214 -10.20097 -10.20030
 Alpha  occ. eigenvalues --  -10.19825 -10.19588 -10.19299 -10.19257 -10.19102
 Alpha  occ. eigenvalues --  -10.18966 -10.18525 -10.18061  -1.07797  -1.07384
 Alpha  occ. eigenvalues --   -1.06525  -1.04344  -0.99888  -0.98683  -0.98392
 Alpha  occ. eigenvalues --   -0.96917  -0.93655  -0.92745  -0.83648  -0.81834
 Alpha  occ. eigenvalues --   -0.81310  -0.81016  -0.80252  -0.78959  -0.77426
 Alpha  occ. eigenvalues --   -0.76540  -0.75847  -0.75069  -0.74294  -0.72384
 Alpha  occ. eigenvalues --   -0.71009  -0.70719  -0.69971  -0.68447  -0.67973
 Alpha  occ. eigenvalues --   -0.65188  -0.64917  -0.63352  -0.60620  -0.59591
 Alpha  occ. eigenvalues --   -0.58483  -0.57876  -0.57254  -0.56845  -0.55971
 Alpha  occ. eigenvalues --   -0.55548  -0.55309  -0.54804  -0.53991  -0.53271
 Alpha  occ. eigenvalues --   -0.52210  -0.51441  -0.50895  -0.50304  -0.49043
 Alpha  occ. eigenvalues --   -0.48841  -0.48507  -0.47987  -0.47760  -0.47433
 Alpha  occ. eigenvalues --   -0.47327  -0.46723  -0.46346  -0.46159  -0.45668
 Alpha  occ. eigenvalues --   -0.45613  -0.45277  -0.44990  -0.44112  -0.44020
 Alpha  occ. eigenvalues --   -0.43634  -0.43283  -0.42937  -0.42754  -0.42476
 Alpha  occ. eigenvalues --   -0.42195  -0.42024  -0.41834  -0.41151  -0.41120
 Alpha  occ. eigenvalues --   -0.40940  -0.40489  -0.40323  -0.39688  -0.39464
 Alpha  occ. eigenvalues --   -0.39170  -0.39067  -0.38963  -0.38520  -0.38307
 Alpha  occ. eigenvalues --   -0.37822  -0.37640  -0.37209  -0.37022  -0.36596
 Alpha  occ. eigenvalues --   -0.36047  -0.35786  -0.35260  -0.34996  -0.34883
 Alpha  occ. eigenvalues --   -0.33570  -0.33153  -0.32958  -0.32056  -0.31287
 Alpha  occ. eigenvalues --   -0.31127  -0.30841  -0.29153  -0.28457  -0.28145
 Alpha  occ. eigenvalues --   -0.27458  -0.26210  -0.26120  -0.25682  -0.24372
 Alpha  occ. eigenvalues --   -0.24148  -0.23541  -0.22723  -0.21799  -0.18860
 Alpha virt. eigenvalues --   -0.11408  -0.06350  -0.05717  -0.01814  -0.00515
 Alpha virt. eigenvalues --    0.00197   0.01246   0.01384   0.01705   0.03176
 Alpha virt. eigenvalues --    0.03573   0.03585   0.05131   0.05309   0.05689

 Mulliken charges:
               1
     1  O   -0.158621
     2  O   -0.252967
     3  O   -0.212961
     4  O   -0.275119
     5  O   -0.245248
     6  O   -0.107992
     7  N   -0.029356
     8  N   -0.202390
     9  N   -0.141309
    10  N   -0.320799
    11  C    0.157547
    12  C    0.131157
    13  C   -0.087197
    14  C   -0.081937
    15  C   -0.138487
    16  C   -0.000205
    17  C   -0.138472
    18  C    0.041808
    19  C   -0.048123
    20  C   -0.053555
    21  C    0.133126
    22  C    0.144030
    23  C   -0.097110
    24  C   -0.011056
    25  C    0.020465
    26  C   -0.083496
    27  C   -0.022555
    28  C    0.070261
    29  C    0.086512
    30  C   -0.033177
    31  C   -0.048609
    32  C    0.094259
    33  C   -0.091402
    34  C    0.160294
    35  C    0.114756
    36  C   -0.041525
    37  C    0.190080
    38  C    0.110220
    39  C   -0.205994
    40  C    0.141755
    41  C    0.034473
    42  C   -0.018735
    43  C   -0.106560
    44  H   -0.017850
    45  H    0.004823
    46  H   -0.020773
    47  H    0.097200
    48  H    0.102861
    49  H    0.017417
    50  H    0.019578
    51  H   -0.043517
    52  H    0.035467
    53  H    0.047683
    54  H    0.074581
    55  H    0.020857
    56  H    0.057438
    57  H    0.055438
    58  H    0.089061
    59  H    0.037039
    60  H    0.197319
    61  H   -0.012016
    62  H    0.053807
    63  H    0.026423
    64  H    0.067483
    65  H    0.024071
    66  H   -0.000606
    67  H    0.060733
    68  H    0.041115
    69  H   -0.037779
    70  H   -0.016483
    71  H    0.033509
    72  H    0.218788
    73  H   -0.072231
    74  H    0.063227
    75  H    0.041223
    76  H    0.032690
    77  H    0.241578
    78  H    0.048836
    79  H    0.035225
 Sum of Mulliken charges =  -0.00000

 Dipole moment (field-independent basis, Debye):
    X=             -1.6448    Y=              2.1130    Z=              1.7568  Tot=              3.2026
 Quadrupole moment (field-independent basis, Debye-Ang):
   XX=           -223.6773   YY=           -240.6793   ZZ=           -264.4709
   XY=             -8.8564   XZ=             30.9660   YZ=              7.7334

 Normal termination of Gaussian 16 at Tue Oct  1 21:57:34 2019.
