 Gaussian 16, Revision A.03,
 Gaussian 16:  ES64L-G16RevA.03 25-Dec-2016

 --------------------------
 # td=(NStates=1) B3LYP/SVP
 --------------------------

 --
 TD
 --
 Symbolic Z-matrix:
 Charge =  0 Multiplicity = 1

                         Standard orientation:
 ---------------------------------------------------------------------
 Center     Atomic      Atomic             Coordinates (Angstroms)
 Number     Number       Type             X           Y           Z
 ---------------------------------------------------------------------
      1          8           0       -3.305693   -1.614390   -2.673056
      2          8           0        2.881739    3.612530    2.851122
      3          8           0        3.845334    1.983337    4.098377
      4          8           0        7.860184   -1.319393   -0.704527
      5          8           0        6.854381   -3.058120   -1.734433
      6          8           0       -2.544095    1.990331    1.341647
      7          7           0       -0.191644   -2.387205    1.250993
      8          7           0       -2.690204   -1.247493   -0.600417
      9          7           0        1.156222   -0.041501   -0.715160
     10          7           0       -0.984655    1.502065   -0.190164
     11          6           0       -3.266334   -1.187814    0.777323
     12          6           0       -2.713989   -2.044774    1.897600
     13          6           0       -1.217837   -1.794640    2.019632
     14          6           0       -0.614005   -0.879808    2.853457
     15          6           0        0.744903   -0.801121    2.576251
     16          6           0        0.991799   -1.859266    1.510357
     17          6           0       -4.725745   -1.788589    0.413543
     18          6           0        1.898406    0.027938    3.274604
     19          6           0       -4.727737   -2.281452   -0.849818
     20          6           0        2.169022   -1.907703    0.519604
     21          6           0        2.124590   -1.056408   -0.525246
     22          6           0       -3.567983   -1.689051   -1.518217
     23          6           0        2.990379   -0.875499   -1.705818
     24          6           0       -1.258220    0.065852    3.864683
     25          6           0       -5.771804   -1.934361    1.518555
     26          6           0        2.512323    0.063249   -2.517846
     27          6           0        1.787793    1.430124    2.723577
     28          6           0        1.308473    0.597586   -1.888358
     29          6           0        4.237046   -1.900498   -1.784859
     30          6           0       -5.730483   -2.852095   -1.629326
     31          6           0        5.392979   -1.238231   -1.032863
     32          6           0        3.088444    0.509533   -3.835803
     33          6           0        0.455560    1.629635   -2.262333
     34          6           0        2.894436    2.309531    3.329809
     35          6           0       -0.599747    2.131539   -1.344750
     36          6           0       -6.794360   -3.507809   -1.256082
     37          6           0        6.783390   -1.995733   -1.154533
     38          6           0       -1.484697    3.369750   -1.609575
     39          6           0       -2.275175    3.360556   -0.525320
     40          6           0       -1.980463    2.191133    0.303553
     41          6           0       -1.298773    4.197102   -2.885129
     42          6           0       -3.486553    4.225337   -0.177192
     43          6           0       -2.281466    5.098334   -3.357439
     44          1           0       -3.361979   -0.202132    1.215876
     45          1           0       -2.767729   -3.137683    1.738394
     46          1           0       -3.034359   -2.014302    2.981759
     47          1           0       -0.426781   -2.972030    0.489877
     48          1           0       -1.991610   -0.503579   -0.504967
     49          1           0        1.853952    0.050349    4.310306
     50          1           0        2.910829   -0.079222    2.972536
     51          1           0        2.826479   -2.647092    0.731051
     52          1           0       -2.274360   -0.623104    4.072924
     53          1           0       -0.863168    0.547199    4.669355
     54          1           0       -1.840769    0.731407    3.088363
     55          1           0       -5.706547   -1.410447    2.542449
     56          1           0       -5.678700   -3.003851    1.816188
     57          1           0       -6.922656   -1.716999    1.236244
     58          1           0        1.881083    1.451507    1.792021
     59          1           0        0.897225    1.981258    3.141176
     60          1           0        0.452756    0.757309   -0.084983
     61          1           0        4.360282   -2.182737   -2.900410
     62          1           0        4.010676   -2.766070   -1.345407
     63          1           0       -5.611527   -2.584150   -2.750038
     64          1           0        5.246221   -1.394178    0.055368
     65          1           0        5.646921   -0.280426   -1.153490
     66          1           0        4.005255   -0.135974   -4.280427
     67          1           0        3.483007    1.622765   -3.665784
     68          1           0        2.273863    0.504249   -4.709262
     69          1           0        0.736714    2.201615   -3.275180
     70          1           0       -7.049998   -4.034374   -0.298391
     71          1           0       -7.683384   -3.791523   -2.020659
     72          1           0        3.755901    3.914884    3.270960
     73          1           0       -0.378033    4.125436   -3.322400
     74          1           0       -4.396492    4.054465   -0.908490
     75          1           0       -3.736581    3.986208    0.885683
     76          1           0       -3.274775    5.373459   -0.211435
     77          1           0        8.589906   -1.981435   -0.728431
     78          1           0       -2.139384    5.668010   -4.259974
     79          1           0       -3.060088    5.281691   -2.572851
 ---------------------------------------------------------------------

 SCF Done:  E(RB3LYP) =  -1947.78048539     A.U. after   16 cycles

 Excitation energies and oscillator strengths:

 Excited State   1:      Singlet-A      0.9950 eV 1246.02 nm  f=0.0000  <S**2>=0.000
     155 ->156         0.70383
 This state for optimization and/or second-order correction.
 Total Energy, E(TD-HF/TD-DFT) =  -1947.74391841
 Copying the excited state density for this state as the 1-particle RhoCI density.

 The electronic state is 1-A.
 Alpha  occ. eigenvalues --  -19.19981 -19.18014 -19.13446 -19.12809 -19.12077
 Alpha  occ. eigenvalues --  -19.07803 -14.37227 -14.36541 -14.32698 -14.32460
 Alpha  occ. eigenvalues --  -10.33115 -10.32096 -10.27830 -10.27422 -10.26355
 Alpha  occ. eigenvalues --  -10.26302 -10.25644 -10.23955 -10.22745 -10.22702
 Alpha  occ. eigenvalues --  -10.22561 -10.22507 -10.22464 -10.22412 -10.22380
 Alpha  occ. eigenvalues --  -10.22255 -10.21890 -10.21826 -10.21492 -10.21427
 Alpha  occ. eigenvalues --  -10.20978 -10.20925 -10.20792 -10.20183 -10.19707
 Alpha  occ. eigenvalues --  -10.19230 -10.18986 -10.18546 -10.18407 -10.18291
 Alpha  occ. eigenvalues --  -10.18122 -10.17518 -10.17015  -1.10834  -1.07590
 Alpha  occ. eigenvalues --   -1.05406  -1.02608  -1.01517  -0.99070  -0.97588
 Alpha  occ. eigenvalues --   -0.96947  -0.95613  -0.91714  -0.83327  -0.81857
 Alpha  occ. eigenvalues --   -0.81366  -0.81232  -0.81014  -0.79031  -0.78924
 Alpha  occ. eigenvalues --   -0.76740  -0.76376  -0.75517  -0.74069  -0.71951
 Alpha  occ. eigenvalues --   -0.70229  -0.69957  -0.68860  -0.68400  -0.67211
 Alpha  occ. eigenvalues --   -0.66616  -0.65858  -0.63133  -0.61666  -0.60931
 Alpha  occ. eigenvalues --   -0.60769  -0.60396  -0.57522  -0.57342  -0.56617
 Alpha  occ. eigenvalues --   -0.56308  -0.56132  -0.55080  -0.54540  -0.53251
 Alpha  occ. eigenvalues --   -0.51868  -0.50999  -0.50801  -0.50083  -0.49611
 Alpha  occ. eigenvalues --   -0.49077  -0.48947  -0.48612  -0.48121  -0.48092
 Alpha  occ. eigenvalues --   -0.47545  -0.47465  -0.47075  -0.46912  -0.45781
 Alpha  occ. eigenvalues --   -0.45355  -0.45172  -0.44379  -0.44021  -0.43858
 Alpha  occ. eigenvalues --   -0.43540  -0.43181  -0.42906  -0.42674  -0.42203
 Alpha  occ. eigenvalues --   -0.41818  -0.41718  -0.41585  -0.41267  -0.41034
 Alpha  occ. eigenvalues --   -0.40688  -0.40519  -0.40286  -0.40053  -0.39843
 Alpha  occ. eigenvalues --   -0.39447  -0.39100  -0.38643  -0.38315  -0.38083
 Alpha  occ. eigenvalues --   -0.37861  -0.37221  -0.37198  -0.37062  -0.36338
 Alpha  occ. eigenvalues --   -0.35812  -0.35293  -0.34945  -0.34818  -0.34178
 Alpha  occ. eigenvalues --   -0.33771  -0.33507  -0.32394  -0.31414  -0.31324
 Alpha  occ. eigenvalues --   -0.30985  -0.30708  -0.30293  -0.29354  -0.28659
 Alpha  occ. eigenvalues --   -0.27826  -0.27481  -0.26711  -0.24956  -0.24741
 Alpha  occ. eigenvalues --   -0.24170  -0.23045  -0.22760  -0.22590  -0.18618
 Alpha virt. eigenvalues --   -0.12441  -0.07321  -0.04056  -0.03214  -0.00816
 Alpha virt. eigenvalues --   -0.00084   0.01844   0.02454   0.03206   0.03307
 Alpha virt. eigenvalues --    0.03509   0.04292   0.04880   0.05435   0.05507

 Mulliken charges:
               1
     1  O   -0.197647
     2  O   -0.225129
     3  O   -0.289209
     4  O   -0.181176
     5  O   -0.228579
     6  O   -0.186138
     7  N   -0.002674
     8  N   -0.177048
     9  N   -0.208801
    10  N   -0.261037
    11  C    0.102143
    12  C    0.196989
    13  C   -0.189816
    14  C   -0.095730
    15  C   -0.156436
    16  C   -0.050339
    17  C   -0.165774
    18  C    0.189409
    19  C   -0.027890
    20  C   -0.088137
    21  C    0.210984
    22  C    0.121194
    23  C   -0.097548
    24  C    0.085163
    25  C   -0.001700
    26  C   -0.091744
    27  C    0.085511
    28  C    0.075522
    29  C    0.194854
    30  C    0.009612
    31  C    0.050231
    32  C   -0.033051
    33  C   -0.098498
    34  C    0.134645
    35  C    0.038790
    36  C   -0.112829
    37  C    0.102309
    38  C    0.063532
    39  C   -0.217228
    40  C    0.129705
    41  C    0.005957
    42  C    0.013578
    43  C    0.007561
    44  H    0.031248
    45  H   -0.032033
    46  H    0.021842
    47  H    0.100827
    48  H    0.143466
    49  H   -0.013167
    50  H   -0.018994
    51  H   -0.025721
    52  H   -0.015963
    53  H    0.003866
    54  H    0.057871
    55  H    0.029744
    56  H    0.037464
    57  H    0.054123
    58  H   -0.052262
    59  H    0.050734
    60  H    0.287665
    61  H    0.040175
    62  H   -0.030760
    63  H    0.036445
    64  H    0.037670
    65  H   -0.002304
    66  H    0.053747
    67  H    0.054588
    68  H    0.061746
    69  H    0.029329
    70  H    0.022975
    71  H    0.030867
    72  H    0.191791
    73  H   -0.030244
    74  H    0.061555
    75  H    0.042640
    76  H    0.039243
    77  H    0.191481
    78  H    0.036336
    79  H    0.038478
 Sum of Mulliken charges =  -0.00000

 Dipole moment (field-independent basis, Debye):
    X=              2.7496    Y=              2.2907    Z=             -1.4193  Tot=              3.8499
 Quadrupole moment (field-independent basis, Debye-Ang):
   XX=           -237.1880   YY=           -241.7116   ZZ=           -264.5577
   XY=              0.2165   XZ=            -21.0453   YZ=            -20.7062

 Normal termination of Gaussian 16 at Thu Jul 25 19:01:43 2019.
