 Gaussian 16, Revision A.03,
 Gaussian 16:  ES64L-G16RevA.03 25-Dec-2016

 --------------------------
 # td=(NStates=1) B3LYP/SVP
 --------------------------

 --
 TD
 --
 Symbolic Z-matrix:
 Charge =  0 Multiplicity = 1

                         Standard orientation:
 ---------------------------------------------------------------------
 Center     Atomic      Atomic             Coordinates (Angstroms)
 Number     Number       Type             X           Y           Z
 ---------------------------------------------------------------------
      1          8           0        5.410664   -0.192876   -3.369947
      2          8           0       -3.028900   -2.856343    3.380216
      3          8           0       -3.285382   -0.690764    3.131638
      4          8           0       -1.541641    7.146150    1.652546
      5          8           0       -0.681789    6.956036   -0.514692
      6          8           0       -1.727788   -4.019620    0.038804
      7          7           0        2.381452    0.901444    0.559472
      8          7           0        4.441193   -0.598326   -1.275541
      9          7           0       -1.810130    0.637512   -0.550819
     10          7           0       -2.608411   -1.867156   -0.546706
     11          6           0        4.796331   -1.195813   -0.019578
     12          6           0        4.366353   -0.237375    1.302836
     13          6           0        2.979452   -0.005562    1.308979
     14          6           0        1.983730   -0.575865    2.184318
     15          6           0        0.779160    0.017644    1.807377
     16          6           0        0.999169    0.896050    0.740768
     17          6           0        6.282571   -1.373020   -0.138644
     18          6           0       -0.563541   -0.231523    2.469468
     19          6           0        6.705220   -0.932428   -1.400149
     20          6           0        0.255370    1.960196    0.007442
     21          6           0       -1.105710    1.873159   -0.432809
     22          6           0        5.429511   -0.572920   -2.176099
     23          6           0       -2.001686    2.889001   -0.922533
     24          6           0        2.237953   -1.629630    3.233750
     25          6           0        7.154445   -1.937003    0.983018
     26          6           0       -3.136359    2.381674   -1.339961
     27          6           0       -1.148672   -1.689322    2.465662
     28          6           0       -3.014326    0.874950   -1.070815
     29          6           0       -1.541564    4.363426   -0.944368
     30          6           0        8.108944   -0.846965   -2.028051
     31          6           0       -1.868274    5.116680    0.365931
     32          6           0       -4.242622    2.987815   -2.077655
     33          6           0       -3.913615   -0.094715   -1.474175
     34          6           0       -2.591974   -1.641426    3.017286
     35          6           0       -3.737847   -1.438197   -1.129903
     36          6           0        9.218045   -0.876525   -1.431478
     37          6           0       -1.221288    6.547293    0.500535
     38          6           0       -4.690927   -2.592417   -1.498481
     39          6           0       -4.079711   -3.650956   -0.986919
     40          6           0       -2.668209   -3.252569   -0.409793
     41          6           0       -6.023211   -2.427989   -2.114957
     42          6           0       -4.438727   -5.138807   -1.009447
     43          6           0       -6.907206   -3.446467   -2.362328
     44          1           0        4.208475   -2.077389    0.020282
     45          1           0        5.127354    0.685242    1.409403
     46          1           0        4.690894   -0.873933    2.241103
     47          1           0        2.864637    1.209448   -0.138243
     48          1           0        3.526830   -1.048620   -1.850143
     49          1           0       -0.541833    0.072581    3.436155
     50          1           0       -1.159310    0.450997    1.946737
     51          1           0        0.877335    2.986271    0.010288
     52          1           0        3.345709   -1.514263    3.567021
     53          1           0        1.611184   -1.358244    4.105802
     54          1           0        1.926321   -2.550872    3.025175
     55          1           0        6.564344   -2.531708    1.650954
     56          1           0        7.347004   -0.964948    1.541165
     57          1           0        8.141215   -2.494151    0.549670
     58          1           0       -1.194932   -1.943580    1.353901
     59          1           0       -0.584134   -2.266492    3.058786
     60          1           0       -1.541698   -0.229192   -0.395423
     61          1           0       -2.070896    5.000911   -1.748271
     62          1           0       -0.531684    4.199825   -1.051469
     63          1           0        8.061760   -0.490194   -3.017813
     64          1           0       -1.511125    4.597592    1.321620
     65          1           0       -3.066838    5.159511    0.532164
     66          1           0       -3.940850    4.019469   -2.518448
     67          1           0       -4.925008    2.985173   -1.416857
     68          1           0       -4.332681    2.304855   -3.025576
     69          1           0       -4.896798    0.110909   -1.891378
     70          1           0        9.208629   -0.887433   -0.304637
     71          1           0       10.258645   -0.925914   -1.941531
     72          1           0       -3.998342   -2.811002    3.723355
     73          1           0       -6.233894   -1.370485   -2.240707
     74          1           0       -5.481590   -5.316109   -0.476742
     75          1           0       -4.605860   -5.665763   -2.006484
     76          1           0       -3.747278   -5.746520   -0.386543
     77          1           0       -1.135695    8.096225    1.624287
     78          1           0       -7.979003   -3.421530   -3.041917
     79          1           0       -6.675639   -4.367991   -2.034396
 ---------------------------------------------------------------------

 SCF Done:  E(RB3LYP) =  -1947.82914731     A.U. after   16 cycles

 Excitation energies and oscillator strengths:

 Excited State   1:      Singlet-A      2.1870 eV  566.92 nm  f=0.4821  <S**2>=0.000
     155 ->156         0.69732
 This state for optimization and/or second-order correction.
 Total Energy, E(TD-HF/TD-DFT) =  -1947.74877720
 Copying the excited state density for this state as the 1-particle RhoCI density.

 The electronic state is 1-A.
 Alpha  occ. eigenvalues --  -19.21269 -19.16400 -19.13663 -19.10777 -19.10289
 Alpha  occ. eigenvalues --  -19.09949 -14.37251 -14.37059 -14.36987 -14.29207
 Alpha  occ. eigenvalues --  -10.33379 -10.29958 -10.28612 -10.27099 -10.25643
 Alpha  occ. eigenvalues --  -10.25398 -10.25386 -10.24059 -10.23596 -10.23595
 Alpha  occ. eigenvalues --  -10.23064 -10.22836 -10.22395 -10.22390 -10.22326
 Alpha  occ. eigenvalues --  -10.21049 -10.20985 -10.20904 -10.20698 -10.20583
 Alpha  occ. eigenvalues --  -10.20501 -10.20293 -10.19934 -10.19855 -10.19605
 Alpha  occ. eigenvalues --  -10.19429 -10.19314 -10.19211 -10.18999 -10.18909
 Alpha  occ. eigenvalues --  -10.18735 -10.18083 -10.17186  -1.10420  -1.08261
 Alpha  occ. eigenvalues --   -1.02029  -1.01519  -1.00469  -0.99597  -0.98943
 Alpha  occ. eigenvalues --   -0.97421  -0.94700  -0.91171  -0.84006  -0.82132
 Alpha  occ. eigenvalues --   -0.81562  -0.81087  -0.80122  -0.79706  -0.77606
 Alpha  occ. eigenvalues --   -0.77238  -0.76231  -0.75309  -0.73812  -0.73535
 Alpha  occ. eigenvalues --   -0.72071  -0.70938  -0.69924  -0.68855  -0.68597
 Alpha  occ. eigenvalues --   -0.67437  -0.66452  -0.63818  -0.60954  -0.60049
 Alpha  occ. eigenvalues --   -0.59603  -0.59407  -0.58958  -0.58382  -0.57503
 Alpha  occ. eigenvalues --   -0.55910  -0.55396  -0.54896  -0.53966  -0.53351
 Alpha  occ. eigenvalues --   -0.52131  -0.51735  -0.51153  -0.50231  -0.49558
 Alpha  occ. eigenvalues --   -0.49402  -0.48871  -0.48250  -0.47937  -0.47689
 Alpha  occ. eigenvalues --   -0.47143  -0.46925  -0.46360  -0.46274  -0.46015
 Alpha  occ. eigenvalues --   -0.45443  -0.44969  -0.44118  -0.43963  -0.43639
 Alpha  occ. eigenvalues --   -0.43381  -0.43112  -0.43034  -0.42862  -0.42521
 Alpha  occ. eigenvalues --   -0.42252  -0.42146  -0.41988  -0.41773  -0.41303
 Alpha  occ. eigenvalues --   -0.40581  -0.40100  -0.39944  -0.39574  -0.39485
 Alpha  occ. eigenvalues --   -0.39095  -0.39023  -0.38427  -0.38382  -0.37997
 Alpha  occ. eigenvalues --   -0.37839  -0.37681  -0.37385  -0.37000  -0.36779
 Alpha  occ. eigenvalues --   -0.36101  -0.35604  -0.35040  -0.34733  -0.34479
 Alpha  occ. eigenvalues --   -0.34351  -0.33895  -0.33415  -0.32885  -0.31180
 Alpha  occ. eigenvalues --   -0.31089  -0.30819  -0.28482  -0.28181  -0.27358
 Alpha  occ. eigenvalues --   -0.27191  -0.27010  -0.26500  -0.25374  -0.25079
 Alpha  occ. eigenvalues --   -0.24456  -0.23799  -0.23437  -0.22452  -0.19311
 Alpha virt. eigenvalues --   -0.10591  -0.06191  -0.05422  -0.01502  -0.01065
 Alpha virt. eigenvalues --   -0.00062   0.00496   0.01825   0.02098   0.03066
 Alpha virt. eigenvalues --    0.03316   0.03801   0.04310   0.05087   0.05394

 Mulliken charges:
               1
     1  O   -0.259156
     2  O   -0.212270
     3  O   -0.208248
     4  O   -0.189314
     5  O   -0.230642
     6  O   -0.277771
     7  N    0.067774
     8  N   -0.208446
     9  N    0.024968
    10  N   -0.292646
    11  C    0.120488
    12  C    0.021211
    13  C   -0.090406
    14  C   -0.142479
    15  C   -0.118290
    16  C    0.018106
    17  C   -0.202518
    18  C    0.167585
    19  C   -0.082538
    20  C   -0.125072
    21  C    0.104607
    22  C    0.130434
    23  C   -0.084565
    24  C    0.149162
    25  C    0.059488
    26  C   -0.174545
    27  C    0.045750
    28  C    0.104773
    29  C    0.184122
    30  C    0.065151
    31  C   -0.102454
    32  C    0.158588
    33  C   -0.111108
    34  C    0.099946
    35  C    0.056661
    36  C   -0.063812
    37  C    0.166839
    38  C    0.043398
    39  C   -0.195730
    40  C    0.203633
    41  C    0.016345
    42  C    0.024416
    43  C   -0.019272
    44  H    0.008250
    45  H    0.038514
    46  H    0.014282
    47  H    0.046800
    48  H    0.182447
    49  H   -0.032533
    50  H   -0.029403
    51  H    0.056954
    52  H    0.015807
    53  H    0.004834
    54  H    0.010630
    55  H    0.016978
    56  H    0.048601
    57  H    0.080352
    58  H    0.101582
    59  H   -0.024128
    60  H    0.066275
    61  H    0.030669
    62  H   -0.014253
    63  H   -0.005301
    64  H    0.038774
    65  H    0.054539
    66  H    0.032479
    67  H   -0.011446
    68  H    0.054482
    69  H   -0.030241
    70  H    0.019162
    71  H    0.045823
    72  H    0.201655
    73  H   -0.020316
    74  H    0.028083
    75  H    0.044994
    76  H    0.032188
    77  H    0.214922
    78  H    0.060680
    79  H   -0.025299
 Sum of Mulliken charges =  -0.00000

 Dipole moment (field-independent basis, Debye):
    X=              0.1247    Y=              3.2622    Z=              3.8673  Tot=              5.0610
 Quadrupole moment (field-independent basis, Debye-Ang):
   XX=           -221.2963   YY=           -239.5910   ZZ=           -262.8146
   XY=            -11.1356   XZ=             32.4171   YZ=              6.8263

 Normal termination of Gaussian 16 at Thu Sep 26 19:57:19 2019.
