 Gaussian 16, Revision A.03,
 Gaussian 16:  ES64L-G16RevA.03 25-Dec-2016

 --------------------------
 # td=(NStates=1) B3LYP/SVP
 --------------------------

 --
 TD
 --
 Symbolic Z-matrix:
 Charge =  0 Multiplicity = 1

                         Standard orientation:
 ---------------------------------------------------------------------
 Center     Atomic      Atomic             Coordinates (Angstroms)
 Number     Number       Type             X           Y           Z
 ---------------------------------------------------------------------
      1          8           0       -3.153851   -0.827197   -2.944116
      2          8           0        3.129900    2.737324    3.479515
      3          8           0        4.001398    0.805504    4.182142
      4          8           0        7.581274   -1.368028   -0.884920
      5          8           0        6.441052   -2.791760   -2.267118
      6          8           0       -2.712656    1.519815    1.767513
      7          7           0       -0.291815   -2.488393    0.646825
      8          7           0       -2.653623   -1.072938   -0.679002
      9          7           0        1.013377    0.066680   -0.737786
     10          7           0       -0.957552    1.487813   -0.000196
     11          6           0       -3.302174   -1.502636    0.563760
     12          6           0       -2.595869   -2.627841    1.387369
     13          6           0       -1.241758   -2.219825    1.621861
     14          6           0       -0.533068   -1.490434    2.652052
     15          6           0        0.861401   -1.411141    2.344278
     16          6           0        0.937996   -1.962866    0.972481
     17          6           0       -4.673210   -1.913803    0.102670
     18          6           0        1.923663   -0.736625    3.067485
     19          6           0       -4.789394   -1.744706   -1.332430
     20          6           0        2.070513   -1.972358   -0.106357
     21          6           0        2.090774   -0.876581   -0.881037
     22          6           0       -3.426574   -1.151729   -1.769457
     23          6           0        2.920925   -0.496604   -1.938099
     24          6           0       -1.208903   -0.993036    3.931281
     25          6           0       -5.678672   -2.449710    1.044251
     26          6           0        2.452589    0.686017   -2.456491
     27          6           0        2.008451    0.804202    2.773027
     28          6           0        1.223601    1.052478   -1.729137
     29          6           0        4.126973   -1.236747   -2.250982
     30          6           0       -5.866244   -2.115764   -2.182184
     31          6           0        5.243145   -0.788611   -1.351653
     32          6           0        3.191581    1.534076   -3.445816
     33          6           0        0.454093    2.245843   -1.760071
     34          6           0        3.177421    1.318176    3.552941
     35          6           0       -0.648378    2.357829   -0.940985
     36          6           0       -6.875967   -2.989713   -1.961478
     37          6           0        6.432887   -1.805600   -1.637680
     38          6           0       -1.499340    3.607472   -0.913811
     39          6           0       -2.223071    3.425939    0.223526
     40          6           0       -2.005447    1.988066    0.735523
     41          6           0       -1.376476    4.746363   -1.647803
     42          6           0       -3.181542    4.213757    0.936572
     43          6           0       -2.162981    5.897080   -1.708826
     44          1           0       -3.276365   -0.541028    1.140260
     45          1           0       -2.746859   -3.718686    0.900078
     46          1           0       -3.140388   -2.819599    2.408831
     47          1           0       -0.694090   -2.883910   -0.158074
     48          1           0       -1.916527   -0.359028   -0.691265
     49          1           0        1.844117   -0.943610    4.128983
     50          1           0        2.868705   -1.250486    2.795917
     51          1           0        2.772183   -2.664621   -0.245676
     52          1           0       -1.623358   -1.852603    4.268927
     53          1           0       -0.274477   -0.795934    4.691417
     54          1           0       -1.940883   -0.090955    3.749668
     55          1           0       -5.452434   -1.961135    2.025124
     56          1           0       -5.711555   -3.629378    1.277621
     57          1           0       -6.695348   -2.342070    0.709508
     58          1           0        2.381362    0.856972    1.585895
     59          1           0        1.128341    1.358229    3.145862
     60          1           0        0.200089    0.090419   -0.143529
     61          1           0        4.497338   -1.017882   -3.366529
     62          1           0        3.979414   -2.292427   -2.073584
     63          1           0       -5.865717   -1.417096   -3.235886
     64          1           0        5.118071   -0.602189   -0.366229
     65          1           0        5.626838    0.151067   -1.559817
     66          1           0        3.925897    0.997829   -4.109914
     67          1           0        3.744718    2.356059   -3.064175
     68          1           0        2.419052    1.951463   -4.160917
     69          1           0        0.681941    2.875894   -2.686319
     70          1           0       -6.978587   -3.542272   -0.957950
     71          1           0       -7.738756   -2.987184   -2.683322
     72          1           0        4.006301    2.860054    3.907574
     73          1           0       -0.512528    4.899427   -2.356814
     74          1           0       -3.901647    4.619954    0.030460
     75          1           0       -3.728564    3.664845    1.757161
     76          1           0       -2.985762    5.415217    1.069413
     77          1           0        8.155333   -2.002448   -1.033046
     78          1           0       -2.077140    6.645318   -2.349403
     79          1           0       -3.120029    6.068587   -0.991940
 ---------------------------------------------------------------------

 SCF Done:  E(RB3LYP) =  -1947.83013952     A.U. after   19 cycles

 Excitation energies and oscillator strengths:

 Excited State   1:      Singlet-A      1.0782 eV 1149.87 nm  f=0.0002  <S**2>=0.000
     155 ->156         0.70338
 This state for optimization and/or second-order correction.
 Total Energy, E(TD-HF/TD-DFT) =  -1947.79051466
 Copying the excited state density for this state as the 1-particle RhoCI density.

 The electronic state is 1-A.
 Alpha  occ. eigenvalues --  -19.17589 -19.16710 -19.15999 -19.14071 -19.12435
 Alpha  occ. eigenvalues --  -19.07615 -14.37507 -14.37284 -14.33745 -14.31827
 Alpha  occ. eigenvalues --  -10.34506 -10.31397 -10.29233 -10.27646 -10.26715
 Alpha  occ. eigenvalues --  -10.25631 -10.25324 -10.23527 -10.23060 -10.22953
 Alpha  occ. eigenvalues --  -10.22886 -10.22793 -10.22762 -10.22210 -10.22167
 Alpha  occ. eigenvalues --  -10.21863 -10.21826 -10.21370 -10.21165 -10.21134
 Alpha  occ. eigenvalues --  -10.21089 -10.20931 -10.20377 -10.20347 -10.20263
 Alpha  occ. eigenvalues --  -10.20096 -10.20029 -10.19287 -10.19224 -10.19175
 Alpha  occ. eigenvalues --  -10.18442 -10.18410 -10.17879  -1.12035  -1.10574
 Alpha  occ. eigenvalues --   -1.04212  -1.00431  -0.99412  -0.99132  -0.98307
 Alpha  occ. eigenvalues --   -0.96708  -0.93822  -0.91957  -0.86196  -0.82862
 Alpha  occ. eigenvalues --   -0.82526  -0.80870  -0.80394  -0.80188  -0.78680
 Alpha  occ. eigenvalues --   -0.77472  -0.76214  -0.75425  -0.74751  -0.73765
 Alpha  occ. eigenvalues --   -0.70748  -0.70482  -0.70358  -0.69230  -0.67530
 Alpha  occ. eigenvalues --   -0.66910  -0.66380  -0.63360  -0.61859  -0.61337
 Alpha  occ. eigenvalues --   -0.60231  -0.59742  -0.58923  -0.58121  -0.57035
 Alpha  occ. eigenvalues --   -0.55645  -0.54671  -0.54419  -0.53660  -0.53188
 Alpha  occ. eigenvalues --   -0.52681  -0.52422  -0.51491  -0.50520  -0.50365
 Alpha  occ. eigenvalues --   -0.49669  -0.49397  -0.48538  -0.48365  -0.48309
 Alpha  occ. eigenvalues --   -0.47880  -0.47602  -0.47122  -0.46287  -0.46150
 Alpha  occ. eigenvalues --   -0.45600  -0.45402  -0.45003  -0.44719  -0.44251
 Alpha  occ. eigenvalues --   -0.44160  -0.43711  -0.43506  -0.42893  -0.42425
 Alpha  occ. eigenvalues --   -0.42328  -0.41982  -0.41697  -0.41477  -0.41386
 Alpha  occ. eigenvalues --   -0.41133  -0.40843  -0.40354  -0.39990  -0.39797
 Alpha  occ. eigenvalues --   -0.39499  -0.39197  -0.38794  -0.38266  -0.38073
 Alpha  occ. eigenvalues --   -0.37791  -0.37710  -0.37352  -0.37282  -0.36734
 Alpha  occ. eigenvalues --   -0.36611  -0.36255  -0.35693  -0.35084  -0.34521
 Alpha  occ. eigenvalues --   -0.34429  -0.33697  -0.33285  -0.32230  -0.32043
 Alpha  occ. eigenvalues --   -0.31878  -0.31319  -0.29512  -0.29342  -0.29284
 Alpha  occ. eigenvalues --   -0.29040  -0.27717  -0.25710  -0.24666  -0.23490
 Alpha  occ. eigenvalues --   -0.22984  -0.22972  -0.22516  -0.21855  -0.19351
 Alpha virt. eigenvalues --   -0.12811  -0.07792  -0.05084  -0.02543  -0.01760
 Alpha virt. eigenvalues --    0.00370   0.01151   0.01767   0.02450   0.02882
 Alpha virt. eigenvalues --    0.03440   0.04506   0.04616   0.04932   0.05169

 Mulliken charges:
               1
     1  O   -0.274674
     2  O   -0.245537
     3  O   -0.164567
     4  O   -0.185471
     5  O   -0.155441
     6  O   -0.318217
     7  N   -0.031222
     8  N   -0.202180
     9  N   -0.137952
    10  N   -0.291772
    11  C    0.107581
    12  C    0.078494
    13  C   -0.088528
    14  C   -0.155189
    15  C   -0.067585
    16  C   -0.033520
    17  C   -0.147081
    18  C    0.091064
    19  C   -0.045916
    20  C   -0.030996
    21  C    0.124845
    22  C    0.132631
    23  C   -0.014270
    24  C    0.072683
    25  C    0.039711
    26  C   -0.119751
    27  C   -0.011040
    28  C    0.100996
    29  C    0.089255
    30  C   -0.070141
    31  C    0.061701
    32  C    0.077624
    33  C   -0.120808
    34  C    0.110742
    35  C    0.153195
    36  C   -0.067220
    37  C    0.139940
    38  C    0.145256
    39  C   -0.158897
    40  C    0.236371
    41  C   -0.091741
    42  C   -0.007127
    43  C   -0.039701
    44  H    0.058806
    45  H    0.022498
    46  H    0.019143
    47  H    0.097101
    48  H    0.142550
    49  H    0.002988
    50  H   -0.002008
    51  H   -0.062850
    52  H   -0.010137
    53  H    0.004180
    54  H    0.077667
    55  H    0.031468
    56  H    0.042073
    57  H    0.025359
    58  H    0.079565
    59  H    0.065408
    60  H    0.188426
    61  H    0.044589
    62  H    0.028524
    63  H    0.047693
    64  H    0.003205
    65  H   -0.001185
    66  H    0.021589
    67  H    0.034015
    68  H    0.035256
    69  H    0.015817
    70  H    0.025982
    71  H    0.035440
    72  H    0.158320
    73  H    0.001432
    74  H    0.044483
    75  H    0.068564
    76  H    0.044752
    77  H    0.115192
    78  H   -0.013788
    79  H    0.022340
 Sum of Mulliken charges =  -0.00000

 Dipole moment (field-independent basis, Debye):
    X=              4.3286    Y=              1.0320    Z=             -1.0339  Tot=              4.5685
 Quadrupole moment (field-independent basis, Debye-Ang):
   XX=           -238.6950   YY=           -239.5418   ZZ=           -268.6945
   XY=              6.0200   XZ=            -25.2773   YZ=            -15.7166

 Normal termination of Gaussian 16 at Fri Jul 26 12:13:11 2019.
