 Gaussian 16, Revision A.03,
 Gaussian 16:  ES64L-G16RevA.03 25-Dec-2016

 --------------------------
 # td=(NStates=1) B3LYP/SVP
 --------------------------

 --
 TD
 --
 Symbolic Z-matrix:
 Charge =  0 Multiplicity = 1

                         Standard orientation:
 ---------------------------------------------------------------------
 Center     Atomic      Atomic             Coordinates (Angstroms)
 Number     Number       Type             X           Y           Z
 ---------------------------------------------------------------------
      1          8           0        5.453194   -0.102222   -3.244880
      2          8           0       -3.307897   -2.772557    3.217431
      3          8           0       -3.426800   -0.542863    2.837349
      4          8           0       -1.284849    7.225487    1.508441
      5          8           0       -0.024775    6.920465   -0.411566
      6          8           0       -1.919070   -3.903960   -0.002930
      7          7           0        2.408269    0.704592    0.539825
      8          7           0        4.405412   -0.613909   -1.279829
      9          7           0       -1.843923    0.681751   -0.532764
     10          7           0       -2.651567   -1.813805   -0.661390
     11          6           0        4.793272   -1.363349   -0.032906
     12          6           0        4.390170   -0.622867    1.196579
     13          6           0        2.952610   -0.217943    1.343974
     14          6           0        1.907077   -0.792467    1.978144
     15          6           0        0.675307   -0.092038    1.700338
     16          6           0        1.075693    0.835433    0.740223
     17          6           0        6.268587   -1.464713   -0.085982
     18          6           0       -0.580568   -0.294891    2.458395
     19          6           0        6.732105   -1.020909   -1.307572
     20          6           0        0.222217    1.885153    0.188063
     21          6           0       -1.044549    1.829258   -0.304392
     22          6           0        5.522910   -0.568398   -2.108769
     23          6           0       -1.907350    3.003123   -0.781019
     24          6           0        2.074482   -1.931452    3.068645
     25          6           0        7.117367   -2.175192    0.962355
     26          6           0       -3.118525    2.468639   -1.112446
     27          6           0       -1.341457   -1.650171    2.421566
     28          6           0       -3.065060    0.973659   -0.972839
     29          6           0       -1.372713    4.304885   -0.767636
     30          6           0        8.035120   -0.800200   -1.833763
     31          6           0       -1.544772    5.192481    0.460174
     32          6           0       -4.183870    3.232351   -1.797644
     33          6           0       -3.998059    0.058681   -1.380377
     34          6           0       -2.776648   -1.632507    2.924393
     35          6           0       -3.853863   -1.272635   -1.231396
     36          6           0        9.269397   -0.986113   -1.330561
     37          6           0       -0.833826    6.475159    0.420932
     38          6           0       -4.739531   -2.432106   -1.541826
     39          6           0       -4.099867   -3.597416   -0.968630
     40          6           0       -2.769342   -3.209960   -0.469344
     41          6           0       -6.057696   -2.233089   -2.167229
     42          6           0       -4.613182   -5.053903   -1.036211
     43          6           0       -7.037493   -3.262452   -2.382444
     44          1           0        4.337835   -2.250079   -0.056506
     45          1           0        4.858844    0.292810    1.242153
     46          1           0        4.590174   -0.985605    2.184676
     47          1           0        2.660990    1.302463   -0.411289
     48          1           0        3.387499   -0.714932   -1.595980
     49          1           0       -0.251833   -0.063965    3.649579
     50          1           0       -1.216493    0.610139    2.042256
     51          1           0        0.576083    2.914313   -0.200733
     52          1           0        3.070974   -2.135033    3.139893
     53          1           0        1.677242   -1.375810    4.115992
     54          1           0        1.382496   -2.882328    2.901695
     55          1           0        6.781167   -2.862557    1.696908
     56          1           0        7.777563   -1.314800    1.420799
     57          1           0        7.898854   -2.888561    0.488283
     58          1           0       -1.711039   -2.029454    1.305397
     59          1           0       -0.687183   -2.567144    2.655539
     60          1           0       -1.560254   -0.279232   -0.315351
     61          1           0       -1.678778    4.946670   -1.681207
     62          1           0       -0.248200    4.132587   -1.047496
     63          1           0        8.013931   -0.566728   -2.932119
     64          1           0       -1.290754    4.671658    1.391600
     65          1           0       -2.587159    5.353242    0.647191
     66          1           0       -4.043783    4.374479   -1.912370
     67          1           0       -5.040657    3.095941   -1.179608
     68          1           0       -4.193059    2.898713   -2.859160
     69          1           0       -4.873514    0.497248   -1.752250
     70          1           0        9.383903   -1.103481   -0.298951
     71          1           0       10.248154   -0.800764   -1.970521
     72          1           0       -4.272755   -2.525136    3.276032
     73          1           0       -6.129211   -1.276819   -2.574876
     74          1           0       -5.539840   -5.416306   -0.494320
     75          1           0       -4.756817   -5.318680   -2.079627
     76          1           0       -3.756227   -5.535130   -0.585343
     77          1           0       -0.816612    7.980390    1.451048
     78          1           0       -7.795382   -2.789003   -3.014447
     79          1           0       -6.929582   -4.198618   -1.843319
 ---------------------------------------------------------------------

 SCF Done:  E(RB3LYP) =  -1947.85695494     A.U. after   17 cycles

 Excitation energies and oscillator strengths:

 Excited State   1:      Singlet-A      1.8085 eV  685.57 nm  f=0.1283  <S**2>=0.000
     154 ->156         0.28987
     155 ->156         0.63769
 This state for optimization and/or second-order correction.
 Total Energy, E(TD-HF/TD-DFT) =  -1947.79049406
 Copying the excited state density for this state as the 1-particle RhoCI density.

 The electronic state is 1-A.
 Alpha  occ. eigenvalues --  -19.18755 -19.18473 -19.14750 -19.10250 -19.09982
 Alpha  occ. eigenvalues --  -19.09515 -14.38702 -14.37128 -14.35964 -14.27875
 Alpha  occ. eigenvalues --  -10.33918 -10.30619 -10.28934 -10.25860 -10.25507
 Alpha  occ. eigenvalues --  -10.24782 -10.24143 -10.23294 -10.23257 -10.22793
 Alpha  occ. eigenvalues --  -10.22657 -10.22433 -10.22281 -10.22236 -10.22023
 Alpha  occ. eigenvalues --  -10.21587 -10.21533 -10.21204 -10.21067 -10.20952
 Alpha  occ. eigenvalues --  -10.20749 -10.20663 -10.20639 -10.20543 -10.20418
 Alpha  occ. eigenvalues --  -10.20327 -10.20242 -10.20162 -10.19897 -10.18885
 Alpha  occ. eigenvalues --  -10.18801 -10.18749 -10.18315  -1.10371  -1.10303
 Alpha  occ. eigenvalues --   -1.02539  -1.01859  -1.01312  -0.99731  -0.98616
 Alpha  occ. eigenvalues --   -0.96093  -0.93434  -0.89169  -0.84637  -0.82494
 Alpha  occ. eigenvalues --   -0.82324  -0.80871  -0.79908  -0.79744  -0.78168
 Alpha  occ. eigenvalues --   -0.77793  -0.76312  -0.74761  -0.74142  -0.73447
 Alpha  occ. eigenvalues --   -0.71758  -0.71391  -0.69489  -0.69147  -0.68690
 Alpha  occ. eigenvalues --   -0.67078  -0.66269  -0.64827  -0.61862  -0.61343
 Alpha  occ. eigenvalues --   -0.60948  -0.59041  -0.58784  -0.58268  -0.57728
 Alpha  occ. eigenvalues --   -0.56204  -0.55675  -0.55140  -0.53816  -0.53617
 Alpha  occ. eigenvalues --   -0.52217  -0.51343  -0.51292  -0.50677  -0.50163
 Alpha  occ. eigenvalues --   -0.49270  -0.48910  -0.48425  -0.48324  -0.48005
 Alpha  occ. eigenvalues --   -0.47723  -0.47021  -0.46964  -0.46520  -0.46203
 Alpha  occ. eigenvalues --   -0.45794  -0.45228  -0.44706  -0.44344  -0.43685
 Alpha  occ. eigenvalues --   -0.43381  -0.42820  -0.42668  -0.42428  -0.42148
 Alpha  occ. eigenvalues --   -0.42108  -0.41852  -0.41589  -0.41233  -0.41062
 Alpha  occ. eigenvalues --   -0.40917  -0.40596  -0.40380  -0.40009  -0.39888
 Alpha  occ. eigenvalues --   -0.39788  -0.39419  -0.39139  -0.39059  -0.38657
 Alpha  occ. eigenvalues --   -0.38403  -0.38000  -0.37791  -0.37179  -0.37026
 Alpha  occ. eigenvalues --   -0.36753  -0.35587  -0.35058  -0.34500  -0.34463
 Alpha  occ. eigenvalues --   -0.34138  -0.33491  -0.32928  -0.32381  -0.31580
 Alpha  occ. eigenvalues --   -0.30952  -0.29953  -0.28833  -0.28070  -0.26832
 Alpha  occ. eigenvalues --   -0.26610  -0.26380  -0.25667  -0.25314  -0.24349
 Alpha  occ. eigenvalues --   -0.24079  -0.23839  -0.23106  -0.21172  -0.19629
 Alpha virt. eigenvalues --   -0.11369  -0.06975  -0.06674  -0.02487  -0.01511
 Alpha virt. eigenvalues --    0.00610   0.01142   0.01686   0.02231   0.03184
 Alpha virt. eigenvalues --    0.03301   0.04569   0.04803   0.04887   0.05385

 Mulliken charges:
               1
     1  O   -0.229951
     2  O   -0.122318
     3  O   -0.324624
     4  O   -0.157968
     5  O   -0.239788
     6  O   -0.189452
     7  N   -0.081953
     8  N   -0.252415
     9  N   -0.036942
    10  N   -0.405753
    11  C    0.204291
    12  C    0.296167
    13  C   -0.159940
    14  C   -0.150232
    15  C   -0.053203
    16  C    0.006979
    17  C   -0.157817
    18  C    0.045693
    19  C   -0.023779
    20  C   -0.081012
    21  C    0.026628
    22  C    0.164500
    23  C    0.004558
    24  C    0.055812
    25  C    0.025824
    26  C   -0.159579
    27  C   -0.063875
    28  C    0.113994
    29  C   -0.013619
    30  C   -0.026111
    31  C    0.068987
    32  C    0.077231
    33  C   -0.099816
    34  C    0.132089
    35  C    0.162689
    36  C   -0.037355
    37  C    0.152058
    38  C    0.039756
    39  C   -0.212828
    40  C    0.175459
    41  C   -0.046506
    42  C    0.059091
    43  C    0.020620
    44  H   -0.023888
    45  H   -0.051141
    46  H   -0.012715
    47  H    0.182959
    48  H    0.156587
    49  H    0.033678
    50  H    0.036714
    51  H   -0.005162
    52  H   -0.025422
    53  H    0.034957
    54  H    0.061936
    55  H    0.018438
    56  H    0.058982
    57  H    0.046720
    58  H    0.114438
    59  H    0.024860
    60  H    0.149264
    61  H    0.025931
    62  H    0.035547
    63  H    0.021903
    64  H    0.042996
    65  H    0.029880
    66  H    0.023765
    67  H    0.030118
    68  H    0.046025
    69  H   -0.055069
    70  H   -0.010460
    71  H    0.053630
    72  H    0.187704
    73  H   -0.027609
    74  H    0.041125
    75  H    0.031280
    76  H    0.021638
    77  H    0.130833
    78  H    0.034164
    79  H    0.029804
 Sum of Mulliken charges =  -0.00000

 Dipole moment (field-independent basis, Debye):
    X=              0.0418    Y=              2.0010    Z=              2.4015  Tot=              3.1262
 Quadrupole moment (field-independent basis, Debye-Ang):
   XX=           -220.3694   YY=           -246.4308   ZZ=           -265.5497
   XY=            -17.1877   XZ=             34.1044   YZ=             -0.3443

 Normal termination of Gaussian 16 at Sun Sep 15 04:12:32 2019.
