 Gaussian 16, Revision A.03,
 Gaussian 16:  ES64L-G16RevA.03 25-Dec-2016

 --------------------------
 # td=(NStates=1) B3LYP/SVP
 --------------------------

 --
 TD
 --
 Symbolic Z-matrix:
 Charge =  0 Multiplicity = 1

                         Standard orientation:
 ---------------------------------------------------------------------
 Center     Atomic      Atomic             Coordinates (Angstroms)
 Number     Number       Type             X           Y           Z
 ---------------------------------------------------------------------
      1          8           0       -3.327966   -1.125757   -2.912540
      2          8           0        3.351009    2.755869    3.324077
      3          8           0        3.704969    0.866076    4.563185
      4          8           0        7.561784   -1.594300   -0.758289
      5          8           0        6.615331   -2.663886   -2.479415
      6          8           0       -2.554431    1.564745    1.617926
      7          7           0       -0.225617   -2.455108    0.711780
      8          7           0       -2.783188   -1.175980   -0.613824
      9          7           0        1.135952    0.070272   -0.828924
     10          7           0       -0.946245    1.498445   -0.059855
     11          6           0       -3.356911   -1.304277    0.589436
     12          6           0       -2.638160   -2.412099    1.411688
     13          6           0       -1.156032   -2.158163    1.648608
     14          6           0       -0.546426   -1.522987    2.760024
     15          6           0        0.841652   -1.413554    2.321596
     16          6           0        1.013461   -1.938148    1.024345
     17          6           0       -4.776323   -1.950291    0.238422
     18          6           0        1.847437   -0.631585    3.047072
     19          6           0       -4.799737   -1.991922   -1.150809
     20          6           0        2.117280   -1.934802    0.117959
     21          6           0        2.143820   -0.841918   -0.776328
     22          6           0       -3.608460   -1.410713   -1.772921
     23          6           0        3.011920   -0.547105   -1.965109
     24          6           0       -1.327310   -0.869574    3.835260
     25          6           0       -5.862748   -2.209572    1.167413
     26          6           0        2.575110    0.762796   -2.509771
     27          6           0        1.929018    0.920800    2.891526
     28          6           0        1.351330    1.101429   -1.724048
     29          6           0        4.246988   -1.298811   -2.273736
     30          6           0       -5.872210   -2.181832   -2.237241
     31          6           0        5.351926   -0.891480   -1.315310
     32          6           0        3.315044    1.539838   -3.463557
     33          6           0        0.524845    2.209096   -1.807140
     34          6           0        2.998048    1.383884    3.726314
     35          6           0       -0.533858    2.376885   -0.924894
     36          6           0       -6.963461   -2.963814   -2.028162
     37          6           0        6.556441   -1.883885   -1.548746
     38          6           0       -1.383445    3.670807   -0.912191
     39          6           0       -2.323560    3.399821    0.105361
     40          6           0       -1.981926    2.024163    0.710991
     41          6           0       -1.369128    4.681288   -1.903252
     42          6           0       -3.338352    4.164552    0.575212
     43          6           0       -2.154070    5.807989   -1.814146
     44          1           0       -3.235324   -0.512383    1.146526
     45          1           0       -2.686789   -3.302428    0.729385
     46          1           0       -3.104815   -2.425442    2.405608
     47          1           0       -0.408698   -2.757603   -0.249905
     48          1           0       -2.200547   -0.292049   -0.568891
     49          1           0        1.843277   -0.893345    4.054628
     50          1           0        3.094833   -1.202193    2.819901
     51          1           0        2.717859   -2.777660    0.119975
     52          1           0       -2.145305   -1.626934    4.159145
     53          1           0       -0.687320   -0.695076    4.516570
     54          1           0       -1.642639    0.173832    3.536146
     55          1           0       -5.514212   -1.946858    2.184975
     56          1           0       -6.221227   -3.321599    1.223451
     57          1           0       -6.903251   -1.611098    0.715584
     58          1           0        1.865155    1.170259    1.891771
     59          1           0        0.921745    1.247243    3.139250
     60          1           0        0.407087    0.165248   -0.109536
     61          1           0        4.487737   -1.236111   -3.284207
     62          1           0        4.119737   -2.342458   -1.978312
     63          1           0       -5.660153   -1.912123   -3.312403
     64          1           0        4.987843   -1.314907   -0.244811
     65          1           0        5.762567    0.138502   -1.467722
     66          1           0        4.086234    1.089754   -4.098872
     67          1           0        3.635339    2.322237   -2.929980
     68          1           0        2.526345    1.897147   -4.226918
     69          1           0        0.933936    3.049998   -2.352773
     70          1           0       -7.116864   -3.316920   -0.853384
     71          1           0       -7.735897   -3.234639   -2.833877
     72          1           0        4.057131    2.963272    3.968080
     73          1           0       -0.926153    4.421239   -2.966849
     74          1           0       -3.869331    4.867221   -0.300550
     75          1           0       -4.132197    3.662981    1.334034
     76          1           0       -2.853714    4.983022    0.990633
     77          1           0        8.281460   -2.057070   -1.054291
     78          1           0       -2.091154    6.370071   -2.778389
     79          1           0       -2.657793    6.150589   -0.890959
 ---------------------------------------------------------------------

 SCF Done:  E(RB3LYP) =  -1947.79350413     A.U. after   16 cycles

 Excitation energies and oscillator strengths:

 Excited State   1:      Singlet-A      1.2086 eV 1025.82 nm  f=0.0002  <S**2>=0.000
     155 ->156         0.70346
 This state for optimization and/or second-order correction.
 Total Energy, E(TD-HF/TD-DFT) =  -1947.74908740
 Copying the excited state density for this state as the 1-particle RhoCI density.

 The electronic state is 1-A.
 Alpha  occ. eigenvalues --  -19.19904 -19.15300 -19.13874 -19.13674 -19.13551
 Alpha  occ. eigenvalues --  -19.09710 -14.37191 -14.36440 -14.31912 -14.30877
 Alpha  occ. eigenvalues --  -10.33145 -10.32262 -10.28888 -10.27199 -10.26961
 Alpha  occ. eigenvalues --  -10.25829 -10.25058 -10.23332 -10.23264 -10.23164
 Alpha  occ. eigenvalues --  -10.21970 -10.21822 -10.21763 -10.21599 -10.20985
 Alpha  occ. eigenvalues --  -10.20777 -10.20772 -10.20604 -10.20590 -10.20566
 Alpha  occ. eigenvalues --  -10.20475 -10.20241 -10.20154 -10.20149 -10.20029
 Alpha  occ. eigenvalues --  -10.19893 -10.19848 -10.19843 -10.19495 -10.19108
 Alpha  occ. eigenvalues --  -10.17175 -10.17084 -10.16624  -1.13373  -1.07144
 Alpha  occ. eigenvalues --   -1.06996  -1.02333  -1.01825  -0.99285  -0.98067
 Alpha  occ. eigenvalues --   -0.96609  -0.94583  -0.93867  -0.83671  -0.82918
 Alpha  occ. eigenvalues --   -0.82408  -0.80828  -0.79970  -0.79286  -0.78693
 Alpha  occ. eigenvalues --   -0.77415  -0.76763  -0.75940  -0.74197  -0.73453
 Alpha  occ. eigenvalues --   -0.71480  -0.70426  -0.69889  -0.69814  -0.68065
 Alpha  occ. eigenvalues --   -0.66558  -0.65415  -0.62906  -0.62258  -0.60732
 Alpha  occ. eigenvalues --   -0.59739  -0.58616  -0.57662  -0.57093  -0.56398
 Alpha  occ. eigenvalues --   -0.55714  -0.55068  -0.54571  -0.54505  -0.54074
 Alpha  occ. eigenvalues --   -0.52024  -0.51749  -0.50952  -0.50635  -0.50013
 Alpha  occ. eigenvalues --   -0.49782  -0.49101  -0.48942  -0.48825  -0.47984
 Alpha  occ. eigenvalues --   -0.47511  -0.47223  -0.46911  -0.46621  -0.46268
 Alpha  occ. eigenvalues --   -0.45797  -0.45338  -0.45147  -0.44787  -0.44138
 Alpha  occ. eigenvalues --   -0.43838  -0.43568  -0.43246  -0.42812  -0.42518
 Alpha  occ. eigenvalues --   -0.42409  -0.41802  -0.41554  -0.41331  -0.40880
 Alpha  occ. eigenvalues --   -0.40721  -0.40546  -0.40381  -0.40123  -0.39651
 Alpha  occ. eigenvalues --   -0.39259  -0.39108  -0.38936  -0.38672  -0.38493
 Alpha  occ. eigenvalues --   -0.38386  -0.38201  -0.37494  -0.37431  -0.36931
 Alpha  occ. eigenvalues --   -0.36520  -0.36247  -0.35826  -0.35739  -0.35492
 Alpha  occ. eigenvalues --   -0.34018  -0.33958  -0.32400  -0.31585  -0.31147
 Alpha  occ. eigenvalues --   -0.29972  -0.29741  -0.29539  -0.29309  -0.28858
 Alpha  occ. eigenvalues --   -0.28687  -0.25907  -0.25534  -0.25493  -0.23841
 Alpha  occ. eigenvalues --   -0.22939  -0.22826  -0.22341  -0.22150  -0.19236
 Alpha virt. eigenvalues --   -0.12167  -0.07365  -0.05228  -0.01940  -0.01453
 Alpha virt. eigenvalues --   -0.00727   0.01577   0.02294   0.02452   0.03224
 Alpha virt. eigenvalues --    0.03558   0.04001   0.04610   0.04971   0.05659

 Mulliken charges:
               1
     1  O   -0.206926
     2  O   -0.281384
     3  O   -0.203122
     4  O   -0.094284
     5  O   -0.235091
     6  O   -0.136836
     7  N   -0.028125
     8  N   -0.219483
     9  N   -0.079420
    10  N   -0.288511
    11  C    0.109898
    12  C    0.225213
    13  C   -0.131824
    14  C   -0.162439
    15  C   -0.095704
    16  C   -0.031750
    17  C   -0.120111
    18  C   -0.041734
    19  C   -0.075547
    20  C   -0.070481
    21  C    0.104903
    22  C    0.160209
    23  C   -0.097730
    24  C    0.196069
    25  C   -0.011347
    26  C   -0.142030
    27  C    0.119404
    28  C    0.124681
    29  C    0.172147
    30  C   -0.005220
    31  C   -0.074220
    32  C    0.138046
    33  C   -0.102545
    34  C    0.190158
    35  C    0.091261
    36  C   -0.095110
    37  C    0.103553
    38  C    0.046500
    39  C   -0.165588
    40  C    0.162154
    41  C   -0.090300
    42  C    0.005687
    43  C   -0.037592
    44  H   -0.055161
    45  H   -0.025461
    46  H   -0.021700
    47  H    0.116137
    48  H    0.146297
    49  H    0.002223
    50  H   -0.005137
    51  H   -0.009779
    52  H    0.025659
    53  H   -0.073220
    54  H    0.043639
    55  H    0.030151
    56  H    0.059270
    57  H    0.072329
    58  H   -0.003833
    59  H    0.033705
    60  H    0.183989
    61  H    0.001894
    62  H    0.005317
    63  H    0.038042
    64  H    0.071989
    65  H    0.056192
    66  H    0.029485
    67  H    0.009425
    68  H    0.033884
    69  H   -0.015603
    70  H    0.032816
    71  H    0.043685
    72  H    0.169753
    73  H    0.039748
    74  H    0.039581
    75  H    0.064633
    76  H    0.024223
    77  H    0.143459
    78  H    0.032394
    79  H    0.034547
 Sum of Mulliken charges =  -0.00000

 Dipole moment (field-independent basis, Debye):
    X=              2.4293    Y=              2.8461    Z=             -1.1654  Tot=              3.9192
 Quadrupole moment (field-independent basis, Debye-Ang):
   XX=           -228.0740   YY=           -241.1767   ZZ=           -268.5532
   XY=              3.6409   XZ=            -22.0309   YZ=            -10.6468

 Normal termination of Gaussian 16 at Sun Jul 28 21:56:01 2019.
