 Gaussian 16, Revision A.03,
 Gaussian 16:  ES64L-G16RevA.03 25-Dec-2016

 --------------------------
 # td=(NStates=1) B3LYP/SVP
 --------------------------

 --
 TD
 --
 Symbolic Z-matrix:
 Charge =  0 Multiplicity = 1

                         Standard orientation:
 ---------------------------------------------------------------------
 Center     Atomic      Atomic             Coordinates (Angstroms)
 Number     Number       Type             X           Y           Z
 ---------------------------------------------------------------------
      1          8           0       -3.350597   -0.609214   -2.957556
      2          8           0        3.011550    2.197298    3.742039
      3          8           0        3.611745    0.302914    4.810074
      4          8           0        7.894670   -0.902431   -1.254943
      5          8           0        6.760006   -2.630610   -2.399756
      6          8           0       -2.621829    1.304386    1.794083
      7          7           0       -0.221089   -2.487019    0.322736
      8          7           0       -2.748966   -0.933245   -0.795217
      9          7           0        1.146916    0.291707   -0.728914
     10          7           0       -0.998767    1.434962    0.079548
     11          6           0       -3.428090   -1.460140    0.334387
     12          6           0       -2.593196   -2.618674    1.004601
     13          6           0       -1.121768   -2.343356    1.276104
     14          6           0       -0.478360   -1.916326    2.434141
     15          6           0        0.890007   -1.809642    2.136499
     16          6           0        0.975582   -2.088997    0.740793
     17          6           0       -4.731994   -1.882364   -0.130192
     18          6           0        1.930982   -1.259016    2.945054
     19          6           0       -4.815164   -1.847039   -1.453542
     20          6           0        2.134971   -1.905633   -0.159773
     21          6           0        2.126354   -0.596309   -0.794025
     22          6           0       -3.567473   -1.069552   -1.862363
     23          6           0        3.019440   -0.111804   -1.885381
     24          6           0       -1.267954   -1.436276    3.611805
     25          6           0       -5.729232   -2.453366    0.835483
     26          6           0        2.593337    1.012561   -2.283258
     27          6           0        1.885192    0.325064    2.970528
     28          6           0        1.364547    1.368787   -1.558949
     29          6           0        4.227757   -0.983203   -2.238617
     30          6           0       -5.868595   -1.972323   -2.362766
     31          6           0        5.532408   -0.669364   -1.368910
     32          6           0        3.110755    1.894262   -3.526457
     33          6           0        0.492504    2.344069   -1.569824
     34          6           0        2.950483    0.926958    3.937840
     35          6           0       -0.703065    2.492287   -0.732785
     36          6           0       -6.933630   -2.770163   -2.366072
     37          6           0        6.735259   -1.562293   -1.746792
     38          6           0       -1.499177    3.643746   -0.493110
     39          6           0       -2.298401    3.361903    0.624192
     40          6           0       -2.036497    1.934947    0.925772
     41          6           0       -1.528078    4.842176   -1.404659
     42          6           0       -3.370449    4.065363    1.271873
     43          6           0       -2.041955    6.124435   -1.099127
     44          1           0       -3.385739   -0.627379    1.193322
     45          1           0       -2.820234   -3.414479    0.343406
     46          1           0       -2.999510   -2.805277    1.997232
     47          1           0       -0.560286   -2.889067   -0.605972
     48          1           0       -2.036322   -0.312896   -0.765879
     49          1           0        1.790759   -1.736358    4.052372
     50          1           0        2.861507   -1.671569    2.528553
     51          1           0        2.934327   -2.652467   -0.286706
     52          1           0       -2.117248   -2.287834    3.839615
     53          1           0       -0.555057   -1.437538    4.639225
     54          1           0       -1.685248   -0.473228    3.184097
     55          1           0       -5.669277   -1.753261    1.738571
     56          1           0       -5.561635   -3.510918    0.862099
     57          1           0       -6.816077   -2.324821    0.383220
     58          1           0        2.187331    0.513591    1.813486
     59          1           0        1.013675    0.753724    3.237540
     60          1           0        0.438966    0.477622   -0.103286
     61          1           0        4.597653   -0.759868   -3.259837
     62          1           0        3.953502   -1.912040   -2.410924
     63          1           0       -5.865754   -1.310843   -3.303131
     64          1           0        5.133140   -0.624894   -0.325698
     65          1           0        5.545608    0.523239   -1.488475
     66          1           0        3.793924    1.280570   -4.179099
     67          1           0        3.583780    2.785892   -3.200843
     68          1           0        2.322446    1.938862   -4.089809
     69          1           0        0.529966    3.239583   -2.332413
     70          1           0       -7.227996   -3.303946   -1.498544
     71          1           0       -7.713363   -2.911995   -3.086619
     72          1           0        3.731920    2.467857    4.558075
     73          1           0       -0.809057    4.922880   -2.045342
     74          1           0       -4.134102    4.563334    0.654829
     75          1           0       -3.916226    3.385027    1.771660
     76          1           0       -3.056702    4.919663    1.747978
     77          1           0        8.629309   -1.473781   -1.650482
     78          1           0       -1.920280    7.036479   -1.673296
     79          1           0       -2.627710    6.458246   -0.332345
 ---------------------------------------------------------------------

 SCF Done:  E(RB3LYP) =  -1947.78651166     A.U. after   17 cycles

 Excitation energies and oscillator strengths:

 Excited State   1:      Singlet-A      0.8140 eV 1523.06 nm  f=0.0017  <S**2>=0.000
     155 ->156         0.70366
 This state for optimization and/or second-order correction.
 Total Energy, E(TD-HF/TD-DFT) =  -1947.75659604
 Copying the excited state density for this state as the 1-particle RhoCI density.

 The electronic state is 1-A.
 Alpha  occ. eigenvalues --  -19.20253 -19.19610 -19.15822 -19.13849 -19.11793
 Alpha  occ. eigenvalues --  -19.07185 -14.36867 -14.36622 -14.32048 -14.31656
 Alpha  occ. eigenvalues --  -10.35291 -10.31661 -10.29159 -10.26188 -10.25802
 Alpha  occ. eigenvalues --  -10.25699 -10.25486 -10.23993 -10.22794 -10.22386
 Alpha  occ. eigenvalues --  -10.22244 -10.21945 -10.21926 -10.21823 -10.21750
 Alpha  occ. eigenvalues --  -10.21685 -10.21498 -10.20833 -10.20483 -10.20446
 Alpha  occ. eigenvalues --  -10.20071 -10.19950 -10.19591 -10.19506 -10.18958
 Alpha  occ. eigenvalues --  -10.18834 -10.18826 -10.18587 -10.18517 -10.17767
 Alpha  occ. eigenvalues --  -10.17325 -10.16025 -10.15696  -1.10479  -1.08139
 Alpha  occ. eigenvalues --   -1.04410  -1.01614  -1.01074  -1.00607  -0.98459
 Alpha  occ. eigenvalues --   -0.97891  -0.94243  -0.93304  -0.84464  -0.82587
 Alpha  occ. eigenvalues --   -0.81948  -0.81656  -0.80230  -0.78780  -0.78215
 Alpha  occ. eigenvalues --   -0.77746  -0.76131  -0.75047  -0.74077  -0.73143
 Alpha  occ. eigenvalues --   -0.72526  -0.70598  -0.70077  -0.69271  -0.68027
 Alpha  occ. eigenvalues --   -0.66430  -0.65645  -0.64034  -0.62769  -0.61241
 Alpha  occ. eigenvalues --   -0.60512  -0.59929  -0.59322  -0.58317  -0.56996
 Alpha  occ. eigenvalues --   -0.56629  -0.56292  -0.54481  -0.54421  -0.52575
 Alpha  occ. eigenvalues --   -0.52142  -0.51933  -0.51255  -0.50240  -0.49521
 Alpha  occ. eigenvalues --   -0.49323  -0.49098  -0.48908  -0.48505  -0.48144
 Alpha  occ. eigenvalues --   -0.47825  -0.47362  -0.46930  -0.46786  -0.46686
 Alpha  occ. eigenvalues --   -0.46156  -0.45632  -0.45388  -0.44833  -0.44497
 Alpha  occ. eigenvalues --   -0.43999  -0.43691  -0.43554  -0.43004  -0.42817
 Alpha  occ. eigenvalues --   -0.42170  -0.42080  -0.41810  -0.41603  -0.41265
 Alpha  occ. eigenvalues --   -0.40940  -0.40476  -0.40093  -0.39979  -0.39339
 Alpha  occ. eigenvalues --   -0.39118  -0.38871  -0.38581  -0.38314  -0.37984
 Alpha  occ. eigenvalues --   -0.37868  -0.37413  -0.36916  -0.36496  -0.36385
 Alpha  occ. eigenvalues --   -0.36045  -0.35563  -0.35168  -0.34595  -0.34387
 Alpha  occ. eigenvalues --   -0.33547  -0.33253  -0.32912  -0.32167  -0.31578
 Alpha  occ. eigenvalues --   -0.31240  -0.30921  -0.30738  -0.30073  -0.29651
 Alpha  occ. eigenvalues --   -0.28899  -0.27283  -0.26936  -0.24189  -0.23795
 Alpha  occ. eigenvalues --   -0.23096  -0.22722  -0.22233  -0.22069  -0.18680
 Alpha virt. eigenvalues --   -0.13362  -0.07481  -0.04013  -0.03660  -0.03401
 Alpha virt. eigenvalues --    0.00462   0.00990   0.02812   0.03103   0.03607
 Alpha virt. eigenvalues --    0.03770   0.03973   0.04719   0.05202   0.05360

 Mulliken charges:
               1
     1  O   -0.229751
     2  O   -0.183978
     3  O   -0.288137
     4  O   -0.239805
     5  O   -0.238791
     6  O   -0.194288
     7  N    0.020393
     8  N   -0.096608
     9  N    0.017561
    10  N   -0.348625
    11  C   -0.011123
    12  C    0.256575
    13  C   -0.161126
    14  C   -0.121617
    15  C   -0.087091
    16  C   -0.043564
    17  C   -0.160746
    18  C    0.069804
    19  C    0.005653
    20  C   -0.100811
    21  C    0.036205
    22  C    0.076773
    23  C   -0.114298
    24  C   -0.025623
    25  C    0.073026
    26  C   -0.130518
    27  C   -0.003437
    28  C    0.121881
    29  C    0.166946
    30  C   -0.050328
    31  C   -0.051696
    32  C    0.189770
    33  C   -0.138716
    34  C    0.149815
    35  C    0.072279
    36  C   -0.037289
    37  C    0.249733
    38  C    0.026215
    39  C   -0.195966
    40  C    0.193160
    41  C    0.109411
    42  C    0.196074
    43  C   -0.035028
    44  H    0.062337
    45  H   -0.051729
    46  H   -0.023799
    47  H    0.137458
    48  H    0.082610
    49  H    0.032009
    50  H   -0.002750
    51  H    0.029661
    52  H    0.029883
    53  H    0.031278
    54  H    0.076689
    55  H    0.041245
    56  H    0.040107
    57  H    0.036854
    58  H    0.059392
    59  H    0.015198
    60  H    0.120111
    61  H   -0.009882
    62  H   -0.022784
    63  H    0.027730
    64  H    0.051293
    65  H    0.056239
    66  H    0.011345
    67  H    0.029963
    68  H   -0.013375
    69  H    0.015335
    70  H   -0.018759
    71  H    0.010669
    72  H    0.228745
    73  H   -0.053907
    74  H    0.010104
    75  H   -0.006681
    76  H    0.005744
    77  H    0.198000
    78  H    0.029437
    79  H   -0.008080
 Sum of Mulliken charges =  -0.00000

 Dipole moment (field-independent basis, Debye):
    X=              2.2582    Y=              5.3433    Z=             -1.2231  Tot=              5.9284
 Quadrupole moment (field-independent basis, Debye-Ang):
   XX=           -238.0277   YY=           -225.9560   ZZ=           -273.4845
   XY=              7.9859   XZ=            -23.7025   YZ=             -0.4417

 Normal termination of Gaussian 16 at Sun Jul 28 09:54:51 2019.
