 Gaussian 16, Revision A.03,
 Gaussian 16:  ES64L-G16RevA.03 25-Dec-2016

 --------------------------
 # td=(NStates=1) B3LYP/SVP
 --------------------------

 --
 TD
 --
 Symbolic Z-matrix:
 Charge =  0 Multiplicity = 1

                         Standard orientation:
 ---------------------------------------------------------------------
 Center     Atomic      Atomic             Coordinates (Angstroms)
 Number     Number       Type             X           Y           Z
 ---------------------------------------------------------------------
      1          8           0        5.302768   -0.299291   -3.374111
      2          8           0       -3.092012   -2.887972    3.272150
      3          8           0       -3.305496   -0.726481    3.207741
      4          8           0       -0.993206    7.063362    1.539754
      5          8           0       -0.530242    6.961764   -0.716632
      6          8           0       -1.985227   -3.966220    0.037528
      7          7           0        2.402917    0.940057    0.747505
      8          7           0        4.345035   -0.578553   -1.237356
      9          7           0       -1.842761    0.774547   -0.240003
     10          7           0       -2.661964   -1.838880   -0.523776
     11          6           0        4.713107   -1.334938    0.005265
     12          6           0        4.378639   -0.382689    1.191803
     13          6           0        2.894912   -0.022957    1.448835
     14          6           0        1.992195   -0.706011    2.118719
     15          6           0        0.708768   -0.077346    1.880090
     16          6           0        1.032615    0.970812    0.932498
     17          6           0        6.151402   -1.531222   -0.197405
     18          6           0       -0.534009   -0.264513    2.551552
     19          6           0        6.568688   -1.117419   -1.454009
     20          6           0        0.220145    1.956559    0.223520
     21          6           0       -1.059543    1.942602   -0.201439
     22          6           0        5.353449   -0.604687   -2.159906
     23          6           0       -1.723082    2.990994   -0.749197
     24          6           0        2.162130   -1.800669    3.020431
     25          6           0        7.059126   -2.057361    0.904259
     26          6           0       -2.999798    2.474097   -1.247257
     27          6           0       -1.188338   -1.683085    2.494196
     28          6           0       -2.977623    1.047887   -0.873559
     29          6           0       -1.358056    4.431719   -0.956801
     30          6           0        7.884442   -0.937342   -2.057297
     31          6           0       -1.493640    5.047991    0.418347
     32          6           0       -4.238412    3.105789   -2.032925
     33          6           0       -3.915500    0.084395   -1.201329
     34          6           0       -2.609522   -1.649392    3.065392
     35          6           0       -3.791138   -1.244063   -1.034381
     36          6           0        9.186322   -1.087129   -1.547791
     37          6           0       -0.993518    6.436819    0.310152
     38          6           0       -4.747865   -2.397171   -1.509181
     39          6           0       -4.008508   -3.563847   -1.120580
     40          6           0       -2.775857   -3.261809   -0.497044
     41          6           0       -6.055438   -2.308770   -2.283090
     42          6           0       -4.609961   -4.977324   -1.188389
     43          6           0       -6.869939   -3.288619   -2.620988
     44          1           0        4.213488   -2.295822   -0.081754
     45          1           0        4.911149    0.565655    1.016941
     46          1           0        4.650341   -0.808373    2.175582
     47          1           0        2.619312    1.483784    0.013832
     48          1           0        3.343715   -0.804064   -1.606283
     49          1           0       -0.382285   -0.210149    3.741547
     50          1           0       -1.252483    0.275742    2.228471
     51          1           0        0.872484    2.893435   -0.054378
     52          1           0        3.305090   -2.003419    2.906299
     53          1           0        1.734903   -1.472023    4.064885
     54          1           0        1.617540   -2.774695    2.740620
     55          1           0        6.469279   -2.718007    1.377420
     56          1           0        7.437369   -1.373058    1.654396
     57          1           0        7.838567   -2.585776    0.194972
     58          1           0       -1.245399   -2.004472    1.478164
     59          1           0       -0.575304   -2.543199    3.031785
     60          1           0       -1.767791   -0.324617    0.024980
     61          1           0       -1.876110    4.906659   -1.694573
     62          1           0       -0.274412    4.736473   -1.145622
     63          1           0        7.695978   -0.647233   -2.980473
     64          1           0       -0.986862    4.435070    1.118294
     65          1           0       -2.554053    5.265193    0.764225
     66          1           0       -3.990584    4.217502   -2.287078
     67          1           0       -5.023048    2.861160   -1.242922
     68          1           0       -4.346244    2.536853   -2.901140
     69          1           0       -4.921582    0.460443   -1.604066
     70          1           0        9.443023   -1.017069   -0.487825
     71          1           0        9.867654   -0.931177   -2.102657
     72          1           0       -4.125515   -2.711417    3.056292
     73          1           0       -6.297838   -1.255245   -2.651997
     74          1           0       -5.444651   -5.239135   -0.580630
     75          1           0       -4.743994   -5.454334   -2.181620
     76          1           0       -3.782011   -5.488279   -0.849657
     77          1           0       -0.870834    8.144540    1.569085
     78          1           0       -7.920222   -3.162281   -3.165685
     79          1           0       -6.651112   -4.347975   -2.290415
 ---------------------------------------------------------------------

 SCF Done:  E(RB3LYP) =  -1947.79050640     A.U. after   17 cycles

 Excitation energies and oscillator strengths:

 Excited State   1:      Singlet-A      1.9657 eV  630.74 nm  f=0.3200  <S**2>=0.000
     154 ->156         0.20350
     155 ->156         0.67179
     155 <-156        -0.10456
 This state for optimization and/or second-order correction.
 Total Energy, E(TD-HF/TD-DFT) =  -1947.71826904
 Copying the excited state density for this state as the 1-particle RhoCI density.

 The electronic state is 1-A.
 Alpha  occ. eigenvalues --  -19.19054 -19.16214 -19.13676 -19.11649 -19.10158
 Alpha  occ. eigenvalues --  -19.09953 -14.38431 -14.36544 -14.36544 -14.28200
 Alpha  occ. eigenvalues --  -10.33138 -10.30086 -10.28753 -10.25715 -10.25610
 Alpha  occ. eigenvalues --  -10.24218 -10.24133 -10.23560 -10.23536 -10.23174
 Alpha  occ. eigenvalues --  -10.22981 -10.22778 -10.22631 -10.21902 -10.21886
 Alpha  occ. eigenvalues --  -10.21598 -10.21571 -10.21549 -10.21139 -10.21076
 Alpha  occ. eigenvalues --  -10.20777 -10.20676 -10.20655 -10.20267 -10.20262
 Alpha  occ. eigenvalues --  -10.20060 -10.19383 -10.19303 -10.18887 -10.18870
 Alpha  occ. eigenvalues --  -10.18767 -10.18442 -10.17202  -1.09428  -1.07454
 Alpha  occ. eigenvalues --   -1.02722  -1.02321  -1.01213  -0.99419  -0.99346
 Alpha  occ. eigenvalues --   -0.98736  -0.94190  -0.89890  -0.84310  -0.83693
 Alpha  occ. eigenvalues --   -0.82347  -0.82113  -0.80202  -0.78770  -0.78283
 Alpha  occ. eigenvalues --   -0.78157  -0.76895  -0.75994  -0.74447  -0.72889
 Alpha  occ. eigenvalues --   -0.72283  -0.72089  -0.70777  -0.68632  -0.68114
 Alpha  occ. eigenvalues --   -0.67822  -0.66961  -0.64622  -0.63406  -0.60742
 Alpha  occ. eigenvalues --   -0.59623  -0.59064  -0.58537  -0.57956  -0.57587
 Alpha  occ. eigenvalues --   -0.56687  -0.55683  -0.55029  -0.54092  -0.53883
 Alpha  occ. eigenvalues --   -0.52636  -0.52192  -0.51425  -0.50940  -0.50016
 Alpha  occ. eigenvalues --   -0.49487  -0.49007  -0.48378  -0.48104  -0.47896
 Alpha  occ. eigenvalues --   -0.47738  -0.46986  -0.46746  -0.45988  -0.45526
 Alpha  occ. eigenvalues --   -0.45316  -0.45103  -0.44726  -0.44558  -0.43759
 Alpha  occ. eigenvalues --   -0.43531  -0.43425  -0.43189  -0.43085  -0.42994
 Alpha  occ. eigenvalues --   -0.42689  -0.42338  -0.42064  -0.41943  -0.41544
 Alpha  occ. eigenvalues --   -0.41288  -0.40795  -0.40690  -0.40229  -0.40090
 Alpha  occ. eigenvalues --   -0.40031  -0.39486  -0.39380  -0.38933  -0.38853
 Alpha  occ. eigenvalues --   -0.38546  -0.38182  -0.37630  -0.37366  -0.36862
 Alpha  occ. eigenvalues --   -0.36740  -0.35900  -0.35755  -0.35165  -0.34817
 Alpha  occ. eigenvalues --   -0.34617  -0.33013  -0.32660  -0.32514  -0.31695
 Alpha  occ. eigenvalues --   -0.31552  -0.31085  -0.29285  -0.29022  -0.27554
 Alpha  occ. eigenvalues --   -0.27293  -0.26961  -0.25455  -0.25377  -0.24896
 Alpha  occ. eigenvalues --   -0.24335  -0.23933  -0.23736  -0.21992  -0.19183
 Alpha virt. eigenvalues --   -0.11123  -0.07266  -0.06997  -0.01778  -0.00619
 Alpha virt. eigenvalues --   -0.00199   0.00838   0.01412   0.02066   0.02262
 Alpha virt. eigenvalues --    0.03423   0.03624   0.04156   0.04550   0.05165

 Mulliken charges:
               1
     1  O   -0.261716
     2  O   -0.232259
     3  O   -0.189279
     4  O   -0.279334
     5  O   -0.251321
     6  O   -0.173558
     7  N    0.079277
     8  N   -0.234370
     9  N   -0.122085
    10  N   -0.381913
    11  C    0.133522
    12  C    0.178406
    13  C   -0.125381
    14  C   -0.104651
    15  C   -0.044072
    16  C   -0.036127
    17  C   -0.248418
    18  C    0.156836
    19  C   -0.051535
    20  C   -0.144384
    21  C    0.167422
    22  C    0.154010
    23  C   -0.077676
    24  C    0.027239
    25  C    0.127725
    26  C   -0.185930
    27  C   -0.080276
    28  C    0.087198
    29  C    0.152740
    30  C    0.037332
    31  C   -0.008191
    32  C    0.103581
    33  C   -0.136627
    34  C    0.124765
    35  C    0.104467
    36  C    0.101856
    37  C    0.168953
    38  C    0.034135
    39  C   -0.223778
    40  C    0.163517
    41  C    0.002781
    42  C    0.125971
    43  C   -0.073370
    44  H    0.031237
    45  H   -0.000363
    46  H    0.011177
    47  H    0.075977
    48  H    0.156813
    49  H    0.026498
    50  H   -0.073357
    51  H    0.014781
    52  H    0.003324
    53  H    0.043206
    54  H    0.056612
    55  H   -0.023070
    56  H    0.046779
    57  H    0.061867
    58  H    0.060555
    59  H    0.039330
    60  H    0.206106
    61  H   -0.020684
    62  H    0.028262
    63  H   -0.045233
    64  H    0.042351
    65  H    0.049207
    66  H    0.043933
    67  H    0.060625
    68  H    0.029062
    69  H   -0.012808
    70  H    0.027272
    71  H   -0.069184
    72  H    0.214901
    73  H    0.005511
    74  H    0.026718
    75  H    0.019917
    76  H   -0.022251
    77  H    0.243489
    78  H    0.047742
    79  H    0.028216
 Sum of Mulliken charges =  -0.00000

 Dipole moment (field-independent basis, Debye):
    X=              0.7048    Y=              3.6175    Z=              3.2411  Tot=              4.9079
 Quadrupole moment (field-independent basis, Debye-Ang):
   XX=           -223.1465   YY=           -242.2478   ZZ=           -271.5454
   XY=            -12.5701   XZ=             35.4152   YZ=              8.7825

 Normal termination of Gaussian 16 at Sun Sep 29 01:31:31 2019.
