 Gaussian 16, Revision A.03,
 Gaussian 16:  ES64L-G16RevA.03 25-Dec-2016

 --------------------------
 # td=(NStates=1) B3LYP/SVP
 --------------------------

 --
 TD
 --
 Symbolic Z-matrix:
 Charge =  0 Multiplicity = 1

                         Standard orientation:
 ---------------------------------------------------------------------
 Center     Atomic      Atomic             Coordinates (Angstroms)
 Number     Number       Type             X           Y           Z
 ---------------------------------------------------------------------
      1          8           0        5.264399    0.079984   -3.265206
      2          8           0       -3.084593   -2.717515    2.967137
      3          8           0       -3.245922   -0.429240    2.816811
      4          8           0       -1.858404    7.181429    1.326287
      5          8           0       -0.766487    7.019621   -0.603650
      6          8           0       -1.649422   -4.146723    0.234830
      7          7           0        2.324989    1.023078    0.584067
      8          7           0        4.400200   -0.621619   -1.238544
      9          7           0       -1.664876    0.634693   -0.413806
     10          7           0       -2.419181   -1.989015   -0.412353
     11          6           0        4.714362   -1.167003    0.035834
     12          6           0        4.412083   -0.110490    1.248494
     13          6           0        2.982352    0.118304    1.319758
     14          6           0        1.963355   -0.464691    2.215856
     15          6           0        0.798134    0.183729    1.886007
     16          6           0        1.007072    1.157850    0.822955
     17          6           0        6.160287   -1.402542   -0.139379
     18          6           0       -0.474727   -0.071430    2.633762
     19          6           0        6.625446   -0.892174   -1.350039
     20          6           0        0.186999    2.183819    0.185059
     21          6           0       -1.063522    1.852515   -0.339769
     22          6           0        5.340659   -0.392971   -2.072502
     23          6           0       -1.994183    2.832944   -0.937152
     24          6           0        2.166505   -1.487546    3.189337
     25          6           0        7.036947   -1.936541    0.930971
     26          6           0       -3.117738    2.136555   -1.298766
     27          6           0       -1.115893   -1.379876    2.651798
     28          6           0       -2.942926    0.703769   -1.035846
     29          6           0       -1.732188    4.375964   -1.076746
     30          6           0        7.831404   -0.801229   -2.030901
     31          6           0       -2.002286    5.210978    0.277512
     32          6           0       -4.392745    2.522589   -2.092236
     33          6           0       -3.784529   -0.238369   -1.363570
     34          6           0       -2.581204   -1.448658    2.857320
     35          6           0       -3.511037   -1.690905   -1.103264
     36          6           0        9.093051   -1.010571   -1.445799
     37          6           0       -1.503552    6.570212    0.263438
     38          6           0       -4.441618   -2.798269   -1.435487
     39          6           0       -3.790965   -3.853838   -0.873503
     40          6           0       -2.556664   -3.452518   -0.295223
     41          6           0       -5.671851   -2.643468   -2.101136
     42          6           0       -4.226431   -5.389131   -0.843427
     43          6           0       -6.464581   -3.758498   -2.391904
     44          1           0        4.300163   -2.104189    0.400634
     45          1           0        5.118423    0.943438    0.993660
     46          1           0        4.748186   -0.626200    2.141721
     47          1           0        2.486888    1.742540   -0.297863
     48          1           0        3.458869   -0.467680   -1.538075
     49          1           0       -0.329444    0.529047    3.710220
     50          1           0       -1.212550    0.649376    2.145310
     51          1           0        0.603424    3.102978   -0.071628
     52          1           0        3.192914   -1.466202    3.480183
     53          1           0        1.391169   -1.512535    3.961276
     54          1           0        1.897650   -2.601457    2.726661
     55          1           0        6.052039   -2.511270    1.538992
     56          1           0        7.734680   -1.150794    1.578020
     57          1           0        7.740027   -2.738189    0.576601
     58          1           0       -1.003301   -2.154722    1.763112
     59          1           0       -0.605033   -1.941657    3.481310
     60          1           0       -1.416408   -0.352418   -0.426178
     61          1           0       -2.344308    4.657778   -2.045339
     62          1           0       -0.682498    4.496958   -1.510281
     63          1           0        7.934479   -0.316333   -2.995489
     64          1           0       -1.384174    4.583117    1.012367
     65          1           0       -3.076398    5.021169    0.435870
     66          1           0       -4.452573    3.687508   -2.220368
     67          1           0       -5.454138    2.215854   -1.536443
     68          1           0       -4.259450    1.932771   -3.160425
     69          1           0       -4.839520    0.017985   -1.794429
     70          1           0        9.144283   -1.081697   -0.234977
     71          1           0        9.949004   -1.034663   -2.141865
     72          1           0       -4.020185   -2.470799    3.058416
     73          1           0       -6.049153   -1.621864   -2.217115
     74          1           0       -5.240136   -5.524696   -0.455575
     75          1           0       -4.165719   -5.690108   -1.812192
     76          1           0       -3.423132   -5.934922   -0.216253
     77          1           0       -1.608477    8.095751    1.336522
     78          1           0       -7.389737   -3.514438   -2.748992
     79          1           0       -6.260464   -4.840878   -2.111355
 ---------------------------------------------------------------------

 SCF Done:  E(RB3LYP) =  -1947.81765796     A.U. after   17 cycles

 Excitation energies and oscillator strengths:

 Excited State   1:      Singlet-A      1.6308 eV  760.27 nm  f=0.3190  <S**2>=0.000
     155 ->156         0.70791
     155 <-156        -0.10964
 This state for optimization and/or second-order correction.
 Total Energy, E(TD-HF/TD-DFT) =  -1947.75772780
 Copying the excited state density for this state as the 1-particle RhoCI density.

 The electronic state is 1-A.
 Alpha  occ. eigenvalues --  -19.19946 -19.17669 -19.12228 -19.12109 -19.11432
 Alpha  occ. eigenvalues --  -19.08326 -14.39423 -14.36376 -14.36023 -14.30698
 Alpha  occ. eigenvalues --  -10.32352 -10.30621 -10.27783 -10.27431 -10.25284
 Alpha  occ. eigenvalues --  -10.24730 -10.24491 -10.23582 -10.23426 -10.23274
 Alpha  occ. eigenvalues --  -10.23236 -10.22909 -10.22337 -10.22193 -10.22125
 Alpha  occ. eigenvalues --  -10.21802 -10.21397 -10.21360 -10.21304 -10.21223
 Alpha  occ. eigenvalues --  -10.21096 -10.20895 -10.20862 -10.20783 -10.20043
 Alpha  occ. eigenvalues --  -10.19814 -10.19647 -10.19510 -10.19466 -10.19051
 Alpha  occ. eigenvalues --  -10.18993 -10.18328 -10.18082  -1.13362  -1.08497
 Alpha  occ. eigenvalues --   -1.01451  -1.00988  -1.00759  -0.99497  -0.99231
 Alpha  occ. eigenvalues --   -0.97423  -0.93547  -0.92876  -0.82460  -0.82252
 Alpha  occ. eigenvalues --   -0.81583  -0.81305  -0.81085  -0.79913  -0.77914
 Alpha  occ. eigenvalues --   -0.77414  -0.76504  -0.75758  -0.74504  -0.71693
 Alpha  occ. eigenvalues --   -0.71097  -0.70669  -0.70153  -0.69656  -0.68185
 Alpha  occ. eigenvalues --   -0.66702  -0.66077  -0.64940  -0.62615  -0.61810
 Alpha  occ. eigenvalues --   -0.61629  -0.59507  -0.57341  -0.56978  -0.56703
 Alpha  occ. eigenvalues --   -0.56523  -0.55452  -0.54821  -0.53971  -0.53223
 Alpha  occ. eigenvalues --   -0.52237  -0.51577  -0.50636  -0.50616  -0.49871
 Alpha  occ. eigenvalues --   -0.49259  -0.48960  -0.48620  -0.47968  -0.47739
 Alpha  occ. eigenvalues --   -0.47523  -0.47220  -0.46705  -0.46068  -0.45211
 Alpha  occ. eigenvalues --   -0.44991  -0.44978  -0.44224  -0.44017  -0.43794
 Alpha  occ. eigenvalues --   -0.43423  -0.43029  -0.42633  -0.42000  -0.41946
 Alpha  occ. eigenvalues --   -0.41496  -0.41238  -0.41113  -0.40900  -0.40833
 Alpha  occ. eigenvalues --   -0.40496  -0.40147  -0.39982  -0.39870  -0.39377
 Alpha  occ. eigenvalues --   -0.38946  -0.38753  -0.38611  -0.38308  -0.37987
 Alpha  occ. eigenvalues --   -0.37822  -0.37506  -0.37427  -0.37107  -0.36835
 Alpha  occ. eigenvalues --   -0.36545  -0.36471  -0.35108  -0.34628  -0.34391
 Alpha  occ. eigenvalues --   -0.33488  -0.32896  -0.32829  -0.32281  -0.31377
 Alpha  occ. eigenvalues --   -0.31148  -0.30387  -0.29516  -0.28933  -0.28301
 Alpha  occ. eigenvalues --   -0.26809  -0.25999  -0.25831  -0.25370  -0.24287
 Alpha  occ. eigenvalues --   -0.23918  -0.23609  -0.23168  -0.22206  -0.18426
 Alpha virt. eigenvalues --   -0.11949  -0.07208  -0.06479  -0.02402  -0.00237
 Alpha virt. eigenvalues --    0.00386   0.01206   0.01281   0.01497   0.02151
 Alpha virt. eigenvalues --    0.02685   0.03483   0.04396   0.04992   0.05284

 Mulliken charges:
               1
     1  O   -0.309986
     2  O   -0.183250
     3  O   -0.242371
     4  O   -0.095471
     5  O   -0.243829
     6  O   -0.220498
     7  N   -0.058267
     8  N   -0.036672
     9  N   -0.074327
    10  N   -0.295343
    11  C    0.085111
    12  C    0.113981
    13  C   -0.084910
    14  C   -0.092342
    15  C   -0.106475
    16  C    0.009799
    17  C   -0.149027
    18  C    0.035279
    19  C    0.009982
    20  C   -0.100600
    21  C    0.123005
    22  C    0.094624
    23  C   -0.125550
    24  C    0.082178
    25  C   -0.044791
    26  C   -0.096390
    27  C    0.000768
    28  C    0.161182
    29  C    0.024395
    30  C   -0.055708
    31  C    0.002880
    32  C   -0.035332
    33  C   -0.169451
    34  C    0.133491
    35  C    0.041763
    36  C   -0.076126
    37  C    0.114318
    38  C    0.073454
    39  C   -0.211209
    40  C    0.184106
    41  C   -0.058175
    42  C    0.112207
    43  C    0.019920
    44  H    0.023894
    45  H    0.041767
    46  H   -0.010004
    47  H    0.173314
    48  H    0.110749
    49  H    0.028365
    50  H    0.015868
    51  H   -0.030622
    52  H    0.003637
    53  H    0.017170
    54  H    0.039127
    55  H    0.021421
    56  H    0.079514
    57  H    0.054885
    58  H    0.093305
    59  H    0.011734
    60  H    0.139698
    61  H    0.029480
    62  H    0.030306
    63  H    0.017575
    64  H    0.065773
    65  H    0.049259
    66  H    0.036867
    67  H    0.059303
    68  H    0.066367
    69  H    0.011446
    70  H    0.043718
    71  H    0.036796
    72  H    0.166965
    73  H    0.003786
    74  H    0.034096
    75  H    0.011443
    76  H    0.047245
    77  H    0.173588
    78  H    0.000463
    79  H    0.045362
 Sum of Mulliken charges =  -0.00000

 Dipole moment (field-independent basis, Debye):
    X=             -3.5448    Y=              1.5444    Z=              2.8552  Tot=              4.8065
 Quadrupole moment (field-independent basis, Debye-Ang):
   XX=           -219.3319   YY=           -240.7387   ZZ=           -267.5068
   XY=             -2.9085   XZ=             34.8372   YZ=             11.2476

 Normal termination of Gaussian 16 at Fri Sep 27 01:14:58 2019.
