 Gaussian 16, Revision A.03,
 Gaussian 16:  ES64L-G16RevA.03 25-Dec-2016

 --------------------------
 # td=(NStates=1) B3LYP/SVP
 --------------------------

 --
 TD
 --
 Symbolic Z-matrix:
 Charge =  0 Multiplicity = 1

                         Standard orientation:
 ---------------------------------------------------------------------
 Center     Atomic      Atomic             Coordinates (Angstroms)
 Number     Number       Type             X           Y           Z
 ---------------------------------------------------------------------
      1          8           0        5.350154    0.053172   -3.200397
      2          8           0       -3.191129   -2.677882    2.880161
      3          8           0       -3.548375   -0.487954    2.725899
      4          8           0       -1.429100    7.143260    1.461431
      5          8           0       -1.014250    7.050589   -0.760547
      6          8           0       -1.639771   -4.092490    0.100562
      7          7           0        2.338498    0.864037    0.607115
      8          7           0        4.395370   -0.512554   -1.291513
      9          7           0       -1.795409    0.624917   -0.397082
     10          7           0       -2.453985   -1.994858   -0.515341
     11          6           0        4.732478   -1.164846   -0.083985
     12          6           0        4.342106   -0.394877    1.246789
     13          6           0        2.897549   -0.134023    1.385899
     14          6           0        1.909311   -0.671037    2.224323
     15          6           0        0.731410    0.044636    1.884684
     16          6           0        0.971764    0.977123    0.907886
     17          6           0        6.224411   -1.455433   -0.150253
     18          6           0       -0.551658   -0.140169    2.677698
     19          6           0        6.655792   -0.793327   -1.263769
     20          6           0        0.158445    2.029588    0.236552
     21          6           0       -1.092770    1.778356   -0.264631
     22          6           0        5.453854   -0.334668   -2.113091
     23          6           0       -1.931909    2.838559   -0.824281
     24          6           0        2.082318   -1.735115    3.208301
     25          6           0        7.103937   -2.025269    0.893525
     26          6           0       -3.118048    2.263357   -1.269553
     27          6           0       -1.247056   -1.445471    2.538636
     28          6           0       -3.068099    0.891465   -0.972844
     29          6           0       -1.455354    4.255384   -0.980050
     30          6           0        8.021289   -0.660629   -1.933000
     31          6           0       -1.723263    5.116722    0.308405
     32          6           0       -4.265753    2.883966   -1.927488
     33          6           0       -3.837406   -0.209840   -1.336231
     34          6           0       -2.739348   -1.420876    2.788809
     35          6           0       -3.658821   -1.572014   -1.006602
     36          6           0        9.258046   -0.807165   -1.342339
     37          6           0       -1.307741    6.531860    0.301623
     38          6           0       -4.559880   -2.686493   -1.382815
     39          6           0       -3.817188   -3.785485   -1.019059
     40          6           0       -2.509790   -3.339617   -0.384154
     41          6           0       -5.845960   -2.539676   -1.994885
     42          6           0       -4.184953   -5.274294   -1.195371
     43          6           0       -6.582967   -3.496772   -2.367728
     44          1           0        4.059709   -2.134364   -0.099078
     45          1           0        5.081688    0.564703    1.175259
     46          1           0        4.659058   -1.080617    1.996446
     47          1           0        2.774133    1.318388   -0.055190
     48          1           0        3.460212   -0.670133   -1.749195
     49          1           0       -0.657637    0.215687    3.744575
     50          1           0       -1.314560    0.517622    2.163536
     51          1           0        0.788207    2.916662    0.023746
     52          1           0        3.074605   -1.758608    3.676859
     53          1           0        1.550818   -1.586131    4.186817
     54          1           0        1.789097   -2.826808    2.955706
     55          1           0        6.699977   -3.032849    1.446306
     56          1           0        7.568281   -1.127022    1.609376
     57          1           0        8.053452   -2.557186    0.390936
     58          1           0       -1.150373   -1.811279    1.592482
     59          1           0       -0.796736   -2.073664    3.216511
     60          1           0       -1.526038   -0.330100   -0.369335
     61          1           0       -2.011748    4.704733   -1.788737
     62          1           0       -0.540097    4.474452   -1.354961
     63          1           0        7.910433   -0.384913   -2.828871
     64          1           0       -1.033821    4.648046    1.191738
     65          1           0       -2.747415    5.047822    0.678480
     66          1           0       -4.026692    3.977704   -2.258932
     67          1           0       -5.150997    2.815719   -1.266169
     68          1           0       -4.512349    2.344624   -3.048216
     69          1           0       -4.881159    0.075261   -1.661456
     70          1           0        9.222775   -1.020929   -0.205557
     71          1           0       10.137501   -0.550018   -1.995305
     72          1           0       -4.149470   -2.736630    3.002733
     73          1           0       -6.294047   -1.422160   -1.937941
     74          1           0       -5.089176   -5.398909   -0.534793
     75          1           0       -4.351358   -5.435549   -2.327498
     76          1           0       -3.270974   -5.805733   -0.848954
     77          1           0       -1.363046    8.148587    1.303458
     78          1           0       -7.513529   -3.384096   -2.778600
     79          1           0       -6.328739   -4.566179   -2.471285
 ---------------------------------------------------------------------

 SCF Done:  E(RB3LYP) =  -1947.90089156     A.U. after   17 cycles

 Excitation energies and oscillator strengths:

 Excited State   1:      Singlet-A      2.0363 eV  608.87 nm  f=0.3717  <S**2>=0.000
     153 ->156        -0.13316
     154 ->156         0.17255
     155 ->156         0.67358
     155 <-156        -0.11460
 This state for optimization and/or second-order correction.
 Total Energy, E(TD-HF/TD-DFT) =  -1947.82605864
 Copying the excited state density for this state as the 1-particle RhoCI density.

 The electronic state is 1-A.
 Alpha  occ. eigenvalues --  -19.20250 -19.16398 -19.12642 -19.10782 -19.10351
 Alpha  occ. eigenvalues --  -19.09766 -14.37123 -14.36007 -14.35015 -14.28626
 Alpha  occ. eigenvalues --  -10.32419 -10.30456 -10.28017 -10.25863 -10.25154
 Alpha  occ. eigenvalues --  -10.24877 -10.24489 -10.23958 -10.23682 -10.22864
 Alpha  occ. eigenvalues --  -10.22748 -10.22611 -10.22304 -10.22235 -10.22013
 Alpha  occ. eigenvalues --  -10.21960 -10.21938 -10.21151 -10.20880 -10.20665
 Alpha  occ. eigenvalues --  -10.20415 -10.20205 -10.19709 -10.19675 -10.19613
 Alpha  occ. eigenvalues --  -10.19500 -10.19402 -10.19395 -10.18861 -10.18820
 Alpha  occ. eigenvalues --  -10.18231 -10.17789 -10.16674  -1.11109  -1.07837
 Alpha  occ. eigenvalues --   -1.06053  -1.01209  -0.99484  -0.98588  -0.98131
 Alpha  occ. eigenvalues --   -0.97485  -0.95335  -0.91650  -0.82991  -0.82146
 Alpha  occ. eigenvalues --   -0.81902  -0.81601  -0.81126  -0.79604  -0.78020
 Alpha  occ. eigenvalues --   -0.77549  -0.76488  -0.75297  -0.74707  -0.72895
 Alpha  occ. eigenvalues --   -0.71593  -0.70467  -0.69899  -0.69477  -0.68805
 Alpha  occ. eigenvalues --   -0.67075  -0.65842  -0.63616  -0.61016  -0.60973
 Alpha  occ. eigenvalues --   -0.60612  -0.59868  -0.59016  -0.57727  -0.57398
 Alpha  occ. eigenvalues --   -0.57051  -0.55704  -0.55085  -0.54278  -0.52999
 Alpha  occ. eigenvalues --   -0.52045  -0.51798  -0.50856  -0.50678  -0.49908
 Alpha  occ. eigenvalues --   -0.49345  -0.48821  -0.48424  -0.47812  -0.47719
 Alpha  occ. eigenvalues --   -0.47176  -0.47093  -0.46146  -0.45886  -0.45389
 Alpha  occ. eigenvalues --   -0.45264  -0.44855  -0.44399  -0.44157  -0.43735
 Alpha  occ. eigenvalues --   -0.43272  -0.42988  -0.42767  -0.42689  -0.42620
 Alpha  occ. eigenvalues --   -0.42194  -0.41769  -0.41581  -0.41229  -0.40882
 Alpha  occ. eigenvalues --   -0.40605  -0.40189  -0.40096  -0.40030  -0.39674
 Alpha  occ. eigenvalues --   -0.39382  -0.39196  -0.39094  -0.38800  -0.38505
 Alpha  occ. eigenvalues --   -0.38092  -0.37648  -0.37314  -0.36747  -0.36604
 Alpha  occ. eigenvalues --   -0.36044  -0.35096  -0.34888  -0.34741  -0.34397
 Alpha  occ. eigenvalues --   -0.33700  -0.33600  -0.33212  -0.31914  -0.31342
 Alpha  occ. eigenvalues --   -0.30940  -0.30223  -0.28675  -0.28107  -0.27293
 Alpha  occ. eigenvalues --   -0.26678  -0.26346  -0.26189  -0.26056  -0.25004
 Alpha  occ. eigenvalues --   -0.24521  -0.23753  -0.23579  -0.22169  -0.19483
 Alpha virt. eigenvalues --   -0.11546  -0.06282  -0.05929  -0.00364  -0.00151
 Alpha virt. eigenvalues --    0.00588   0.01239   0.01483   0.02684   0.03013
 Alpha virt. eigenvalues --    0.03553   0.04050   0.04216   0.05053   0.05684

 Mulliken charges:
               1
     1  O   -0.155808
     2  O   -0.170984
     3  O   -0.260480
     4  O   -0.176106
     5  O   -0.245300
     6  O   -0.237598
     7  N   -0.023020
     8  N   -0.167475
     9  N   -0.075560
    10  N   -0.285269
    11  C    0.014977
    12  C    0.184405
    13  C   -0.077107
    14  C   -0.055879
    15  C   -0.093365
    16  C    0.033898
    17  C   -0.104397
    18  C    0.034162
    19  C   -0.129797
    20  C   -0.108631
    21  C    0.172955
    22  C    0.106194
    23  C   -0.098692
    24  C    0.045123
    25  C   -0.069823
    26  C   -0.075235
    27  C    0.113485
    28  C    0.107853
    29  C    0.199324
    30  C    0.090026
    31  C   -0.063284
    32  C   -0.002429
    33  C   -0.094299
    34  C    0.119517
    35  C    0.081467
    36  C   -0.030891
    37  C    0.130116
    38  C    0.072369
    39  C   -0.265421
    40  C    0.169593
    41  C   -0.007203
    42  C    0.063892
    43  C   -0.018869
    44  H    0.023203
    45  H    0.022328
    46  H   -0.022418
    47  H    0.048015
    48  H    0.143944
    49  H    0.012875
    50  H    0.001097
    51  H    0.016219
    52  H   -0.002078
    53  H    0.007245
    54  H    0.054004
    55  H    0.051201
    56  H    0.079884
    57  H    0.059310
    58  H    0.021391
    59  H   -0.013591
    60  H    0.120668
    61  H   -0.011064
    62  H   -0.024210
    63  H   -0.082392
    64  H    0.052217
    65  H    0.044205
    66  H    0.035039
    67  H    0.052867
    68  H    0.052991
    69  H   -0.012139
    70  H    0.036886
    71  H    0.045589
    72  H    0.176145
    73  H    0.020549
    74  H    0.045700
    75  H    0.052129
    76  H    0.036164
    77  H    0.212101
    78  H   -0.014432
    79  H    0.011925
 Sum of Mulliken charges =  -0.00000

 Dipole moment (field-independent basis, Debye):
    X=              0.0631    Y=              2.7274    Z=              2.6480  Tot=              3.8019
 Quadrupole moment (field-independent basis, Debye-Ang):
   XX=           -219.7243   YY=           -242.7928   ZZ=           -260.6907
   XY=             -9.1865   XZ=             26.8840   YZ=              6.9796

 Normal termination of Gaussian 16 at Sat Sep 28 19:32:41 2019.
