 Gaussian 16, Revision A.03,
 Gaussian 16:  ES64L-G16RevA.03 25-Dec-2016

 --------------------------
 # td=(NStates=1) B3LYP/SVP
 --------------------------

 --
 TD
 --
 Symbolic Z-matrix:
 Charge =  0 Multiplicity = 1

                         Standard orientation:
 ---------------------------------------------------------------------
 Center     Atomic      Atomic             Coordinates (Angstroms)
 Number     Number       Type             X           Y           Z
 ---------------------------------------------------------------------
      1          8           0        5.312560    0.039886   -3.214189
      2          8           0       -3.180687   -2.822374    3.177120
      3          8           0       -3.516286   -0.661442    2.922406
      4          8           0       -1.097859    7.127134    1.597159
      5          8           0       -0.556547    7.041519   -0.586613
      6          8           0       -1.803944   -3.869092    0.115118
      7          7           0        2.266407    0.822733    0.621584
      8          7           0        4.324174   -0.654571   -1.315628
      9          7           0       -1.829030    0.703717   -0.508773
     10          7           0       -2.560320   -1.775731   -0.475158
     11          6           0        4.690403   -1.262163   -0.020992
     12          6           0        4.404383   -0.454074    1.145469
     13          6           0        2.956905   -0.083727    1.425393
     14          6           0        1.877901   -0.769883    2.239825
     15          6           0        0.709244   -0.112926    1.813391
     16          6           0        0.990285    0.869867    0.795524
     17          6           0        6.119038   -1.529620   -0.181929
     18          6           0       -0.614801   -0.207008    2.559792
     19          6           0        6.563621   -0.917385   -1.395986
     20          6           0        0.158160    1.951037    0.280468
     21          6           0       -1.071125    1.809836   -0.316908
     22          6           0        5.428856   -0.371448   -2.086105
     23          6           0       -1.873592    2.932261   -0.870776
     24          6           0        2.177685   -1.761320    3.238391
     25          6           0        6.946415   -2.297356    0.807819
     26          6           0       -3.094294    2.417856   -1.302839
     27          6           0       -1.255949   -1.535698    2.611710
     28          6           0       -3.012619    0.946341   -1.102249
     29          6           0       -1.492349    4.361654   -0.811212
     30          6           0        7.899892   -0.736199   -1.988345
     31          6           0       -1.525793    5.069912    0.503762
     32          6           0       -4.205701    3.045076   -1.971815
     33          6           0       -3.924254   -0.005148   -1.524457
     34          6           0       -2.705592   -1.577386    2.917422
     35          6           0       -3.708094   -1.410438   -1.145741
     36          6           0        9.137319   -0.922052   -1.384285
     37          6           0       -1.086855    6.553246    0.425008
     38          6           0       -4.577782   -2.575926   -1.518532
     39          6           0       -3.920171   -3.679099   -1.187503
     40          6           0       -2.638931   -3.240069   -0.484480
     41          6           0       -5.773578   -2.297970   -2.311546
     42          6           0       -4.286556   -5.180046   -1.077456
     43          6           0       -6.675580   -3.379533   -2.413781
     44          1           0        4.004091   -2.223542    0.083326
     45          1           0        5.123659    0.627742    1.062767
     46          1           0        4.614100   -0.961444    2.076394
     47          1           0        2.667942    1.339238   -0.067683
     48          1           0        3.415254   -1.067493   -1.712387
     49          1           0       -0.444675    0.120846    3.527761
     50          1           0       -1.357835    0.469047    2.414443
     51          1           0        0.404518    3.058076    0.253132
     52          1           0        3.171008   -1.531423    3.476894
     53          1           0        1.533854   -1.646917    4.041569
     54          1           0        1.825612   -2.737273    3.022770
     55          1           0        6.083456   -2.959691    1.081023
     56          1           0        7.440012   -1.638939    1.750484
     57          1           0        7.767233   -3.005883    0.419258
     58          1           0       -1.124523   -2.152939    1.689063
     59          1           0       -0.744047   -2.346824    3.213433
     60          1           0       -1.775849   -0.371010   -0.211409
     61          1           0       -1.759935    5.056246   -1.648160
     62          1           0       -0.363535    4.356189   -0.866361
     63          1           0        8.013107   -0.213242   -2.966938
     64          1           0       -1.037928    4.777043    1.300727
     65          1           0       -2.567164    5.175618    0.690173
     66          1           0       -3.822064    4.223846   -2.391507
     67          1           0       -5.226551    3.007838   -1.376411
     68          1           0       -4.464291    2.416537   -2.892449
     69          1           0       -4.930916    0.415673   -1.815675
     70          1           0        9.525246   -1.236463   -0.358843
     71          1           0        9.946826   -0.685884   -2.158801
     72          1           0       -4.215038   -2.805563    3.477189
     73          1           0       -6.062316   -1.353032   -2.615539
     74          1           0       -5.166376   -5.536008   -0.396449
     75          1           0       -4.428554   -5.543289   -2.101941
     76          1           0       -3.396146   -5.894631   -0.712009
     77          1           0       -0.844571    8.032947    1.447858
     78          1           0       -7.685516   -3.296043   -3.053778
     79          1           0       -6.483522   -4.291123   -2.026317
 ---------------------------------------------------------------------

 SCF Done:  E(RB3LYP) =  -1947.82467681     A.U. after   16 cycles

 Excitation energies and oscillator strengths:

 Excited State   1:      Singlet-A      2.0017 eV  619.40 nm  f=0.3428  <S**2>=0.000
     155 ->156         0.70245
 This state for optimization and/or second-order correction.
 Total Energy, E(TD-HF/TD-DFT) =  -1947.75111600
 Copying the excited state density for this state as the 1-particle RhoCI density.

 The electronic state is 1-A.
 Alpha  occ. eigenvalues --  -19.20331 -19.16022 -19.12805 -19.11492 -19.10178
 Alpha  occ. eigenvalues --  -19.09439 -14.37541 -14.34963 -14.34404 -14.30219
 Alpha  occ. eigenvalues --  -10.32706 -10.30007 -10.27577 -10.27509 -10.24734
 Alpha  occ. eigenvalues --  -10.24284 -10.23808 -10.23695 -10.22994 -10.22925
 Alpha  occ. eigenvalues --  -10.22618 -10.22445 -10.22348 -10.21978 -10.21441
 Alpha  occ. eigenvalues --  -10.21318 -10.21167 -10.21129 -10.21109 -10.21054
 Alpha  occ. eigenvalues --  -10.21043 -10.20883 -10.20860 -10.20827 -10.20488
 Alpha  occ. eigenvalues --  -10.20291 -10.19848 -10.19604 -10.19252 -10.18486
 Alpha  occ. eigenvalues --  -10.18458 -10.17855 -10.16744  -1.12564  -1.06206
 Alpha  occ. eigenvalues --   -1.02829  -1.02779  -1.00300  -0.99603  -0.97864
 Alpha  occ. eigenvalues --   -0.96433  -0.93815  -0.90981  -0.82979  -0.81758
 Alpha  occ. eigenvalues --   -0.81334  -0.81095  -0.80781  -0.79824  -0.78417
 Alpha  occ. eigenvalues --   -0.77796  -0.76215  -0.75315  -0.74119  -0.72698
 Alpha  occ. eigenvalues --   -0.71711  -0.71158  -0.69752  -0.69093  -0.67682
 Alpha  occ. eigenvalues --   -0.67118  -0.65394  -0.63747  -0.61878  -0.60653
 Alpha  occ. eigenvalues --   -0.60520  -0.58792  -0.58437  -0.56860  -0.56361
 Alpha  occ. eigenvalues --   -0.55831  -0.55366  -0.55233  -0.54487  -0.53433
 Alpha  occ. eigenvalues --   -0.51786  -0.51255  -0.50998  -0.50808  -0.49941
 Alpha  occ. eigenvalues --   -0.49251  -0.49063  -0.48582  -0.47927  -0.47625
 Alpha  occ. eigenvalues --   -0.47027  -0.46581  -0.45655  -0.45561  -0.45187
 Alpha  occ. eigenvalues --   -0.44834  -0.44612  -0.44147  -0.43874  -0.43572
 Alpha  occ. eigenvalues --   -0.43389  -0.43004  -0.42775  -0.42400  -0.42063
 Alpha  occ. eigenvalues --   -0.41737  -0.41582  -0.41356  -0.41318  -0.40961
 Alpha  occ. eigenvalues --   -0.40506  -0.40296  -0.40232  -0.40187  -0.39976
 Alpha  occ. eigenvalues --   -0.39690  -0.39336  -0.38987  -0.38727  -0.38127
 Alpha  occ. eigenvalues --   -0.37645  -0.37595  -0.37324  -0.37013  -0.36746
 Alpha  occ. eigenvalues --   -0.36209  -0.35329  -0.35093  -0.34972  -0.34762
 Alpha  occ. eigenvalues --   -0.33403  -0.33265  -0.32853  -0.31063  -0.31027
 Alpha  occ. eigenvalues --   -0.30829  -0.29589  -0.28595  -0.28112  -0.27868
 Alpha  occ. eigenvalues --   -0.26124  -0.25828  -0.25163  -0.25142  -0.24811
 Alpha  occ. eigenvalues --   -0.23953  -0.23511  -0.23479  -0.22316  -0.18806
 Alpha virt. eigenvalues --   -0.10641  -0.07476  -0.06465  -0.01843  -0.00276
 Alpha virt. eigenvalues --   -0.00018   0.01119   0.02005   0.02887   0.02952
 Alpha virt. eigenvalues --    0.03699   0.03874   0.04264   0.04706   0.04878

 Mulliken charges:
               1
     1  O   -0.208494
     2  O   -0.255118
     3  O   -0.250883
     4  O   -0.116288
     5  O   -0.263307
     6  O   -0.174567
     7  N    0.060709
     8  N   -0.219511
     9  N   -0.085057
    10  N   -0.353185
    11  C    0.033311
    12  C    0.161343
    13  C   -0.143418
    14  C   -0.167685
    15  C   -0.090601
    16  C    0.033914
    17  C   -0.110350
    18  C    0.214234
    19  C   -0.024710
    20  C   -0.124247
    21  C    0.094612
    22  C    0.134359
    23  C   -0.052714
    24  C    0.235544
    25  C   -0.009202
    26  C   -0.069624
    27  C   -0.020781
    28  C    0.067474
    29  C    0.040071
    30  C   -0.030271
    31  C    0.102031
    32  C   -0.030720
    33  C   -0.109778
    34  C    0.123405
    35  C    0.078394
    36  C   -0.078939
    37  C    0.083574
    38  C    0.066874
    39  C   -0.176130
    40  C    0.178484
    41  C    0.011848
    42  C    0.010152
    43  C   -0.002102
    44  H    0.031132
    45  H    0.023716
    46  H   -0.019137
    47  H    0.076236
    48  H    0.158450
    49  H   -0.028927
    50  H   -0.044109
    51  H   -0.002674
    52  H    0.004942
    53  H   -0.031496
    54  H    0.007611
    55  H    0.029568
    56  H    0.075828
    57  H    0.055330
    58  H    0.057689
    59  H    0.002745
    60  H    0.203656
    61  H    0.035900
    62  H   -0.001233
    63  H    0.033820
    64  H   -0.005428
    65  H    0.011286
    66  H    0.050807
    67  H    0.051873
    68  H    0.040872
    69  H    0.001762
    70  H    0.041129
    71  H    0.035807
    72  H    0.226530
    73  H   -0.023617
    74  H    0.059840
    75  H    0.025522
    76  H    0.044921
    77  H    0.173036
    78  H    0.045972
    79  H   -0.012011
 Sum of Mulliken charges =  -0.00000

 Dipole moment (field-independent basis, Debye):
    X=             -0.7410    Y=              0.1712    Z=              3.3068  Tot=              3.3932
 Quadrupole moment (field-independent basis, Debye-Ang):
   XX=           -215.3534   YY=           -235.5036   ZZ=           -263.3260
   XY=             -7.3918   XZ=             31.2121   YZ=              9.6646

 Normal termination of Gaussian 16 at Mon Sep 23 03:03:16 2019.
