 Gaussian 16, Revision A.03,
 Gaussian 16:  ES64L-G16RevA.03 25-Dec-2016

 --------------------------
 # td=(NStates=1) B3LYP/SVP
 --------------------------

 --
 TD
 --
 Symbolic Z-matrix:
 Charge =  0 Multiplicity = 1

                         Standard orientation:
 ---------------------------------------------------------------------
 Center     Atomic      Atomic             Coordinates (Angstroms)
 Number     Number       Type             X           Y           Z
 ---------------------------------------------------------------------
      1          8           0        5.342078   -0.399715   -3.362729
      2          8           0       -3.026421   -2.874307    3.122741
      3          8           0       -3.322036   -0.647734    3.225086
      4          8           0       -1.519780    7.152047    1.459266
      5          8           0       -1.048778    7.049657   -0.807937
      6          8           0       -1.636796   -3.958676    0.175717
      7          7           0        2.257977    1.033234    0.479418
      8          7           0        4.407891   -0.561342   -1.218269
      9          7           0       -1.864048    0.619170   -0.397387
     10          7           0       -2.493116   -1.970434   -0.460483
     11          6           0        4.911918   -1.022866    0.090896
     12          6           0        4.365066   -0.079492    1.293318
     13          6           0        2.957667    0.107534    1.359562
     14          6           0        1.981001   -0.428084    2.188483
     15          6           0        0.693622    0.077785    1.872173
     16          6           0        0.944103    1.015268    0.828038
     17          6           0        6.331519   -1.207045   -0.066529
     18          6           0       -0.618128   -0.101324    2.696774
     19          6           0        6.650012   -0.945765   -1.382956
     20          6           0        0.058066    2.026408    0.202867
     21          6           0       -1.123082    1.755124   -0.344597
     22          6           0        5.402775   -0.604852   -2.178047
     23          6           0       -1.962804    2.751668   -0.929126
     24          6           0        2.123558   -1.575695    3.185864
     25          6           0        7.132468   -1.720789    1.079615
     26          6           0       -3.200137    2.175458   -1.416129
     27          6           0       -1.099503   -1.522243    2.504001
     28          6           0       -3.099356    0.847950   -1.052769
     29          6           0       -1.640687    4.224018   -0.929689
     30          6           0        7.960408   -0.915954   -2.143253
     31          6           0       -1.918466    5.095361    0.264306
     32          6           0       -4.282423    2.935360   -2.122859
     33          6           0       -4.040956   -0.180324   -1.257499
     34          6           0       -2.537426   -1.574915    2.981333
     35          6           0       -3.633285   -1.523051   -1.033085
     36          6           0        9.224509   -0.611462   -1.511665
     37          6           0       -1.493627    6.492311    0.267324
     38          6           0       -4.535711   -2.714940   -1.396452
     39          6           0       -3.755729   -3.809566   -1.063274
     40          6           0       -2.531966   -3.280146   -0.283309
     41          6           0       -5.708680   -2.626135   -1.980982
     42          6           0       -4.207768   -5.338449   -1.004785
     43          6           0       -6.504339   -3.612527   -2.677200
     44          1           0        4.442560   -1.868779    0.187300
     45          1           0        4.806200    0.860742    0.823588
     46          1           0        5.214050   -0.426580    2.043380
     47          1           0        2.842524    1.538338   -0.153538
     48          1           0        3.309498   -0.281584   -1.374239
     49          1           0       -0.327966   -0.007367    3.787166
     50          1           0       -1.332708    0.591264    2.166221
     51          1           0        0.372175    2.920898    0.061209
     52          1           0        3.390854   -1.787635    3.456207
     53          1           0        1.620800   -1.609696    4.179143
     54          1           0        1.770833   -2.461040    2.761225
     55          1           0        6.637265   -2.243286    1.823206
     56          1           0        7.623790   -0.798036    1.579561
     57          1           0        8.028243   -2.498270    0.795321
     58          1           0       -1.134168   -2.050927    1.439195
     59          1           0       -0.565594   -2.329065    3.193779
     60          1           0       -1.560758   -0.391621   -0.152578
     61          1           0       -1.967327    4.721041   -1.923876
     62          1           0       -0.499348    4.345877   -1.068381
     63          1           0        7.852238   -1.032601   -3.300969
     64          1           0       -1.488196    4.707558    1.521529
     65          1           0       -3.018490    5.050496    0.393830
     66          1           0       -4.291152    4.012807   -2.458149
     67          1           0       -5.264284    2.817642   -1.547796
     68          1           0       -4.368195    2.021919   -2.970922
     69          1           0       -4.934199   -0.024117   -1.970697
     70          1           0        9.161982   -0.607326   -0.442149
     71          1           0       10.242589   -0.782444   -2.091535
     72          1           0       -3.995776   -2.720950    3.469165
     73          1           0       -6.163249   -1.596123   -1.978921
     74          1           0       -5.224030   -5.584090   -0.475382
     75          1           0       -4.417607   -5.784921   -2.041484
     76          1           0       -3.380633   -5.834401   -0.538406
     77          1           0       -1.198267    8.026414    1.370076
     78          1           0       -7.501529   -3.394813   -3.148359
     79          1           0       -6.204914   -4.565601   -2.975897
 ---------------------------------------------------------------------

 SCF Done:  E(RB3LYP) =  -1947.77902421     A.U. after   16 cycles

 Excitation energies and oscillator strengths:

 Excited State   1:      Singlet-A      1.9724 eV  628.59 nm  f=0.2284  <S**2>=0.000
     154 ->156         0.41100
     155 ->156         0.56621
 This state for optimization and/or second-order correction.
 Total Energy, E(TD-HF/TD-DFT) =  -1947.70653903
 Copying the excited state density for this state as the 1-particle RhoCI density.

 The electronic state is 1-A.
 Alpha  occ. eigenvalues --  -19.20012 -19.16297 -19.13287 -19.11535 -19.10244
 Alpha  occ. eigenvalues --  -19.09538 -14.39412 -14.36909 -14.35729 -14.29805
 Alpha  occ. eigenvalues --  -10.34118 -10.30784 -10.28111 -10.26476 -10.26097
 Alpha  occ. eigenvalues --  -10.24882 -10.24630 -10.24467 -10.24291 -10.23752
 Alpha  occ. eigenvalues --  -10.23592 -10.23240 -10.23232 -10.22868 -10.22549
 Alpha  occ. eigenvalues --  -10.22493 -10.22277 -10.22073 -10.21881 -10.21453
 Alpha  occ. eigenvalues --  -10.21167 -10.21100 -10.20878 -10.20867 -10.20822
 Alpha  occ. eigenvalues --  -10.20726 -10.20680 -10.20428 -10.20232 -10.20092
 Alpha  occ. eigenvalues --  -10.20056 -10.19687 -10.19324  -1.10127  -1.05985
 Alpha  occ. eigenvalues --   -1.02314  -1.02113  -0.98994  -0.98704  -0.98393
 Alpha  occ. eigenvalues --   -0.96786  -0.93756  -0.92954  -0.83658  -0.83044
 Alpha  occ. eigenvalues --   -0.81914  -0.81285  -0.81246  -0.80393  -0.79018
 Alpha  occ. eigenvalues --   -0.77224  -0.77079  -0.75114  -0.73334  -0.72727
 Alpha  occ. eigenvalues --   -0.71396  -0.70493  -0.69941  -0.69494  -0.68895
 Alpha  occ. eigenvalues --   -0.66967  -0.66671  -0.64291  -0.62222  -0.61983
 Alpha  occ. eigenvalues --   -0.60425  -0.59874  -0.58766  -0.57825  -0.57040
 Alpha  occ. eigenvalues --   -0.55991  -0.55654  -0.55218  -0.53803  -0.53348
 Alpha  occ. eigenvalues --   -0.52569  -0.52475  -0.51684  -0.50513  -0.49682
 Alpha  occ. eigenvalues --   -0.49525  -0.48707  -0.48678  -0.47626  -0.47359
 Alpha  occ. eigenvalues --   -0.47228  -0.46636  -0.46256  -0.45807  -0.45795
 Alpha  occ. eigenvalues --   -0.45548  -0.45392  -0.45000  -0.44353  -0.44134
 Alpha  occ. eigenvalues --   -0.43440  -0.43173  -0.42890  -0.42327  -0.42111
 Alpha  occ. eigenvalues --   -0.41973  -0.41816  -0.41560  -0.41384  -0.41086
 Alpha  occ. eigenvalues --   -0.40846  -0.40793  -0.40586  -0.40000  -0.39923
 Alpha  occ. eigenvalues --   -0.39393  -0.39204  -0.39045  -0.38736  -0.38581
 Alpha  occ. eigenvalues --   -0.38125  -0.37658  -0.37249  -0.37031  -0.36842
 Alpha  occ. eigenvalues --   -0.36126  -0.36035  -0.35290  -0.35035  -0.34437
 Alpha  occ. eigenvalues --   -0.34025  -0.33881  -0.33253  -0.32351  -0.32023
 Alpha  occ. eigenvalues --   -0.30194  -0.29973  -0.28980  -0.28264  -0.27661
 Alpha  occ. eigenvalues --   -0.26842  -0.26273  -0.25920  -0.25639  -0.25245
 Alpha  occ. eigenvalues --   -0.24305  -0.24076  -0.23194  -0.21574  -0.20467
 Alpha virt. eigenvalues --   -0.12193  -0.07832  -0.06203  -0.03582  -0.02362
 Alpha virt. eigenvalues --   -0.00457   0.00501   0.00718   0.01899   0.02323
 Alpha virt. eigenvalues --    0.03026   0.03197   0.03952   0.04730   0.04781

 Mulliken charges:
               1
     1  O   -0.206479
     2  O   -0.248667
     3  O   -0.265699
     4  O   -0.159451
     5  O   -0.298212
     6  O   -0.214245
     7  N   -0.106585
     8  N   -0.317331
     9  N   -0.137838
    10  N   -0.250258
    11  C    0.202430
    12  C    0.040636
    13  C    0.008532
    14  C   -0.091542
    15  C   -0.112640
    16  C    0.062343
    17  C   -0.148166
    18  C    0.173562
    19  C   -0.098113
    20  C   -0.020923
    21  C    0.162533
    22  C    0.175123
    23  C   -0.101041
    24  C    0.023424
    25  C    0.041179
    26  C   -0.068170
    27  C   -0.126638
    28  C    0.140978
    29  C    0.034677
    30  C   -0.049843
    31  C   -0.050222
    32  C    0.007307
    33  C   -0.140474
    34  C    0.154977
    35  C    0.083596
    36  C   -0.050041
    37  C    0.172936
    38  C    0.126425
    39  C   -0.183757
    40  C    0.135346
    41  C   -0.114348
    42  C    0.028086
    43  C   -0.033805
    44  H   -0.035265
    45  H   -0.003242
    46  H    0.039194
    47  H    0.115076
    48  H    0.167156
    49  H    0.030882
    50  H    0.036893
    51  H   -0.109744
    52  H    0.015067
    53  H    0.024745
    54  H    0.034314
    55  H    0.009897
    56  H    0.055445
    57  H    0.060254
    58  H    0.118822
    59  H    0.049997
    60  H    0.185222
    61  H    0.048555
    62  H    0.019906
    63  H    0.052258
    64  H    0.077816
    65  H    0.051668
    66  H    0.057475
    67  H    0.044683
    68  H    0.056609
    69  H    0.020849
    70  H    0.011747
    71  H    0.061039
    72  H    0.203844
    73  H    0.003872
    74  H    0.041157
    75  H    0.030811
    76  H    0.030180
    77  H    0.176744
    78  H    0.032339
    79  H    0.004135
 Sum of Mulliken charges =  -0.00000

 Dipole moment (field-independent basis, Debye):
    X=             -0.7180    Y=              3.4976    Z=              3.3241  Tot=              4.8783
 Quadrupole moment (field-independent basis, Debye-Ang):
   XX=           -228.8623   YY=           -249.9496   ZZ=           -266.2073
   XY=            -10.2939   XZ=             37.6406   YZ=              5.9546

 Normal termination of Gaussian 16 at Sun Sep 29 18:45:40 2019.
