 Gaussian 16, Revision A.03,
 Gaussian 16:  ES64L-G16RevA.03 25-Dec-2016

 --------------------------
 # td=(NStates=1) B3LYP/SVP
 --------------------------

 --
 TD
 --
 Symbolic Z-matrix:
 Charge =  0 Multiplicity = 1

                         Standard orientation:
 ---------------------------------------------------------------------
 Center     Atomic      Atomic             Coordinates (Angstroms)
 Number     Number       Type             X           Y           Z
 ---------------------------------------------------------------------
      1          8           0       -3.068066   -1.676748   -2.763880
      2          8           0        2.764402    3.389298    3.017694
      3          8           0        3.419645    1.819269    4.463768
      4          8           0        7.673511   -1.701189   -0.589114
      5          8           0        6.636774   -3.048000   -2.027689
      6          8           0       -2.701835    1.675190    1.303756
      7          7           0       -0.317983   -2.355744    1.045017
      8          7           0       -2.731812   -1.212786   -0.508030
      9          7           0        1.076889   -0.014835   -0.824466
     10          7           0       -1.054170    1.455069   -0.345831
     11          6           0       -3.301972   -1.321591    0.688944
     12          6           0       -2.648080   -2.250106    1.713167
     13          6           0       -1.230228   -1.994334    1.922686
     14          6           0       -0.555809   -1.195270    2.957708
     15          6           0        0.854777   -1.060397    2.503420
     16          6           0        1.011308   -1.893267    1.367213
     17          6           0       -4.738133   -1.865231    0.302677
     18          6           0        1.885288   -0.320751    3.213170
     19          6           0       -4.734291   -2.096429   -0.985851
     20          6           0        2.042521   -1.926246    0.325833
     21          6           0        2.108284   -0.895908   -0.672118
     22          6           0       -3.429714   -1.641525   -1.680104
     23          6           0        3.018136   -0.704617   -1.705106
     24          6           0       -1.170860   -0.385921    3.854025
     25          6           0       -5.866348   -1.916012    1.284756
     26          6           0        2.566782    0.406315   -2.424080
     27          6           0        1.834285    1.135810    2.755615
     28          6           0        1.354954    0.814923   -1.838656
     29          6           0        4.179553   -1.628280   -1.926192
     30          6           0       -5.724510   -2.625759   -1.909094
     31          6           0        5.401121   -1.269979   -1.054673
     32          6           0        3.171182    1.066289   -3.737567
     33          6           0        0.567150    1.918123   -2.158679
     34          6           0        2.771284    2.113223    3.519882
     35          6           0       -0.622948    2.212481   -1.399672
     36          6           0       -6.764801   -3.546498   -1.615582
     37          6           0        6.568674   -2.178946   -1.135286
     38          6           0       -1.424317    3.456981   -1.528923
     39          6           0       -2.274168    3.428019   -0.401597
     40          6           0       -2.129492    2.158526    0.258810
     41          6           0       -1.168129    4.572808   -2.409887
     42          6           0       -3.182460    4.463886    0.143786
     43          6           0       -1.809135    5.691609   -2.588778
     44          1           0       -3.385450   -0.422539    1.250033
     45          1           0       -2.718532   -3.413955    1.454022
     46          1           0       -3.159602   -2.171461    2.633607
     47          1           0       -0.637974   -2.874082    0.187325
     48          1           0       -2.057395   -0.451731   -0.598553
     49          1           0        1.905025   -0.248588    4.300076
     50          1           0        2.831762   -0.939720    3.222737
     51          1           0        2.879683   -2.634434    0.451029
     52          1           0       -1.957787   -0.945115    4.446856
     53          1           0       -0.450983    0.051076    4.674070
     54          1           0       -1.836412    0.517039    3.473935
     55          1           0       -5.697626   -0.993778    2.111551
     56          1           0       -5.752681   -2.849936    2.063220
     57          1           0       -6.779557   -1.827341    0.692877
     58          1           0        1.832506    1.261375    1.707808
     59          1           0        0.864236    1.655953    2.938251
     60          1           0        0.464359    0.175616   -0.219320
     61          1           0        4.532949   -1.547308   -2.973470
     62          1           0        4.101103   -2.647532   -1.783063
     63          1           0       -5.601951   -2.490207   -2.900146
     64          1           0        5.136319   -1.096011    0.148165
     65          1           0        5.675227   -0.316048   -1.293190
     66          1           0        4.025322    0.452867   -4.056708
     67          1           0        3.651596    1.948381   -3.610750
     68          1           0        2.401629    1.105777   -4.500280
     69          1           0        0.809673    2.641889   -2.930934
     70          1           0       -6.739123   -4.103090   -0.748988
     71          1           0       -7.434468   -3.751827   -2.469786
     72          1           0        3.355150    3.835324    3.824791
     73          1           0       -0.397958    4.449085   -3.180508
     74          1           0       -3.964257    4.921034   -0.592948
     75          1           0       -3.621111    3.927208    1.092553
     76          1           0       -2.639752    5.253725    0.497487
     77          1           0        8.515403   -2.009634   -0.676014
     78          1           0       -1.454191    6.434115   -3.370398
     79          1           0       -2.660500    6.007841   -1.907534
 ---------------------------------------------------------------------

 SCF Done:  E(RB3LYP) =  -1947.83597866     A.U. after   23 cycles

 Excitation energies and oscillator strengths:

 Excited State   1:      Singlet-A      0.6571 eV 1886.90 nm  f=0.0003  <S**2>=0.000
     155 ->156         0.70388
 This state for optimization and/or second-order correction.
 Total Energy, E(TD-HF/TD-DFT) =  -1947.81183143
 Copying the excited state density for this state as the 1-particle RhoCI density.

 The electronic state is 1-A.
 Alpha  occ. eigenvalues --  -19.18909 -19.18193 -19.12885 -19.12868 -19.12265
 Alpha  occ. eigenvalues --  -19.10664 -14.36927 -14.36897 -14.31083 -14.30427
 Alpha  occ. eigenvalues --  -10.33743 -10.31502 -10.28062 -10.27259 -10.26047
 Alpha  occ. eigenvalues --  -10.25451 -10.25231 -10.23592 -10.23111 -10.22931
 Alpha  occ. eigenvalues --  -10.22559 -10.22038 -10.21441 -10.21286 -10.21254
 Alpha  occ. eigenvalues --  -10.21241 -10.21172 -10.21159 -10.20948 -10.20847
 Alpha  occ. eigenvalues --  -10.20440 -10.20229 -10.19996 -10.19798 -10.19333
 Alpha  occ. eigenvalues --  -10.19037 -10.18957 -10.18379 -10.18212 -10.18147
 Alpha  occ. eigenvalues --  -10.17475 -10.17355 -10.16120  -1.11331  -1.09281
 Alpha  occ. eigenvalues --   -1.05791  -1.02598  -1.00272  -1.00049  -0.99961
 Alpha  occ. eigenvalues --   -0.96127  -0.93668  -0.92222  -0.84935  -0.82593
 Alpha  occ. eigenvalues --   -0.81685  -0.80834  -0.79967  -0.79933  -0.78476
 Alpha  occ. eigenvalues --   -0.77280  -0.75928  -0.75514  -0.74206  -0.73338
 Alpha  occ. eigenvalues --   -0.72376  -0.71384  -0.70426  -0.68721  -0.68085
 Alpha  occ. eigenvalues --   -0.65984  -0.65496  -0.64837  -0.63572  -0.61053
 Alpha  occ. eigenvalues --   -0.60289  -0.59902  -0.59147  -0.58357  -0.56429
 Alpha  occ. eigenvalues --   -0.56344  -0.55611  -0.54959  -0.53502  -0.52950
 Alpha  occ. eigenvalues --   -0.52804  -0.52031  -0.51358  -0.50446  -0.49621
 Alpha  occ. eigenvalues --   -0.49221  -0.48761  -0.48232  -0.48003  -0.47960
 Alpha  occ. eigenvalues --   -0.47804  -0.47417  -0.46875  -0.46485  -0.45432
 Alpha  occ. eigenvalues --   -0.45143  -0.44812  -0.44602  -0.44420  -0.44151
 Alpha  occ. eigenvalues --   -0.43984  -0.43827  -0.43386  -0.43145  -0.42715
 Alpha  occ. eigenvalues --   -0.42325  -0.41527  -0.41128  -0.41043  -0.40786
 Alpha  occ. eigenvalues --   -0.40729  -0.40640  -0.40573  -0.40194  -0.39873
 Alpha  occ. eigenvalues --   -0.39402  -0.39168  -0.38779  -0.38320  -0.38293
 Alpha  occ. eigenvalues --   -0.38103  -0.37839  -0.37696  -0.37533  -0.37424
 Alpha  occ. eigenvalues --   -0.36810  -0.35824  -0.35391  -0.34719  -0.34587
 Alpha  occ. eigenvalues --   -0.33713  -0.32695  -0.32604  -0.32341  -0.32040
 Alpha  occ. eigenvalues --   -0.30154  -0.29716  -0.28958  -0.28612  -0.28432
 Alpha  occ. eigenvalues --   -0.28199  -0.27954  -0.26017  -0.25627  -0.23832
 Alpha  occ. eigenvalues --   -0.23750  -0.22609  -0.21885  -0.21737  -0.18335
 Alpha virt. eigenvalues --   -0.13430  -0.08687  -0.04080  -0.02970  -0.01241
 Alpha virt. eigenvalues --    0.01325   0.01732   0.02390   0.02803   0.03096
 Alpha virt. eigenvalues --    0.04088   0.04205   0.04437   0.05133   0.05393

 Mulliken charges:
               1
     1  O   -0.122607
     2  O   -0.256961
     3  O   -0.206287
     4  O   -0.134861
     5  O   -0.263125
     6  O   -0.257061
     7  N   -0.075882
     8  N   -0.208002
     9  N    0.100264
    10  N   -0.326776
    11  C    0.095278
    12  C    0.202375
    13  C   -0.119253
    14  C   -0.052627
    15  C   -0.098797
    16  C    0.010097
    17  C   -0.150284
    18  C    0.104334
    19  C   -0.080513
    20  C   -0.053264
    21  C    0.040335
    22  C    0.149970
    23  C   -0.056935
    24  C   -0.024507
    25  C    0.004561
    26  C   -0.164402
    27  C    0.009691
    28  C    0.122501
    29  C    0.177445
    30  C   -0.011488
    31  C   -0.057282
    32  C    0.170646
    33  C   -0.094182
    34  C    0.134927
    35  C    0.080069
    36  C   -0.018036
    37  C    0.178214
    38  C    0.083344
    39  C   -0.202981
    40  C    0.203794
    41  C   -0.018691
    42  C    0.081152
    43  C   -0.061159
    44  H    0.012567
    45  H   -0.010572
    46  H   -0.040286
    47  H    0.130134
    48  H    0.132389
    49  H   -0.001817
    50  H    0.006735
    51  H    0.017112
    52  H   -0.003992
    53  H    0.009360
    54  H    0.052618
    55  H    0.040559
    56  H    0.049603
    57  H    0.044750
    58  H   -0.004444
    59  H    0.047424
    60  H    0.060051
    61  H    0.012920
    62  H   -0.000569
    63  H   -0.032940
    64  H    0.053371
    65  H    0.007913
    66  H    0.001443
    67  H   -0.000124
    68  H    0.041363
    69  H   -0.022998
    70  H    0.003944
    71  H    0.027788
    72  H    0.216201
    73  H   -0.011253
    74  H    0.055054
    75  H    0.046268
    76  H    0.006536
    77  H    0.158211
    78  H    0.039332
    79  H    0.022312
 Sum of Mulliken charges =  -0.00000

 Dipole moment (field-independent basis, Debye):
    X=              4.4961    Y=              3.5765    Z=             -1.6689  Tot=              5.9826
 Quadrupole moment (field-independent basis, Debye-Ang):
   XX=           -230.2245   YY=           -238.8523   ZZ=           -263.8905
   XY=              3.4678   XZ=            -12.2561   YZ=            -17.0781

 Normal termination of Gaussian 16 at Thu Jul 25 13:50:01 2019.
