 Gaussian 16, Revision A.03,
 Gaussian 16:  ES64L-G16RevA.03 25-Dec-2016

 --------------------------
 # td=(NStates=1) B3LYP/SVP
 --------------------------

 --
 TD
 --
 Symbolic Z-matrix:
 Charge =  0 Multiplicity = 1

                         Standard orientation:
 ---------------------------------------------------------------------
 Center     Atomic      Atomic             Coordinates (Angstroms)
 Number     Number       Type             X           Y           Z
 ---------------------------------------------------------------------
      1          8           0       -3.333038   -1.790881   -2.702122
      2          8           0        3.213968    3.534090    2.469597
      3          8           0        3.662540    2.130144    4.237822
      4          8           0        7.660292   -1.844250   -0.490101
      5          8           0        6.651850   -3.485925   -1.405451
      6          8           0       -2.655404    1.882201    1.209361
      7          7           0       -0.357597   -2.263986    1.279092
      8          7           0       -2.725358   -1.208593   -0.488482
      9          7           0        1.162640   -0.145445   -0.737949
     10          7           0       -0.924397    1.449649   -0.364715
     11          6           0       -3.394525   -1.171481    0.718249
     12          6           0       -2.748299   -1.940937    1.928502
     13          6           0       -1.270232   -1.575395    2.098775
     14          6           0       -0.619510   -0.680058    3.001568
     15          6           0        0.673926   -0.637618    2.617765
     16          6           0        0.847418   -1.592948    1.527629
     17          6           0       -4.790691   -1.914055    0.479505
     18          6           0        1.819457    0.171996    3.205010
     19          6           0       -4.772161   -2.316167   -0.843798
     20          6           0        2.017481   -1.819748    0.580051
     21          6           0        2.051923   -1.078432   -0.540084
     22          6           0       -3.567052   -1.743683   -1.418522
     23          6           0        3.037467   -1.000500   -1.717619
     24          6           0       -1.324546    0.329008    3.799544
     25          6           0       -5.923995   -1.949778    1.581549
     26          6           0        2.584517   -0.001995   -2.483186
     27          6           0        1.941688    1.507420    2.572502
     28          6           0        1.396702    0.567346   -1.865089
     29          6           0        4.202962   -1.850388   -1.812993
     30          6           0       -5.905396   -2.832214   -1.697818
     31          6           0        5.449060   -1.407618   -1.079272
     32          6           0        3.075552    0.584099   -3.862566
     33          6           0        0.611301    1.691017   -2.177124
     34          6           0        3.100123    2.425661    3.218879
     35          6           0       -0.438542    2.224485   -1.419644
     36          6           0       -6.875886   -3.524976   -1.202991
     37          6           0        6.596498   -2.374425   -0.991527
     38          6           0       -1.264731    3.375168   -1.668159
     39          6           0       -2.336060    3.228067   -0.761236
     40          6           0       -1.980290    2.178745    0.192698
     41          6           0       -1.004705    4.346299   -2.819365
     42          6           0       -3.368310    4.235623   -0.324280
     43          6           0       -1.860810    5.412860   -3.068785
     44          1           0       -3.717556   -0.051896    1.102920
     45          1           0       -2.834564   -2.939323    1.621688
     46          1           0       -3.174758   -1.850471    2.849055
     47          1           0       -0.450063   -2.894034    0.599569
     48          1           0       -1.816630   -0.653989   -0.641832
     49          1           0        1.630999    0.303298    4.307822
     50          1           0        2.832058   -0.444762    3.093819
     51          1           0        2.696845   -2.682982    0.709200
     52          1           0       -2.279491   -0.009762    4.324380
     53          1           0       -0.769183    0.353988    4.746262
     54          1           0       -1.696069    1.024396    3.254601
     55          1           0       -5.500000   -1.223389    2.375377
     56          1           0       -5.886429   -2.988470    2.060565
     57          1           0       -6.983975   -1.801500    1.104603
     58          1           0        2.016153    1.373289    1.496354
     59          1           0        1.236185    2.346225    2.660786
     60          1           0        0.449881    0.236165   -0.014189
     61          1           0        4.658119   -2.055019   -2.824050
     62          1           0        4.034626   -2.861333   -1.470562
     63          1           0       -5.931994   -2.424545   -2.772704
     64          1           0        5.214252   -1.323918    0.139408
     65          1           0        5.785740   -0.568326   -1.614851
     66          1           0        3.823821   -0.121983   -4.563628
     67          1           0        3.598987    1.605368   -3.616003
     68          1           0        2.327132    0.680732   -4.761390
     69          1           0        1.068326    2.219802   -2.927211
     70          1           0       -6.966821   -3.866978   -0.199250
     71          1           0       -7.576935   -3.866934   -1.829331
     72          1           0        3.800800    4.058119    2.947544
     73          1           0       -0.284751    4.069496   -3.528035
     74          1           0       -4.331179    4.326769   -1.004915
     75          1           0       -3.650795    4.014878    0.715087
     76          1           0       -3.065050    5.252016   -0.493294
     77          1           0        8.501605   -2.468865   -0.666071
     78          1           0       -1.667396    6.109900   -3.876503
     79          1           0       -2.542559    5.707368   -2.282721
 ---------------------------------------------------------------------

 SCF Done:  E(RB3LYP) =  -1947.82862152     A.U. after   22 cycles

 Excitation energies and oscillator strengths:

 Excited State   1:      Singlet-A      0.8587 eV 1443.89 nm  f=0.0041  <S**2>=0.000
     155 ->156         0.70401
 This state for optimization and/or second-order correction.
 Total Energy, E(TD-HF/TD-DFT) =  -1947.79706558
 Copying the excited state density for this state as the 1-particle RhoCI density.

 The electronic state is 1-A.
 Alpha  occ. eigenvalues --  -19.19401 -19.19078 -19.13234 -19.12563 -19.11887
 Alpha  occ. eigenvalues --  -19.06179 -14.37689 -14.36973 -14.34097 -14.30375
 Alpha  occ. eigenvalues --  -10.32300 -10.32130 -10.27558 -10.26755 -10.26021
 Alpha  occ. eigenvalues --  -10.25161 -10.25007 -10.24649 -10.23684 -10.23614
 Alpha  occ. eigenvalues --  -10.22980 -10.22873 -10.22355 -10.22073 -10.22067
 Alpha  occ. eigenvalues --  -10.21701 -10.21631 -10.21406 -10.21189 -10.21100
 Alpha  occ. eigenvalues --  -10.20850 -10.20756 -10.20404 -10.19764 -10.19672
 Alpha  occ. eigenvalues --  -10.19482 -10.18669 -10.18453 -10.18155 -10.17702
 Alpha  occ. eigenvalues --  -10.16633 -10.16080 -10.16056  -1.12464  -1.11221
 Alpha  occ. eigenvalues --   -1.02288  -1.02076  -1.01301  -1.01049  -0.97555
 Alpha  occ. eigenvalues --   -0.96222  -0.92566  -0.90496  -0.84854  -0.83089
 Alpha  occ. eigenvalues --   -0.81330  -0.80262  -0.79802  -0.79435  -0.78113
 Alpha  occ. eigenvalues --   -0.76856  -0.76067  -0.75205  -0.74144  -0.72495
 Alpha  occ. eigenvalues --   -0.71049  -0.70681  -0.69555  -0.69270  -0.67972
 Alpha  occ. eigenvalues --   -0.67102  -0.65312  -0.62800  -0.61586  -0.60925
 Alpha  occ. eigenvalues --   -0.60435  -0.59757  -0.59408  -0.58247  -0.57402
 Alpha  occ. eigenvalues --   -0.57072  -0.55451  -0.54975  -0.53338  -0.52727
 Alpha  occ. eigenvalues --   -0.52465  -0.52024  -0.51241  -0.50708  -0.49800
 Alpha  occ. eigenvalues --   -0.49170  -0.49041  -0.48625  -0.48483  -0.47947
 Alpha  occ. eigenvalues --   -0.47611  -0.47415  -0.46911  -0.46665  -0.46241
 Alpha  occ. eigenvalues --   -0.45878  -0.45536  -0.45248  -0.44265  -0.43955
 Alpha  occ. eigenvalues --   -0.43610  -0.43289  -0.43222  -0.42832  -0.42197
 Alpha  occ. eigenvalues --   -0.42133  -0.41924  -0.41841  -0.41181  -0.40909
 Alpha  occ. eigenvalues --   -0.40644  -0.40311  -0.39993  -0.39772  -0.39334
 Alpha  occ. eigenvalues --   -0.38757  -0.38535  -0.38236  -0.38021  -0.37762
 Alpha  occ. eigenvalues --   -0.37612  -0.37389  -0.36974  -0.36520  -0.36317
 Alpha  occ. eigenvalues --   -0.35838  -0.35487  -0.35108  -0.34450  -0.33574
 Alpha  occ. eigenvalues --   -0.33463  -0.33160  -0.32906  -0.31997  -0.31498
 Alpha  occ. eigenvalues --   -0.30978  -0.29488  -0.29402  -0.28989  -0.28579
 Alpha  occ. eigenvalues --   -0.27999  -0.27568  -0.25525  -0.24550  -0.23674
 Alpha  occ. eigenvalues --   -0.23405  -0.22569  -0.21780  -0.21689  -0.18605
 Alpha virt. eigenvalues --   -0.12999  -0.07641  -0.03223  -0.02344   0.00125
 Alpha virt. eigenvalues --    0.00846   0.01464   0.01665   0.02297   0.02641
 Alpha virt. eigenvalues --    0.03397   0.03792   0.04801   0.04979   0.05684

 Mulliken charges:
               1
     1  O   -0.337851
     2  O   -0.134481
     3  O   -0.207431
     4  O   -0.189766
     5  O   -0.214383
     6  O   -0.251151
     7  N   -0.027081
     8  N   -0.139813
     9  N   -0.049301
    10  N   -0.363252
    11  C   -0.039477
    12  C    0.325637
    13  C   -0.123016
    14  C   -0.109274
    15  C   -0.108677
    16  C   -0.076581
    17  C   -0.184790
    18  C    0.130046
    19  C   -0.025792
    20  C   -0.143353
    21  C    0.105128
    22  C    0.133065
    23  C    0.001479
    24  C    0.206122
    25  C    0.030232
    26  C   -0.058628
    27  C   -0.043664
    28  C    0.047917
    29  C    0.081146
    30  C   -0.024246
    31  C   -0.030416
    32  C   -0.051909
    33  C   -0.030156
    34  C    0.121798
    35  C    0.139067
    36  C    0.035682
    37  C    0.079016
    38  C    0.030559
    39  C   -0.165566
    40  C    0.213908
    41  C    0.006553
    42  C    0.051472
    43  C    0.007587
    44  H    0.074735
    45  H   -0.054912
    46  H   -0.045419
    47  H    0.073765
    48  H    0.168349
    49  H    0.013056
    50  H    0.022865
    51  H    0.011601
    52  H   -0.033713
    53  H   -0.004788
    54  H   -0.020799
    55  H    0.042986
    56  H    0.044824
    57  H    0.067893
    58  H    0.009708
    59  H    0.036989
    60  H    0.230643
    61  H    0.016455
    62  H    0.007701
    63  H    0.038302
    64  H    0.068434
    65  H    0.026724
    66  H    0.046961
    67  H    0.063166
    68  H    0.067001
    69  H   -0.063440
    70  H   -0.004667
    71  H   -0.019166
    72  H    0.142579
    73  H   -0.013444
    74  H    0.032204
    75  H    0.045082
    76  H    0.016785
    77  H    0.232302
    78  H    0.030320
    79  H    0.012556
 Sum of Mulliken charges =  -0.00000

 Dipole moment (field-independent basis, Debye):
    X=              4.8815    Y=              3.2876    Z=             -1.1897  Tot=              6.0043
 Quadrupole moment (field-independent basis, Debye-Ang):
   XX=           -227.2269   YY=           -239.5142   ZZ=           -263.3930
   XY=              2.5791   XZ=            -27.9030   YZ=            -19.1166

 Normal termination of Gaussian 16 at Tue Jul 30 17:59:21 2019.
