 Gaussian 16, Revision A.03,
 Gaussian 16:  ES64L-G16RevA.03 25-Dec-2016

 --------------------------
 # td=(NStates=1) B3LYP/SVP
 --------------------------

 --
 TD
 --
 Symbolic Z-matrix:
 Charge =  0 Multiplicity = 1

                         Standard orientation:
 ---------------------------------------------------------------------
 Center     Atomic      Atomic             Coordinates (Angstroms)
 Number     Number       Type             X           Y           Z
 ---------------------------------------------------------------------
      1          8           0       -3.333841   -1.780704   -2.771225
      2          8           0        2.889099    3.460911    2.497949
      3          8           0        3.602800    2.122446    4.208656
      4          8           0        7.852599   -1.671615   -0.641102
      5          8           0        6.734789   -3.205725   -1.776394
      6          8           0       -2.605764    1.746637    1.302443
      7          7           0       -0.348242   -2.312859    1.285574
      8          7           0       -2.685906   -1.273352   -0.538983
      9          7           0        1.228980   -0.016767   -0.592522
     10          7           0       -0.888498    1.480588   -0.330556
     11          6           0       -3.363332   -1.089056    0.672787
     12          6           0       -2.692635   -2.034540    1.833189
     13          6           0       -1.266547   -1.720546    2.004369
     14          6           0       -0.588672   -0.802750    2.911349
     15          6           0        0.822629   -0.945831    2.628587
     16          6           0        0.904842   -1.815843    1.489048
     17          6           0       -4.718826   -1.692190    0.475926
     18          6           0        1.807813    0.095689    3.157894
     19          6           0       -4.823028   -2.143481   -0.874629
     20          6           0        2.089951   -1.866398    0.690267
     21          6           0        2.110087   -1.066457   -0.463357
     22          6           0       -3.531088   -1.693313   -1.540312
     23          6           0        2.973630   -0.956533   -1.550257
     24          6           0       -1.235324    0.160095    3.976244
     25          6           0       -5.729880   -1.991116    1.510434
     26          6           0        2.493390   -0.017774   -2.416165
     27          6           0        1.849437    1.347624    2.584913
     28          6           0        1.416660    0.594522   -1.775995
     29          6           0        4.250544   -1.701784   -1.721117
     30          6           0       -5.887573   -2.780917   -1.664976
     31          6           0        5.431869   -1.198990   -0.860921
     32          6           0        3.014778    0.556392   -3.713782
     33          6           0        0.576811    1.686231   -2.217231
     34          6           0        2.869613    2.357939    3.218373
     35          6           0       -0.555439    2.117586   -1.461467
     36          6           0       -6.974247   -3.507128   -1.335526
     37          6           0        6.663852   -2.125677   -1.228583
     38          6           0       -1.388136    3.319210   -1.655690
     39          6           0       -2.208205    3.335178   -0.550329
     40          6           0       -2.021780    2.136088    0.280987
     41          6           0       -1.250585    4.182809   -2.815297
     42          6           0       -3.211475    4.402816   -0.131907
     43          6           0       -1.902148    5.341853   -3.160085
     44          1           0       -3.167818    0.052991    1.253237
     45          1           0       -2.818224   -2.957750    1.401896
     46          1           0       -3.371633   -2.135755    2.609190
     47          1           0       -0.438634   -2.833726    0.454339
     48          1           0       -2.015769   -0.605733   -0.848201
     49          1           0        1.708529    0.049238    4.275954
     50          1           0        2.841504   -0.311939    2.949198
     51          1           0        2.786431   -2.707362    0.697692
     52          1           0       -1.966157   -0.499333    4.540329
     53          1           0       -0.537870    0.613430    4.665829
     54          1           0       -1.807132    0.900596    3.410775
     55          1           0       -5.720600   -1.150379    2.260207
     56          1           0       -5.597300   -2.946804    1.936602
     57          1           0       -6.780858   -1.808064    1.102556
     58          1           0        2.116874    1.162078    1.556292
     59          1           0        0.691190    1.786603    2.634757
     60          1           0        0.357394    0.099065   -0.060392
     61          1           0        4.456542   -1.836915   -2.873187
     62          1           0        4.075453   -2.825349   -1.469599
     63          1           0       -5.515402   -2.820828   -2.720971
     64          1           0        5.175592   -1.261285    0.044587
     65          1           0        5.784507   -0.117393   -1.020041
     66          1           0        3.965130    0.037364   -3.873239
     67          1           0        2.960286    1.820653   -3.736541
     68          1           0        2.284287    0.308986   -4.465677
     69          1           0        0.699192    2.055024   -3.266146
     70          1           0       -7.430948   -3.555116   -0.307237
     71          1           0       -7.639960   -3.683541   -2.170708
     72          1           0        3.389466    4.114086    3.203946
     73          1           0       -0.420029    3.947086   -3.309789
     74          1           0       -4.002270    4.561849   -0.838923
     75          1           0       -3.674150    4.399292    0.865795
     76          1           0       -2.494294    5.367107    0.016353
     77          1           0        8.662718   -2.350358   -1.003307
     78          1           0       -1.603527    5.998749   -4.136384
     79          1           0       -2.776236    5.712332   -2.886867
 ---------------------------------------------------------------------

 SCF Done:  E(RB3LYP) =  -1947.82868789     A.U. after   19 cycles

 Excitation energies and oscillator strengths:

 Excited State   1:      Singlet-A      0.8067 eV 1536.92 nm  f=0.0007  <S**2>=0.000
     155 ->156         0.70078
 This state for optimization and/or second-order correction.
 Total Energy, E(TD-HF/TD-DFT) =  -1947.79904194
 Copying the excited state density for this state as the 1-particle RhoCI density.

 The electronic state is 1-A.
 Alpha  occ. eigenvalues --  -19.20061 -19.18530 -19.14553 -19.13914 -19.12662
 Alpha  occ. eigenvalues --  -19.08360 -14.37842 -14.37380 -14.33944 -14.30541
 Alpha  occ. eigenvalues --  -10.33869 -10.32327 -10.29232 -10.26803 -10.26276
 Alpha  occ. eigenvalues --  -10.25445 -10.25208 -10.23472 -10.23440 -10.23166
 Alpha  occ. eigenvalues --  -10.22874 -10.22848 -10.22572 -10.22240 -10.21948
 Alpha  occ. eigenvalues --  -10.21904 -10.21730 -10.21543 -10.21453 -10.20961
 Alpha  occ. eigenvalues --  -10.20892 -10.20802 -10.20635 -10.19956 -10.19558
 Alpha  occ. eigenvalues --  -10.18780 -10.18589 -10.18330 -10.18055 -10.18029
 Alpha  occ. eigenvalues --  -10.17980 -10.17729 -10.17650  -1.09730  -1.08662
 Alpha  occ. eigenvalues --   -1.03357  -1.01727  -0.99740  -0.99149  -0.98886
 Alpha  occ. eigenvalues --   -0.98816  -0.93614  -0.93159  -0.84828  -0.83326
 Alpha  occ. eigenvalues --   -0.81475  -0.81308  -0.80245  -0.79624  -0.78563
 Alpha  occ. eigenvalues --   -0.77095  -0.76064  -0.75605  -0.74215  -0.73463
 Alpha  occ. eigenvalues --   -0.70789  -0.69989  -0.69825  -0.69141  -0.67953
 Alpha  occ. eigenvalues --   -0.66572  -0.65648  -0.64097  -0.62433  -0.60933
 Alpha  occ. eigenvalues --   -0.59715  -0.59512  -0.58608  -0.57998  -0.57721
 Alpha  occ. eigenvalues --   -0.56602  -0.55426  -0.55146  -0.53898  -0.53290
 Alpha  occ. eigenvalues --   -0.52991  -0.51766  -0.51076  -0.50227  -0.49846
 Alpha  occ. eigenvalues --   -0.49445  -0.49224  -0.48874  -0.48439  -0.48257
 Alpha  occ. eigenvalues --   -0.47845  -0.47630  -0.47000  -0.46184  -0.45963
 Alpha  occ. eigenvalues --   -0.45661  -0.45402  -0.45020  -0.44549  -0.44353
 Alpha  occ. eigenvalues --   -0.44276  -0.43561  -0.43212  -0.42828  -0.42318
 Alpha  occ. eigenvalues --   -0.42279  -0.41900  -0.41728  -0.41610  -0.41068
 Alpha  occ. eigenvalues --   -0.40911  -0.40577  -0.40448  -0.40243  -0.39971
 Alpha  occ. eigenvalues --   -0.39688  -0.39387  -0.39255  -0.39125  -0.38348
 Alpha  occ. eigenvalues --   -0.38194  -0.37850  -0.37636  -0.36707  -0.36662
 Alpha  occ. eigenvalues --   -0.36270  -0.35849  -0.35691  -0.35049  -0.33771
 Alpha  occ. eigenvalues --   -0.33293  -0.32487  -0.32091  -0.31943  -0.31864
 Alpha  occ. eigenvalues --   -0.30725  -0.29857  -0.29720  -0.29501  -0.29148
 Alpha  occ. eigenvalues --   -0.27994  -0.27586  -0.26093  -0.24808  -0.24215
 Alpha  occ. eigenvalues --   -0.23559  -0.23301  -0.22228  -0.21819  -0.19062
 Alpha virt. eigenvalues --   -0.13525  -0.09070  -0.04702  -0.02561  -0.02003
 Alpha virt. eigenvalues --   -0.00694   0.00889   0.01630   0.02053   0.02120
 Alpha virt. eigenvalues --    0.02491   0.03114   0.04723   0.05331   0.05455

 Mulliken charges:
               1
     1  O   -0.273761
     2  O   -0.189422
     3  O   -0.267852
     4  O   -0.295732
     5  O   -0.220245
     6  O   -0.225989
     7  N    0.064278
     8  N   -0.131810
     9  N   -0.055673
    10  N   -0.357206
    11  C   -0.106477
    12  C    0.250106
    13  C   -0.090398
    14  C   -0.162504
    15  C   -0.109858
    16  C   -0.063303
    17  C   -0.159775
    18  C    0.086539
    19  C   -0.071718
    20  C   -0.043552
    21  C    0.035184
    22  C    0.129737
    23  C   -0.044739
    24  C    0.099897
    25  C    0.088355
    26  C   -0.120825
    27  C   -0.012928
    28  C    0.078995
    29  C   -0.036605
    30  C   -0.018544
    31  C    0.129835
    32  C    0.084305
    33  C   -0.107514
    34  C    0.152517
    35  C    0.095775
    36  C   -0.038714
    37  C    0.162603
    38  C    0.076843
    39  C   -0.205694
    40  C    0.232610
    41  C    0.069481
    42  C    0.047359
    43  C   -0.022379
    44  H    0.154523
    45  H   -0.071806
    46  H   -0.026826
    47  H    0.099255
    48  H    0.119206
    49  H    0.019330
    50  H   -0.019217
    51  H    0.002942
    52  H    0.014189
    53  H    0.006781
    54  H    0.038753
    55  H    0.016681
    56  H    0.040352
    57  H    0.038052
    58  H    0.021484
    59  H    0.062104
    60  H    0.189414
    61  H    0.041403
    62  H    0.041380
    63  H    0.021939
    64  H   -0.025824
    65  H    0.055551
    66  H    0.025556
    67  H    0.063908
    68  H    0.032535
    69  H    0.006409
    70  H    0.018093
    71  H    0.021432
    72  H    0.223045
    73  H   -0.057115
    74  H    0.038765
    75  H    0.026038
    76  H    0.040823
    77  H    0.242726
    78  H    0.042931
    79  H   -0.016017
 Sum of Mulliken charges =  -0.00000

 Dipole moment (field-independent basis, Debye):
    X=              2.9160    Y=              3.6642    Z=             -1.6389  Tot=              4.9614
 Quadrupole moment (field-independent basis, Debye-Ang):
   XX=           -242.8144   YY=           -239.3203   ZZ=           -266.9058
   XY=             -5.5296   XZ=            -27.5461   YZ=            -15.2439

 Normal termination of Gaussian 16 at Sun Jul 28 18:56:05 2019.
