 Gaussian 16, Revision A.03,
 Gaussian 16:  ES64L-G16RevA.03 25-Dec-2016

 --------------------------
 # td=(NStates=1) B3LYP/SVP
 --------------------------

 --
 TD
 --
 Symbolic Z-matrix:
 Charge =  0 Multiplicity = 1

                         Standard orientation:
 ---------------------------------------------------------------------
 Center     Atomic      Atomic             Coordinates (Angstroms)
 Number     Number       Type             X           Y           Z
 ---------------------------------------------------------------------
      1          8           0        5.338211   -0.085374   -3.205312
      2          8           0       -3.169931   -2.691691    3.400486
      3          8           0       -3.472201   -0.572142    2.799819
      4          8           0       -1.776287    7.357611    1.191614
      5          8           0       -0.244085    6.740564   -0.556252
      6          8           0       -1.811054   -4.104118    0.184882
      7          7           0        2.338524    0.916485    0.666175
      8          7           0        4.319862   -0.600414   -1.250214
      9          7           0       -1.697489    0.715252   -0.349221
     10          7           0       -2.488412   -1.933238   -0.484327
     11          6           0        4.762121   -1.161165   -0.004179
     12          6           0        4.276736   -0.450678    1.266130
     13          6           0        2.908806   -0.145278    1.373469
     14          6           0        1.928903   -0.718820    2.087071
     15          6           0        0.683704    0.018756    1.830856
     16          6           0        0.968725    1.099579    0.924207
     17          6           0        6.225748   -1.379133   -0.125097
     18          6           0       -0.684530   -0.122697    2.542942
     19          6           0        6.588275   -0.886618   -1.327092
     20          6           0        0.250974    2.109112    0.223874
     21          6           0       -1.045708    1.927298   -0.220505
     22          6           0        5.421997   -0.432335   -2.084754
     23          6           0       -1.938512    2.922949   -0.762666
     24          6           0        2.072071   -1.872321    3.103027
     25          6           0        7.116905   -2.053398    0.895222
     26          6           0       -3.108686    2.343501   -1.202557
     27          6           0       -1.244434   -1.538919    2.523751
     28          6           0       -2.863292    0.906927   -0.918409
     29          6           0       -1.530686    4.443911   -0.869413
     30          6           0        7.919374   -0.830536   -2.007079
     31          6           0       -1.840442    5.199476    0.374881
     32          6           0       -4.176754    2.882648   -2.079517
     33          6           0       -3.830298   -0.167922   -1.331659
     34          6           0       -2.692394   -1.490353    2.890784
     35          6           0       -3.610167   -1.481284   -1.082612
     36          6           0        9.124353   -0.737031   -1.338097
     37          6           0       -1.272456    6.475358    0.302418
     38          6           0       -4.470045   -2.648863   -1.569137
     39          6           0       -3.749313   -3.797004   -1.161601
     40          6           0       -2.591159   -3.334287   -0.495964
     41          6           0       -5.901767   -2.480842   -2.001864
     42          6           0       -4.194581   -5.258725   -1.302391
     43          6           0       -6.679274   -3.484042   -2.524529
     44          1           0        4.428567   -2.248934   -0.147091
     45          1           0        4.768490    0.504914    1.246049
     46          1           0        4.619694   -0.808572    2.313854
     47          1           0        2.797676    1.352331   -0.157432
     48          1           0        3.310315   -0.466894   -1.578544
     49          1           0       -0.391744    0.102403    3.546698
     50          1           0       -1.479140    0.441497    2.160442
     51          1           0        0.698685    3.015042    0.060823
     52          1           0        3.146344   -2.172051    3.223353
     53          1           0        1.471532   -1.762606    4.044056
     54          1           0        1.655924   -2.818155    2.750668
     55          1           0        6.443794   -2.750701    1.565582
     56          1           0        7.310544   -1.336844    1.609725
     57          1           0        7.834052   -2.371509    0.472971
     58          1           0       -1.197541   -2.057284    1.717157
     59          1           0       -0.544386   -2.199782    3.226804
     60          1           0       -1.483653   -0.266265   -0.266762
     61          1           0       -2.053379    5.037253   -1.892182
     62          1           0       -0.541145    4.591534   -1.203251
     63          1           0        8.052453   -0.816169   -3.112008
     64          1           0       -1.282780    4.816470    1.097984
     65          1           0       -2.865195    5.037234    0.541289
     66          1           0       -4.035673    4.059674   -2.208196
     67          1           0       -5.275557    2.743458   -1.669202
     68          1           0       -4.249073    2.257378   -3.021292
     69          1           0       -4.776571    0.101164   -1.787559
     70          1           0        9.217198   -0.478701   -0.262897
     71          1           0       10.123273   -0.885644   -1.828981
     72          1           0       -4.088096   -2.418614    3.658976
     73          1           0       -6.318968   -1.532364   -1.839761
     74          1           0       -5.405697   -5.418837   -1.187236
     75          1           0       -4.282945   -5.657437   -2.307714
     76          1           0       -3.669438   -5.928279   -0.422005
     77          1           0       -1.277478    8.026708    1.182751
     78          1           0       -7.739899   -2.993606   -2.953037
     79          1           0       -6.089966   -4.686811   -2.749899
 ---------------------------------------------------------------------

 SCF Done:  E(RB3LYP) =  -1947.75253744     A.U. after   19 cycles

 Excitation energies and oscillator strengths:

 Excited State   1:      Singlet-A      2.0183 eV  614.30 nm  f=0.3177  <S**2>=0.000
     154 ->156         0.22698
     155 ->156         0.66409
     155 <-156        -0.10581
 This state for optimization and/or second-order correction.
 Total Energy, E(TD-HF/TD-DFT) =  -1947.67836593
 Copying the excited state density for this state as the 1-particle RhoCI density.

 The electronic state is 1-A.
 Alpha  occ. eigenvalues --  -19.20830 -19.15698 -19.13600 -19.11870 -19.09524
 Alpha  occ. eigenvalues --  -19.08707 -14.38202 -14.38059 -14.35408 -14.28460
 Alpha  occ. eigenvalues --  -10.34644 -10.30622 -10.27663 -10.26053 -10.25477
 Alpha  occ. eigenvalues --  -10.25448 -10.25317 -10.23619 -10.22882 -10.22748
 Alpha  occ. eigenvalues --  -10.22640 -10.22629 -10.22370 -10.22277 -10.22276
 Alpha  occ. eigenvalues --  -10.22237 -10.22142 -10.21915 -10.21075 -10.20707
 Alpha  occ. eigenvalues --  -10.20685 -10.20682 -10.20575 -10.20552 -10.20464
 Alpha  occ. eigenvalues --  -10.20316 -10.20128 -10.19851 -10.19817 -10.19815
 Alpha  occ. eigenvalues --  -10.19380 -10.18699 -10.18141  -1.13694  -1.07562
 Alpha  occ. eigenvalues --   -1.04361  -1.01214  -0.98197  -0.97911  -0.97167
 Alpha  occ. eigenvalues --   -0.96882  -0.94805  -0.90295  -0.84796  -0.83127
 Alpha  occ. eigenvalues --   -0.82660  -0.81520  -0.81039  -0.80334  -0.78833
 Alpha  occ. eigenvalues --   -0.77427  -0.76667  -0.76083  -0.74080  -0.72993
 Alpha  occ. eigenvalues --   -0.72741  -0.71567  -0.70644  -0.69807  -0.68085
 Alpha  occ. eigenvalues --   -0.67201  -0.66913  -0.64245  -0.63714  -0.61091
 Alpha  occ. eigenvalues --   -0.60443  -0.58609  -0.58342  -0.57845  -0.57169
 Alpha  occ. eigenvalues --   -0.56419  -0.56105  -0.55572  -0.54673  -0.54290
 Alpha  occ. eigenvalues --   -0.53620  -0.52316  -0.51804  -0.51114  -0.50888
 Alpha  occ. eigenvalues --   -0.50329  -0.50063  -0.49644  -0.48583  -0.48353
 Alpha  occ. eigenvalues --   -0.47889  -0.47151  -0.46790  -0.46615  -0.46342
 Alpha  occ. eigenvalues --   -0.45606  -0.45331  -0.44533  -0.43940  -0.43776
 Alpha  occ. eigenvalues --   -0.43371  -0.43111  -0.42520  -0.42389  -0.42193
 Alpha  occ. eigenvalues --   -0.42093  -0.41909  -0.41520  -0.41456  -0.41326
 Alpha  occ. eigenvalues --   -0.41023  -0.40688  -0.40545  -0.40086  -0.40030
 Alpha  occ. eigenvalues --   -0.39863  -0.39554  -0.39325  -0.39162  -0.38735
 Alpha  occ. eigenvalues --   -0.38188  -0.37854  -0.37776  -0.37310  -0.36756
 Alpha  occ. eigenvalues --   -0.36338  -0.36077  -0.35139  -0.34947  -0.34551
 Alpha  occ. eigenvalues --   -0.32872  -0.32712  -0.32308  -0.31740  -0.30986
 Alpha  occ. eigenvalues --   -0.30693  -0.30528  -0.28693  -0.28354  -0.27369
 Alpha  occ. eigenvalues --   -0.27170  -0.26806  -0.26176  -0.25722  -0.24738
 Alpha  occ. eigenvalues --   -0.24212  -0.23566  -0.23056  -0.22073  -0.19542
 Alpha virt. eigenvalues --   -0.11392  -0.07087  -0.05272  -0.04233  -0.00829
 Alpha virt. eigenvalues --    0.00634   0.00938   0.01377   0.02349   0.02604
 Alpha virt. eigenvalues --    0.02800   0.03623   0.04145   0.04490   0.05298

 Mulliken charges:
               1
     1  O   -0.171261
     2  O   -0.215734
     3  O   -0.238968
     4  O   -0.061485
     5  O   -0.355004
     6  O   -0.288839
     7  N   -0.135430
     8  N   -0.259279
     9  N    0.022750
    10  N   -0.304850
    11  C    0.132858
    12  C    0.209734
    13  C   -0.082263
    14  C   -0.096917
    15  C   -0.142685
    16  C    0.092031
    17  C   -0.245627
    18  C    0.131945
    19  C   -0.066599
    20  C   -0.043912
    21  C    0.103854
    22  C    0.124463
    23  C   -0.081401
    24  C    0.090346
    25  C    0.300898
    26  C   -0.104290
    27  C    0.074968
    28  C    0.018299
    29  C   -0.029651
    30  C   -0.015201
    31  C    0.223337
    32  C    0.028136
    33  C   -0.075342
    34  C    0.146131
    35  C    0.085683
    36  C   -0.082161
    37  C    0.135577
    38  C    0.010274
    39  C   -0.093064
    40  C    0.154196
    41  C    0.002027
    42  C   -0.005317
    43  C   -0.114651
    44  H    0.029313
    45  H   -0.023467
    46  H    0.021818
    47  H    0.116460
    48  H    0.154566
    49  H    0.006051
    50  H    0.008409
    51  H   -0.033438
    52  H   -0.001777
    53  H    0.030001
    54  H    0.031221
    55  H    0.017277
    56  H    0.000415
    57  H   -0.062719
    58  H   -0.021933
    59  H    0.022513
    60  H    0.133956
    61  H    0.036970
    62  H    0.020582
    63  H    0.031408
    64  H   -0.004796
    65  H    0.026934
    66  H    0.046585
    67  H    0.037275
    68  H    0.050455
    69  H   -0.039620
    70  H    0.022748
    71  H    0.037188
    72  H    0.175360
    73  H   -0.013708
    74  H    0.022152
    75  H    0.027746
    76  H    0.075549
    77  H    0.108884
    78  H    0.059107
    79  H    0.072933
 Sum of Mulliken charges =  -0.00000

 Dipole moment (field-independent basis, Debye):
    X=              0.6259    Y=              4.2775    Z=              3.3994  Tot=              5.4995
 Quadrupole moment (field-independent basis, Debye-Ang):
   XX=           -223.0608   YY=           -252.9765   ZZ=           -259.6523
   XY=            -21.0857   XZ=             33.8004   YZ=              9.5923

 Normal termination of Gaussian 16 at Thu Oct 10 18:37:33 2019.
