 Gaussian 16, Revision A.03,
 Gaussian 16:  ES64L-G16RevA.03 25-Dec-2016

 --------------------------
 # td=(NStates=1) B3LYP/SVP
 --------------------------

 --
 TD
 --
 Symbolic Z-matrix:
 Charge =  0 Multiplicity = 1

                         Standard orientation:
 ---------------------------------------------------------------------
 Center     Atomic      Atomic             Coordinates (Angstroms)
 Number     Number       Type             X           Y           Z
 ---------------------------------------------------------------------
      1          8           0       -3.411056   -1.453346   -2.777409
      2          8           0        3.146852    3.397181    2.872486
      3          8           0        3.409017    1.851947    4.573339
      4          8           0        7.669695   -1.540724   -0.608504
      5          8           0        6.727406   -3.262753   -1.690953
      6          8           0       -2.588224    1.707209    1.430507
      7          7           0       -0.327604   -2.347381    1.076125
      8          7           0       -2.657809   -1.414166   -0.566777
      9          7           0        1.227423    0.066259   -0.749927
     10          7           0       -0.838181    1.479922   -0.292143
     11          6           0       -3.345037   -1.396795    0.695510
     12          6           0       -2.685318   -2.251524    1.858959
     13          6           0       -1.270206   -1.953676    1.967755
     14          6           0       -0.511333   -1.048482    2.842514
     15          6           0        0.806963   -1.005413    2.504134
     16          6           0        0.925365   -1.784676    1.393186
     17          6           0       -4.669579   -1.910878    0.387021
     18          6           0        1.870577   -0.022959    3.054878
     19          6           0       -4.789598   -2.203126   -0.957115
     20          6           0        2.005971   -1.864039    0.431883
     21          6           0        2.153217   -0.992276   -0.610586
     22          6           0       -3.507567   -1.757649   -1.563770
     23          6           0        3.015976   -0.829008   -1.798669
     24          6           0       -1.266078   -0.284400    3.888287
     25          6           0       -5.726473   -2.019704    1.387516
     26          6           0        2.581185    0.286238   -2.552793
     27          6           0        1.892845    1.370800    2.591564
     28          6           0        1.491801    0.790869   -1.942332
     29          6           0        4.292763   -1.713062   -1.988933
     30          6           0       -5.887180   -2.544087   -1.798965
     31          6           0        5.369750   -1.381115   -1.053972
     32          6           0        3.111501    0.781498   -3.900104
     33          6           0        0.561283    1.930796   -2.086794
     34          6           0        2.929486    2.193317    3.444074
     35          6           0       -0.585311    2.190622   -1.379369
     36          6           0       -7.059962   -3.248725   -1.446201
     37          6           0        6.629960   -2.114669   -1.153366
     38          6           0       -1.390772    3.406052   -1.456204
     39          6           0       -2.341557    3.384945   -0.460132
     40          6           0       -2.005644    2.099503    0.323451
     41          6           0       -1.235775    4.459137   -2.436186
     42          6           0       -3.340142    4.428834   -0.063118
     43          6           0       -1.957716    5.545860   -2.679184
     44          1           0       -3.402255   -0.431791    1.120094
     45          1           0       -2.771939   -3.208421    1.383817
     46          1           0       -3.159951   -1.980315    2.873931
     47          1           0       -0.599649   -2.951424    0.244225
     48          1           0       -2.017960   -0.641536   -0.903139
     49          1           0        1.827570   -0.061063    4.177765
     50          1           0        2.810314   -0.607930    2.750470
     51          1           0        2.810256   -2.543532    0.459977
     52          1           0       -2.181061   -0.948083    4.234917
     53          1           0       -0.793883    0.170862    4.871663
     54          1           0       -1.692331    0.534712    3.393336
     55          1           0       -5.558156   -1.379732    2.291141
     56          1           0       -5.777870   -2.992618    1.860137
     57          1           0       -6.647718   -1.676218    0.869564
     58          1           0        2.021680    1.563631    1.554693
     59          1           0        0.833552    1.690463    2.776013
     60          1           0        0.330625    0.506977   -0.233922
     61          1           0        4.640612   -1.641149   -3.088614
     62          1           0        3.866853   -2.811595   -1.823431
     63          1           0       -5.677209   -2.224615   -2.828810
     64          1           0        5.170630   -1.542843   -0.052847
     65          1           0        5.778524   -0.354800   -1.075678
     66          1           0        3.715719   -0.040400   -4.481907
     67          1           0        3.873062    1.623611   -3.784922
     68          1           0        2.281693    1.035982   -4.523962
     69          1           0        0.856423    2.409471   -2.960518
     70          1           0       -7.064230   -3.762704   -0.476590
     71          1           0       -7.887560   -3.261877   -2.131160
     72          1           0        3.975792    3.836184    3.508916
     73          1           0       -0.377130    4.425814   -3.093300
     74          1           0       -4.258011    4.760769   -0.722734
     75          1           0       -3.852470    3.955339    0.920444
     76          1           0       -2.718288    5.326724    0.171996
     77          1           0        8.403832   -2.108349   -1.004409
     78          1           0       -1.745451    6.204416   -3.572532
     79          1           0       -2.850711    5.784250   -2.028930
 ---------------------------------------------------------------------

 SCF Done:  E(RB3LYP) =  -1947.89610414     A.U. after   21 cycles

 Excitation energies and oscillator strengths:

 Excited State   1:      Singlet-A      0.7084 eV 1750.17 nm  f=0.0011  <S**2>=0.000
     155 ->156         0.70432
 This state for optimization and/or second-order correction.
 Total Energy, E(TD-HF/TD-DFT) =  -1947.87007048
 Copying the excited state density for this state as the 1-particle RhoCI density.

 The electronic state is 1-A.
 Alpha  occ. eigenvalues --  -19.21025 -19.19950 -19.12740 -19.12707 -19.12471
 Alpha  occ. eigenvalues --  -19.08288 -14.37450 -14.35355 -14.34302 -14.32031
 Alpha  occ. eigenvalues --  -10.33196 -10.32666 -10.29814 -10.26562 -10.26053
 Alpha  occ. eigenvalues --  -10.25589 -10.24683 -10.24617 -10.24049 -10.23164
 Alpha  occ. eigenvalues --  -10.23098 -10.22795 -10.22024 -10.21988 -10.21848
 Alpha  occ. eigenvalues --  -10.21686 -10.21473 -10.20960 -10.20612 -10.20590
 Alpha  occ. eigenvalues --  -10.20464 -10.20436 -10.20343 -10.20191 -10.20175
 Alpha  occ. eigenvalues --  -10.19361 -10.19223 -10.19097 -10.18888 -10.18267
 Alpha  occ. eigenvalues --  -10.17603 -10.17093 -10.16620  -1.12590  -1.07461
 Alpha  occ. eigenvalues --   -1.00153  -0.99103  -0.98931  -0.97624  -0.97600
 Alpha  occ. eigenvalues --   -0.96513  -0.93603  -0.92927  -0.84052  -0.82994
 Alpha  occ. eigenvalues --   -0.82134  -0.81367  -0.80764  -0.79944  -0.78720
 Alpha  occ. eigenvalues --   -0.77115  -0.76403  -0.75675  -0.74553  -0.73540
 Alpha  occ. eigenvalues --   -0.70951  -0.70501  -0.70014  -0.69750  -0.67426
 Alpha  occ. eigenvalues --   -0.66562  -0.65369  -0.63986  -0.61604  -0.60730
 Alpha  occ. eigenvalues --   -0.60196  -0.59001  -0.58155  -0.57472  -0.56390
 Alpha  occ. eigenvalues --   -0.55467  -0.55350  -0.54789  -0.53707  -0.53204
 Alpha  occ. eigenvalues --   -0.52391  -0.52039  -0.51523  -0.50935  -0.50463
 Alpha  occ. eigenvalues --   -0.50281  -0.49430  -0.48560  -0.48140  -0.47888
 Alpha  occ. eigenvalues --   -0.47462  -0.47172  -0.46496  -0.46353  -0.46027
 Alpha  occ. eigenvalues --   -0.45457  -0.44742  -0.44555  -0.44346  -0.44153
 Alpha  occ. eigenvalues --   -0.43895  -0.43402  -0.43124  -0.42849  -0.42183
 Alpha  occ. eigenvalues --   -0.41985  -0.41782  -0.41478  -0.41420  -0.40927
 Alpha  occ. eigenvalues --   -0.40584  -0.40341  -0.40176  -0.39982  -0.39719
 Alpha  occ. eigenvalues --   -0.39488  -0.39008  -0.38892  -0.38719  -0.38117
 Alpha  occ. eigenvalues --   -0.37816  -0.37530  -0.37259  -0.36967  -0.36763
 Alpha  occ. eigenvalues --   -0.36542  -0.35704  -0.34722  -0.34670  -0.34434
 Alpha  occ. eigenvalues --   -0.34189  -0.33670  -0.32487  -0.32124  -0.31836
 Alpha  occ. eigenvalues --   -0.31378  -0.30109  -0.29878  -0.29768  -0.28354
 Alpha  occ. eigenvalues --   -0.27874  -0.26684  -0.25908  -0.25412  -0.24215
 Alpha  occ. eigenvalues --   -0.24053  -0.23599  -0.22289  -0.21935  -0.18643
 Alpha virt. eigenvalues --   -0.13415  -0.08374  -0.04756  -0.01501  -0.01302
 Alpha virt. eigenvalues --   -0.01113   0.00470   0.00980   0.01864   0.02472
 Alpha virt. eigenvalues --    0.03317   0.03731   0.04132   0.04471   0.05172

 Mulliken charges:
               1
     1  O   -0.287874
     2  O   -0.241406
     3  O   -0.283993
     4  O   -0.151641
     5  O   -0.298891
     6  O   -0.288950
     7  N   -0.091249
     8  N   -0.173586
     9  N   -0.224902
    10  N   -0.336443
    11  C    0.103154
    12  C    0.260485
    13  C   -0.134138
    14  C   -0.124530
    15  C   -0.066674
    16  C    0.055168
    17  C   -0.191272
    18  C    0.072229
    19  C   -0.032791
    20  C   -0.095620
    21  C    0.125995
    22  C    0.114207
    23  C   -0.081252
    24  C    0.046778
    25  C    0.096781
    26  C   -0.091123
    27  C    0.047715
    28  C    0.041195
    29  C    0.070989
    30  C   -0.054884
    31  C    0.113419
    32  C    0.052292
    33  C   -0.046044
    34  C    0.180377
    35  C    0.181733
    36  C   -0.022272
    37  C    0.079416
    38  C    0.080554
    39  C   -0.163714
    40  C    0.235998
    41  C   -0.022952
    42  C   -0.020041
    43  C   -0.050606
    44  H    0.019106
    45  H   -0.046521
    46  H    0.014378
    47  H    0.134952
    48  H    0.154322
    49  H    0.030855
    50  H   -0.007172
    51  H   -0.022752
    52  H    0.005347
    53  H    0.020411
    54  H    0.017422
    55  H    0.007401
    56  H    0.028413
    57  H    0.045451
    58  H    0.010028
    59  H    0.056591
    60  H    0.226794
    61  H    0.029266
    62  H    0.054420
    63  H    0.017963
    64  H    0.015006
    65  H    0.025928
    66  H    0.035662
    67  H    0.047453
    68  H    0.039446
    69  H   -0.056306
    70  H    0.025702
    71  H    0.024873
    72  H    0.243684
    73  H   -0.019378
    74  H    0.070240
    75  H    0.055894
    76  H    0.052387
    77  H    0.205537
    78  H    0.038450
    79  H    0.017113
 Sum of Mulliken charges =  -0.00000

 Dipole moment (field-independent basis, Debye):
    X=              4.0968    Y=              3.1697    Z=             -2.2505  Tot=              5.6476
 Quadrupole moment (field-independent basis, Debye-Ang):
   XX=           -229.9446   YY=           -242.8151   ZZ=           -270.9388
   XY=              8.8613   XZ=            -24.7050   YZ=            -16.1071

 Normal termination of Gaussian 16 at Thu Jul 25 03:36:46 2019.
