 Gaussian 16, Revision A.03,
 Gaussian 16:  ES64L-G16RevA.03 25-Dec-2016

 --------------------------
 # td=(NStates=1) B3LYP/SVP
 --------------------------

 --
 TD
 --
 Symbolic Z-matrix:
 Charge =  0 Multiplicity = 1

                         Standard orientation:
 ---------------------------------------------------------------------
 Center     Atomic      Atomic             Coordinates (Angstroms)
 Number     Number       Type             X           Y           Z
 ---------------------------------------------------------------------
      1          8           0       -3.284648   -1.178725   -2.919644
      2          8           0        3.044305    3.147503    3.167726
      3          8           0        3.423390    1.540282    4.691963
      4          8           0        7.836282   -1.497986   -0.780196
      5          8           0        6.856741   -2.815912   -2.253289
      6          8           0       -2.794332    1.648076    1.307164
      7          7           0       -0.193209   -2.525605    1.048368
      8          7           0       -2.668749   -1.286035   -0.570467
      9          7           0        1.211947    0.033759   -0.648177
     10          7           0       -1.000163    1.473664   -0.144546
     11          6           0       -3.388144   -1.411478    0.710429
     12          6           0       -2.675847   -2.456308    1.523932
     13          6           0       -1.219848   -2.119872    1.829441
     14          6           0       -0.556000   -1.363128    2.849483
     15          6           0        0.685063   -1.131892    2.482893
     16          6           0        0.978927   -2.000224    1.284168
     17          6           0       -4.796487   -1.984770    0.258909
     18          6           0        1.759755   -0.409544    3.106253
     19          6           0       -4.850674   -1.972766   -1.136729
     20          6           0        2.210005   -1.965606    0.291894
     21          6           0        2.093034   -0.954030   -0.614011
     22          6           0       -3.496869   -1.389398   -1.664483
     23          6           0        3.105906   -0.699940   -1.697628
     24          6           0       -1.274412   -0.616692    3.885243
     25          6           0       -5.958741   -2.219969    1.094233
     26          6           0        2.553345    0.389581   -2.502827
     27          6           0        1.888033    1.092349    2.868049
     28          6           0        1.487775    0.833773   -1.795407
     29          6           0        4.326577   -1.491579   -1.916504
     30          6           0       -5.941867   -2.447986   -2.060549
     31          6           0        5.569667   -1.072651   -1.162933
     32          6           0        3.222613    0.997529   -3.675492
     33          6           0        0.607298    2.004470   -1.957328
     34          6           0        2.886853    1.963511    3.695228
     35          6           0       -0.526654    2.322628   -1.200172
     36          6           0       -6.955424   -3.202709   -1.703296
     37          6           0        6.836855   -1.886076   -1.513877
     38          6           0       -1.413404    3.523265   -1.257500
     39          6           0       -2.363036    3.410486   -0.295065
     40          6           0       -2.071299    2.127930    0.415512
     41          6           0       -1.375765    4.669576   -2.252506
     42          6           0       -3.440135    4.253970    0.135541
     43          6           0       -2.003728    5.806284   -2.279965
     44          1           0       -3.199878   -0.439281    1.315040
     45          1           0       -2.873513   -3.556306    1.022422
     46          1           0       -3.147543   -2.393528    2.456480
     47          1           0       -0.483592   -2.861673    0.152582
     48          1           0       -2.074464   -0.432594   -0.733043
     49          1           0        1.955971   -0.488838    4.199400
     50          1           0        2.865536   -0.815427    2.831832
     51          1           0        2.753010   -2.733656    0.439564
     52          1           0       -2.115768   -1.111444    4.383388
     53          1           0       -0.537626   -0.319550    4.614805
     54          1           0       -1.812692    0.315238    3.658027
     55          1           0       -6.014166   -1.694666    2.038988
     56          1           0       -6.287242   -3.185070    1.373869
     57          1           0       -6.784743   -1.754614    0.446599
     58          1           0        2.075241    1.154550    1.759409
     59          1           0        1.039117    1.655463    2.879904
     60          1           0        0.514065    0.352447    0.083250
     61          1           0        4.524329   -1.460102   -3.087670
     62          1           0        4.047828   -2.594542   -1.811509
     63          1           0       -5.843916   -2.008434   -3.048943
     64          1           0        5.547392   -1.214709   -0.133668
     65          1           0        5.715691    0.006203   -1.457237
     66          1           0        4.118179    0.282402   -4.049692
     67          1           0        3.564267    1.921170   -3.351691
     68          1           0        2.487709    1.255289   -4.325633
     69          1           0        0.980347    2.737986   -2.661792
     70          1           0       -6.978933   -3.658836   -0.907813
     71          1           0       -7.638818   -3.290902   -2.514738
     72          1           0        3.697439    3.775451    3.779966
     73          1           0       -0.900345    4.417138   -3.144721
     74          1           0       -4.119470    4.714546   -0.519178
     75          1           0       -3.816139    3.537962    1.116998
     76          1           0       -2.962106    5.210311    0.473350
     77          1           0        8.608744   -2.165231   -0.783046
     78          1           0       -1.776323    6.549779   -3.061862
     79          1           0       -2.650499    6.084681   -1.409271
 ---------------------------------------------------------------------

 SCF Done:  E(RB3LYP) =  -1947.80147358     A.U. after   22 cycles

 Excitation energies and oscillator strengths:

 Excited State   1:      Singlet-A      0.6844 eV 1811.68 nm  f=0.0045  <S**2>=0.000
     155 ->156         0.70577
 This state for optimization and/or second-order correction.
 Total Energy, E(TD-HF/TD-DFT) =  -1947.77632373
 Copying the excited state density for this state as the 1-particle RhoCI density.

 The electronic state is 1-A.
 Alpha  occ. eigenvalues --  -19.20616 -19.19596 -19.13771 -19.11709 -19.11432
 Alpha  occ. eigenvalues --  -19.08017 -14.37836 -14.37151 -14.33163 -14.30380
 Alpha  occ. eigenvalues --  -10.33346 -10.31553 -10.27490 -10.27037 -10.26879
 Alpha  occ. eigenvalues --  -10.26232 -10.25677 -10.24670 -10.23367 -10.23177
 Alpha  occ. eigenvalues --  -10.22946 -10.22656 -10.22353 -10.21755 -10.21630
 Alpha  occ. eigenvalues --  -10.20985 -10.20959 -10.20750 -10.20129 -10.19819
 Alpha  occ. eigenvalues --  -10.19775 -10.19716 -10.19542 -10.19481 -10.18810
 Alpha  occ. eigenvalues --  -10.18713 -10.18638 -10.18618 -10.18376 -10.16557
 Alpha  occ. eigenvalues --  -10.16287 -10.16124 -10.16004  -1.12801  -1.09643
 Alpha  occ. eigenvalues --   -1.03065  -1.01464  -1.00297  -1.00095  -0.98743
 Alpha  occ. eigenvalues --   -0.96933  -0.91356  -0.90550  -0.84761  -0.83117
 Alpha  occ. eigenvalues --   -0.81142  -0.80844  -0.80308  -0.79565  -0.78159
 Alpha  occ. eigenvalues --   -0.77077  -0.76258  -0.75805  -0.75045  -0.74356
 Alpha  occ. eigenvalues --   -0.71512  -0.70576  -0.70171  -0.69291  -0.67946
 Alpha  occ. eigenvalues --   -0.66680  -0.66098  -0.63023  -0.62286  -0.61008
 Alpha  occ. eigenvalues --   -0.59877  -0.59305  -0.58861  -0.57750  -0.56993
 Alpha  occ. eigenvalues --   -0.56239  -0.55862  -0.54732  -0.54045  -0.52958
 Alpha  occ. eigenvalues --   -0.52573  -0.52066  -0.51895  -0.50954  -0.50038
 Alpha  occ. eigenvalues --   -0.49682  -0.49549  -0.48736  -0.48599  -0.48213
 Alpha  occ. eigenvalues --   -0.47496  -0.47395  -0.47069  -0.46208  -0.45815
 Alpha  occ. eigenvalues --   -0.45093  -0.44860  -0.44718  -0.44322  -0.44064
 Alpha  occ. eigenvalues --   -0.43921  -0.43744  -0.43458  -0.43244  -0.42662
 Alpha  occ. eigenvalues --   -0.42047  -0.41872  -0.41546  -0.41191  -0.41084
 Alpha  occ. eigenvalues --   -0.40640  -0.40447  -0.40264  -0.39963  -0.39647
 Alpha  occ. eigenvalues --   -0.39013  -0.38946  -0.38625  -0.38066  -0.37857
 Alpha  occ. eigenvalues --   -0.37336  -0.37167  -0.36780  -0.36253  -0.36072
 Alpha  occ. eigenvalues --   -0.35405  -0.35272  -0.34800  -0.34602  -0.34398
 Alpha  occ. eigenvalues --   -0.33880  -0.33394  -0.32215  -0.32153  -0.31437
 Alpha  occ. eigenvalues --   -0.30004  -0.29567  -0.29423  -0.29324  -0.28394
 Alpha  occ. eigenvalues --   -0.27291  -0.26785  -0.25639  -0.24539  -0.23783
 Alpha  occ. eigenvalues --   -0.23638  -0.22967  -0.22227  -0.22122  -0.18566
 Alpha virt. eigenvalues --   -0.13514  -0.07415  -0.03898  -0.00851  -0.00255
 Alpha virt. eigenvalues --    0.00789   0.01515   0.01902   0.02118   0.02283
 Alpha virt. eigenvalues --    0.02586   0.03399   0.04172   0.05159   0.05894

 Mulliken charges:
               1
     1  O   -0.311492
     2  O   -0.206353
     3  O   -0.229014
     4  O   -0.172302
     5  O   -0.199259
     6  O   -0.246931
     7  N    0.070255
     8  N   -0.218598
     9  N   -0.099753
    10  N   -0.348522
    11  C    0.028735
    12  C    0.198715
    13  C   -0.158727
    14  C   -0.060269
    15  C   -0.051700
    16  C   -0.141342
    17  C   -0.128930
    18  C    0.023799
    19  C   -0.080951
    20  C   -0.011318
    21  C    0.213411
    22  C    0.168507
    23  C   -0.087193
    24  C    0.071143
    25  C    0.062660
    26  C   -0.160327
    27  C   -0.002282
    28  C    0.133362
    29  C    0.006639
    30  C   -0.020822
    31  C    0.042247
    32  C    0.186157
    33  C   -0.093472
    34  C    0.124992
    35  C    0.132651
    36  C    0.133047
    37  C    0.095927
    38  C    0.056907
    39  C   -0.182115
    40  C    0.180910
    41  C    0.011043
    42  C    0.037675
    43  C   -0.029916
    44  H    0.084099
    45  H    0.013362
    46  H   -0.033933
    47  H    0.103264
    48  H    0.157237
    49  H    0.012507
    50  H   -0.005812
    51  H   -0.067059
    52  H   -0.013063
    53  H   -0.006429
    54  H    0.027182
    55  H    0.004584
    56  H    0.023823
    57  H    0.046202
    58  H    0.005519
    59  H    0.001596
    60  H    0.206737
    61  H    0.039365
    62  H    0.040804
    63  H    0.004118
    64  H    0.025032
    65  H    0.045643
    66  H    0.052816
    67  H    0.010817
    68  H   -0.000375
    69  H   -0.027307
    70  H   -0.088372
    71  H    0.013302
    72  H    0.235718
    73  H   -0.027847
    74  H    0.017646
    75  H    0.079903
    76  H    0.031877
    77  H    0.215413
    78  H    0.029844
    79  H    0.004591
 Sum of Mulliken charges =  -0.00000

 Dipole moment (field-independent basis, Debye):
    X=              6.0834    Y=              2.6592    Z=             -1.0066  Tot=              6.7151
 Quadrupole moment (field-independent basis, Debye-Ang):
   XX=           -219.0846   YY=           -232.1113   ZZ=           -274.2584
   XY=              5.3328   XZ=            -19.3555   YZ=            -11.3022

 Normal termination of Gaussian 16 at Sat Jul 27 21:51:52 2019.
