 Gaussian 16, Revision A.03,
 Gaussian 16:  ES64L-G16RevA.03 25-Dec-2016

 --------------------------
 # td=(NStates=1) B3LYP/SVP
 --------------------------

 --
 TD
 --
 Symbolic Z-matrix:
 Charge =  0 Multiplicity = 1

                         Standard orientation:
 ---------------------------------------------------------------------
 Center     Atomic      Atomic             Coordinates (Angstroms)
 Number     Number       Type             X           Y           Z
 ---------------------------------------------------------------------
      1          8           0        5.294455   -0.052417   -3.335685
      2          8           0       -3.127314   -2.913811    3.239775
      3          8           0       -3.388015   -0.692104    3.227815
      4          8           0       -0.974638    7.038570    1.611355
      5          8           0       -0.693807    7.214732   -0.644950
      6          8           0       -1.804730   -3.806562    0.069415
      7          7           0        2.386883    0.919343    0.680191
      8          7           0        4.336872   -0.624279   -1.316900
      9          7           0       -1.765107    0.696547   -0.394379
     10          7           0       -2.683241   -1.761154   -0.531249
     11          6           0        4.696470   -1.237554    0.003801
     12          6           0        4.342255   -0.386293    1.229294
     13          6           0        2.964595   -0.120630    1.499510
     14          6           0        1.901388   -0.716903    2.118698
     15          6           0        0.707091   -0.031291    1.866696
     16          6           0        0.923053    0.989412    0.863596
     17          6           0        6.225236   -1.515528   -0.195817
     18          6           0       -0.711302   -0.243998    2.624587
     19          6           0        6.570745   -0.930633   -1.375705
     20          6           0        0.153236    2.003497    0.269639
     21          6           0       -1.114883    1.793779   -0.204082
     22          6           0        5.374217   -0.519680   -2.207644
     23          6           0       -1.933180    2.944767   -0.867616
     24          6           0        1.997615   -1.823890    3.173857
     25          6           0        6.948579   -2.286305    0.825616
     26          6           0       -3.028665    2.339849   -1.388302
     27          6           0       -1.299772   -1.619935    2.634690
     28          6           0       -3.028628    1.016189   -0.997997
     29          6           0       -1.431749    4.407438   -0.928720
     30          6           0        7.878568   -0.897073   -1.982899
     31          6           0       -1.396583    5.018474    0.481004
     32          6           0       -4.259654    3.026294   -2.050428
     33          6           0       -3.927361    0.024501   -1.328227
     34          6           0       -2.707039   -1.610318    3.048997
     35          6           0       -3.724478   -1.397906   -1.211837
     36          6           0        8.988659   -0.899624   -1.443474
     37          6           0       -1.033996    6.572443    0.338085
     38          6           0       -4.579107   -2.517925   -1.546698
     39          6           0       -3.890879   -3.639752   -1.143525
     40          6           0       -2.687586   -3.222589   -0.403318
     41          6           0       -5.823410   -2.393279   -2.234770
     42          6           0       -4.177612   -5.107888   -1.344734
     43          6           0       -6.715215   -3.398079   -2.511704
     44          1           0        4.012140   -2.159961    0.238061
     45          1           0        4.842828    0.595436    1.212565
     46          1           0        4.950203   -0.820267    1.957613
     47          1           0        3.102779    1.654015    0.034572
     48          1           0        3.421417   -0.902037   -1.934151
     49          1           0       -0.549658    0.223336    3.635960
     50          1           0       -1.313997    0.479115    2.083079
     51          1           0        0.608512    2.971251   -0.189676
     52          1           0        3.127094   -1.777576    3.629288
     53          1           0        1.273184   -1.643214    3.920805
     54          1           0        2.000158   -2.782820    2.702182
     55          1           0        6.292854   -2.889795    1.378641
     56          1           0        7.235849   -1.687484    1.813909
     57          1           0        7.869970   -2.694728    0.408791
     58          1           0       -1.294650   -2.149353    1.604776
     59          1           0       -0.690173   -2.440921    3.243241
     60          1           0       -1.587194   -0.246022   -0.376459
     61          1           0       -2.167916    4.848420   -1.660452
     62          1           0       -0.518102    4.544093   -1.419551
     63          1           0        7.611414   -0.923588   -3.080879
     64          1           0       -0.494989    4.683541    1.121544
     65          1           0       -2.427676    4.847305    0.980359
     66          1           0       -3.897146    4.104356   -2.443017
     67          1           0       -5.258700    3.191752   -1.398224
     68          1           0       -4.612210    2.362071   -2.994140
     69          1           0       -4.669013    0.311561   -1.875508
     70          1           0        9.105164   -0.930638   -0.344640
     71          1           0        9.997353   -0.837056   -1.924435
     72          1           0       -4.246194   -2.973184    3.402627
     73          1           0       -5.775277   -1.251034   -2.268874
     74          1           0       -5.353816   -5.590129   -1.035403
     75          1           0       -4.052555   -5.450977   -2.357193
     76          1           0       -3.507630   -5.880641   -0.645755
     77          1           0       -0.654513    8.051636    1.673603
     78          1           0       -7.750998   -3.182301   -2.905859
     79          1           0       -6.207621   -4.292053   -2.256270
 ---------------------------------------------------------------------

 SCF Done:  E(RB3LYP) =  -1947.78240729     A.U. after   17 cycles

 Excitation energies and oscillator strengths:

 Excited State   1:      Singlet-A      1.7607 eV  704.16 nm  f=0.3925  <S**2>=0.000
     155 ->156         0.70835
     155 <-156        -0.13600
 This state for optimization and/or second-order correction.
 Total Energy, E(TD-HF/TD-DFT) =  -1947.71770106
 Copying the excited state density for this state as the 1-particle RhoCI density.

 The electronic state is 1-A.
 Alpha  occ. eigenvalues --  -19.19113 -19.15735 -19.13800 -19.12094 -19.11091
 Alpha  occ. eigenvalues --  -19.10728 -14.37813 -14.35639 -14.35562 -14.28264
 Alpha  occ. eigenvalues --  -10.33086 -10.29377 -10.28543 -10.26911 -10.25820
 Alpha  occ. eigenvalues --  -10.23776 -10.23690 -10.23266 -10.23220 -10.23070
 Alpha  occ. eigenvalues --  -10.22703 -10.22589 -10.22237 -10.21929 -10.21694
 Alpha  occ. eigenvalues --  -10.21647 -10.21146 -10.20977 -10.20837 -10.20784
 Alpha  occ. eigenvalues --  -10.20695 -10.20580 -10.20294 -10.20180 -10.20103
 Alpha  occ. eigenvalues --  -10.19525 -10.19375 -10.19334 -10.19029 -10.18721
 Alpha  occ. eigenvalues --  -10.18542 -10.18352 -10.18054  -1.08547  -1.07589
 Alpha  occ. eigenvalues --   -1.05755  -1.02467  -1.00229  -0.99300  -0.97837
 Alpha  occ. eigenvalues --   -0.93857  -0.93107  -0.92574  -0.82849  -0.82702
 Alpha  occ. eigenvalues --   -0.81903  -0.81039  -0.80307  -0.79143  -0.77974
 Alpha  occ. eigenvalues --   -0.77283  -0.76312  -0.75796  -0.74280  -0.71998
 Alpha  occ. eigenvalues --   -0.71197  -0.69918  -0.69243  -0.68199  -0.67905
 Alpha  occ. eigenvalues --   -0.65929  -0.65369  -0.63962  -0.61425  -0.60453
 Alpha  occ. eigenvalues --   -0.60309  -0.58874  -0.57547  -0.57181  -0.56806
 Alpha  occ. eigenvalues --   -0.55430  -0.54690  -0.53836  -0.53484  -0.52436
 Alpha  occ. eigenvalues --   -0.52166  -0.51135  -0.50397  -0.49984  -0.48701
 Alpha  occ. eigenvalues --   -0.48201  -0.48140  -0.48057  -0.47571  -0.47085
 Alpha  occ. eigenvalues --   -0.46935  -0.46640  -0.46418  -0.45857  -0.45565
 Alpha  occ. eigenvalues --   -0.45143  -0.44640  -0.44356  -0.44340  -0.43847
 Alpha  occ. eigenvalues --   -0.43512  -0.43325  -0.43229  -0.42912  -0.42722
 Alpha  occ. eigenvalues --   -0.42177  -0.41646  -0.40852  -0.40734  -0.40380
 Alpha  occ. eigenvalues --   -0.40214  -0.40082  -0.39739  -0.39350  -0.39263
 Alpha  occ. eigenvalues --   -0.39147  -0.38768  -0.38666  -0.38288  -0.38095
 Alpha  occ. eigenvalues --   -0.37597  -0.37555  -0.37276  -0.37085  -0.36823
 Alpha  occ. eigenvalues --   -0.36677  -0.36086  -0.35599  -0.34407  -0.33991
 Alpha  occ. eigenvalues --   -0.33196  -0.33154  -0.32832  -0.32064  -0.31517
 Alpha  occ. eigenvalues --   -0.31341  -0.30463  -0.29345  -0.28913  -0.28613
 Alpha  occ. eigenvalues --   -0.26815  -0.26733  -0.26214  -0.26108  -0.24893
 Alpha  occ. eigenvalues --   -0.24276  -0.24076  -0.23821  -0.22222  -0.18044
 Alpha virt. eigenvalues --   -0.11303  -0.06889  -0.05861  -0.00763  -0.00562
 Alpha virt. eigenvalues --    0.00597   0.01537   0.02075   0.02241   0.02354
 Alpha virt. eigenvalues --    0.02660   0.03378   0.03409   0.04584   0.04697

 Mulliken charges:
               1
     1  O   -0.222941
     2  O   -0.306866
     3  O   -0.165589
     4  O   -0.242758
     5  O   -0.227830
     6  O   -0.120684
     7  N   -0.275100
     8  N   -0.242255
     9  N    0.018851
    10  N   -0.315197
    11  C    0.047504
    12  C    0.217582
    13  C    0.021283
    14  C   -0.149721
    15  C   -0.139182
    16  C    0.123924
    17  C   -0.130570
    18  C    0.143745
    19  C   -0.130840
    20  C   -0.129996
    21  C    0.059258
    22  C    0.161271
    23  C   -0.121067
    24  C    0.102368
    25  C    0.114445
    26  C   -0.075701
    27  C   -0.062067
    28  C    0.085490
    29  C    0.142296
    30  C    0.056074
    31  C   -0.073831
    32  C   -0.036072
    33  C    0.016277
    34  C    0.133331
    35  C    0.055098
    36  C   -0.055272
    37  C    0.164310
    38  C    0.032054
    39  C   -0.169079
    40  C    0.148878
    41  C   -0.030201
    42  C   -0.043266
    43  C    0.033108
    44  H    0.028996
    45  H   -0.022908
    46  H   -0.053985
    47  H    0.187075
    48  H    0.171594
    49  H    0.019898
    50  H   -0.004603
    51  H    0.017654
    52  H    0.006529
    53  H    0.028204
    54  H    0.020497
    55  H   -0.002339
    56  H    0.036799
    57  H    0.044503
    58  H    0.085217
    59  H    0.043759
    60  H    0.094023
    61  H    0.009925
    62  H    0.007922
    63  H    0.017599
    64  H    0.074518
    65  H    0.070728
    66  H    0.043488
    67  H    0.067071
    68  H    0.049454
    69  H   -0.122461
    70  H    0.009518
    71  H    0.029982
    72  H    0.231811
    73  H   -0.013446
    74  H    0.049923
    75  H    0.039439
    76  H    0.055243
    77  H    0.223289
    78  H    0.051421
    79  H   -0.007404
 Sum of Mulliken charges =  -0.00000

 Dipole moment (field-independent basis, Debye):
    X=              0.3842    Y=              0.5959    Z=              2.6343  Tot=              2.7281
 Quadrupole moment (field-independent basis, Debye-Ang):
   XX=           -220.7627   YY=           -239.6615   ZZ=           -266.3932
   XY=             -6.3754   XZ=             33.1916   YZ=             10.6188

 Normal termination of Gaussian 16 at Mon Sep 16 06:58:58 2019.
