 Gaussian 16, Revision A.03,
 Gaussian 16:  ES64L-G16RevA.03 25-Dec-2016

 --------------------------
 # td=(NStates=1) B3LYP/SVP
 --------------------------

 --
 TD
 --
 Symbolic Z-matrix:
 Charge =  0 Multiplicity = 1

                         Standard orientation:
 ---------------------------------------------------------------------
 Center     Atomic      Atomic             Coordinates (Angstroms)
 Number     Number       Type             X           Y           Z
 ---------------------------------------------------------------------
      1          8           0        5.413649   -0.299517   -3.319894
      2          8           0       -3.133697   -2.883554    3.165060
      3          8           0       -3.316547   -0.659575    3.063956
      4          8           0       -1.492712    7.211185    1.360107
      5          8           0       -0.323732    6.833791   -0.604216
      6          8           0       -1.869832   -3.923543   -0.000693
      7          7           0        2.349104    0.927246    0.632022
      8          7           0        4.413429   -0.517403   -1.195523
      9          7           0       -1.956645    0.609687   -0.420935
     10          7           0       -2.663199   -1.846767   -0.578479
     11          6           0        4.851724   -1.198890    0.131533
     12          6           0        4.434503   -0.327828    1.339906
     13          6           0        2.966585    0.022939    1.382605
     14          6           0        2.021744   -0.527822    2.199307
     15          6           0        0.689740   -0.054973    1.831666
     16          6           0        0.979384    0.900109    0.798082
     17          6           0        6.405005   -1.417464   -0.173452
     18          6           0       -0.585948   -0.136895    2.588319
     19          6           0        6.647019   -0.989668   -1.408364
     20          6           0        0.104664    1.870417    0.264217
     21          6           0       -1.199325    1.835138   -0.332414
     22          6           0        5.465979   -0.504930   -2.110369
     23          6           0       -1.884600    2.934743   -0.843865
     24          6           0        2.053386   -1.636586    3.212834
     25          6           0        7.160044   -2.057731    0.979776
     26          6           0       -3.121481    2.361103   -1.302564
     27          6           0       -1.155878   -1.614925    2.507234
     28          6           0       -3.148973    0.922078   -1.102245
     29          6           0       -1.394092    4.318376   -0.938048
     30          6           0        7.987141   -0.919420   -2.089491
     31          6           0       -1.500023    5.057691    0.431233
     32          6           0       -4.195690    3.086280   -1.916340
     33          6           0       -3.998647   -0.070495   -1.361568
     34          6           0       -2.598213   -1.616678    2.911848
     35          6           0       -3.857333   -1.415527   -1.066765
     36          6           0        9.234265   -1.147709   -1.665377
     37          6           0       -1.030111    6.519549    0.289245
     38          6           0       -4.775808   -2.594061   -1.381472
     39          6           0       -4.134568   -3.694375   -0.973178
     40          6           0       -2.848556   -3.308557   -0.435549
     41          6           0       -6.002140   -2.360115   -2.078372
     42          6           0       -4.435008   -5.114091   -1.100006
     43          6           0       -6.817462   -3.305003   -2.591541
     44          1           0        4.587853   -2.234839    0.333492
     45          1           0        4.946817    0.666023    1.221380
     46          1           0        4.749100   -0.843301    2.204771
     47          1           0        2.863604    1.486410    0.011549
     48          1           0        3.449124   -0.469870   -1.637888
     49          1           0       -0.380135    0.139232    3.631139
     50          1           0       -1.615035    0.440647    2.108497
     51          1           0        0.777940    2.817474   -0.006135
     52          1           0        3.176766   -2.253946    3.349423
     53          1           0        1.739686   -1.116955    4.233201
     54          1           0        1.497358   -2.408571    2.754086
     55          1           0        6.659479   -2.752752    1.759646
     56          1           0        7.360807   -1.118711    1.672674
     57          1           0        8.398820   -2.360122    0.619127
     58          1           0       -1.226254   -2.018388    1.358630
     59          1           0       -0.513476   -2.479907    3.120378
     60          1           0       -1.523383   -0.263668   -0.005854
     61          1           0       -1.934664    4.964853   -1.651992
     62          1           0       -0.337067    4.307237   -1.297930
     63          1           0        7.596900   -0.533627   -3.209609
     64          1           0       -0.959684    4.831286    1.475836
     65          1           0       -2.603972    5.148429    0.879265
     66          1           0       -4.074416    4.257961   -2.535853
     67          1           0       -4.841863    3.123811   -0.953567
     68          1           0       -4.613949    2.467021   -2.620727
     69          1           0       -4.998505    0.367983   -1.653712
     70          1           0        9.294983   -0.871593   -0.547644
     71          1           0       10.150681   -1.358437   -2.221826
     72          1           0       -3.985946   -2.547489    3.425313
     73          1           0       -6.141209   -1.347610   -2.629121
     74          1           0       -5.573739   -5.430317   -0.785517
     75          1           0       -4.207446   -5.384885   -2.280194
     76          1           0       -3.769123   -5.722028   -0.364087
     77          1           0       -0.916318    8.032399    1.298783
     78          1           0       -7.679522   -2.651800   -3.058903
     79          1           0       -6.474038   -4.209689   -2.351733
 ---------------------------------------------------------------------

 SCF Done:  E(RB3LYP) =  -1947.74430420     A.U. after   18 cycles

 Excitation energies and oscillator strengths:

 Excited State   1:      Singlet-A      1.9213 eV  645.32 nm  f=0.4237  <S**2>=0.000
     155 ->156         0.69881
     155 ->157         0.10474
     155 <-156        -0.13255
 This state for optimization and/or second-order correction.
 Total Energy, E(TD-HF/TD-DFT) =  -1947.67369872
 Copying the excited state density for this state as the 1-particle RhoCI density.

 The electronic state is 1-A.
 Alpha  occ. eigenvalues --  -19.20050 -19.15888 -19.14239 -19.12153 -19.10979
 Alpha  occ. eigenvalues --  -19.10580 -14.38594 -14.36513 -14.35755 -14.28432
 Alpha  occ. eigenvalues --  -10.32594 -10.30803 -10.28978 -10.26314 -10.26233
 Alpha  occ. eigenvalues --  -10.24737 -10.24157 -10.23835 -10.23357 -10.23237
 Alpha  occ. eigenvalues --  -10.23087 -10.22542 -10.22487 -10.22450 -10.22382
 Alpha  occ. eigenvalues --  -10.21687 -10.21543 -10.21469 -10.21427 -10.21293
 Alpha  occ. eigenvalues --  -10.21088 -10.21040 -10.20956 -10.20681 -10.20434
 Alpha  occ. eigenvalues --  -10.20407 -10.20160 -10.20053 -10.19671 -10.19648
 Alpha  occ. eigenvalues --  -10.19498 -10.18855 -10.18382  -1.11050  -1.08438
 Alpha  occ. eigenvalues --   -1.03556  -1.02593  -1.00499  -1.00345  -0.99029
 Alpha  occ. eigenvalues --   -0.95759  -0.92529  -0.90282  -0.82679  -0.81969
 Alpha  occ. eigenvalues --   -0.81911  -0.81366  -0.81036  -0.80010  -0.77711
 Alpha  occ. eigenvalues --   -0.77210  -0.76110  -0.75621  -0.74642  -0.72840
 Alpha  occ. eigenvalues --   -0.71507  -0.70475  -0.69490  -0.68797  -0.68112
 Alpha  occ. eigenvalues --   -0.67066  -0.65890  -0.63900  -0.60465  -0.59649
 Alpha  occ. eigenvalues --   -0.58863  -0.58469  -0.57852  -0.56977  -0.56211
 Alpha  occ. eigenvalues --   -0.55838  -0.55200  -0.54461  -0.53543  -0.52423
 Alpha  occ. eigenvalues --   -0.51780  -0.50642  -0.50226  -0.50107  -0.49946
 Alpha  occ. eigenvalues --   -0.49181  -0.48738  -0.48185  -0.48053  -0.47467
 Alpha  occ. eigenvalues --   -0.47283  -0.46789  -0.46740  -0.46440  -0.45814
 Alpha  occ. eigenvalues --   -0.45384  -0.45054  -0.44660  -0.43892  -0.43703
 Alpha  occ. eigenvalues --   -0.43544  -0.43465  -0.42827  -0.42488  -0.42297
 Alpha  occ. eigenvalues --   -0.41889  -0.41678  -0.41433  -0.41072  -0.40636
 Alpha  occ. eigenvalues --   -0.40467  -0.40261  -0.40070  -0.39802  -0.39448
 Alpha  occ. eigenvalues --   -0.39278  -0.39175  -0.38776  -0.38589  -0.38335
 Alpha  occ. eigenvalues --   -0.37904  -0.37159  -0.36703  -0.36259  -0.35975
 Alpha  occ. eigenvalues --   -0.35720  -0.35561  -0.35223  -0.34646  -0.34356
 Alpha  occ. eigenvalues --   -0.34254  -0.33697  -0.32849  -0.31572  -0.31393
 Alpha  occ. eigenvalues --   -0.30862  -0.30456  -0.29084  -0.28314  -0.27640
 Alpha  occ. eigenvalues --   -0.27497  -0.26703  -0.26410  -0.24835  -0.24380
 Alpha  occ. eigenvalues --   -0.24204  -0.23771  -0.23332  -0.22521  -0.18234
 Alpha virt. eigenvalues --   -0.10862  -0.06986  -0.06121  -0.00730  -0.00358
 Alpha virt. eigenvalues --    0.00253   0.00888   0.01263   0.01858   0.02611
 Alpha virt. eigenvalues --    0.03157   0.03643   0.04172   0.04384   0.04739

 Mulliken charges:
               1
     1  O   -0.232643
     2  O   -0.196961
     3  O   -0.241121
     4  O   -0.195008
     5  O   -0.193689
     6  O   -0.208937
     7  N    0.005333
     8  N   -0.268654
     9  N   -0.166698
    10  N   -0.340043
    11  C    0.067075
    12  C    0.269181
    13  C   -0.128472
    14  C   -0.146913
    15  C   -0.057488
    16  C    0.026777
    17  C   -0.123279
    18  C    0.004848
    19  C   -0.088895
    20  C   -0.116862
    21  C    0.077144
    22  C    0.181171
    23  C   -0.027125
    24  C    0.015769
    25  C   -0.045583
    26  C   -0.101264
    27  C   -0.154382
    28  C    0.164526
    29  C    0.164230
    30  C   -0.002956
    31  C   -0.123912
    32  C   -0.001133
    33  C   -0.144685
    34  C    0.166168
    35  C    0.090541
    36  C   -0.070493
    37  C    0.131734
    38  C    0.125790
    39  C   -0.178069
    40  C    0.170756
    41  C   -0.129262
    42  C   -0.031537
    43  C    0.055480
    44  H    0.029683
    45  H   -0.006484
    46  H   -0.023268
    47  H    0.093804
    48  H    0.155019
    49  H    0.020936
    50  H    0.088622
    51  H    0.008748
    52  H    0.005448
    53  H    0.056335
    54  H    0.052706
    55  H    0.058121
    56  H    0.052784
    57  H    0.074729
    58  H    0.131961
    59  H    0.069611
    60  H    0.183080
    61  H    0.007111
    62  H    0.031041
    63  H    0.051899
    64  H    0.065124
    65  H    0.048400
    66  H    0.061572
    67  H    0.058166
    68  H    0.014021
    69  H   -0.018582
    70  H    0.034682
    71  H    0.042657
    72  H    0.149125
    73  H    0.020415
    74  H    0.052920
    75  H    0.066841
    76  H    0.057262
    77  H    0.186422
    78  H    0.063179
    79  H   -0.044547
 Sum of Mulliken charges =  -0.00000

 Dipole moment (field-independent basis, Debye):
    X=              0.5778    Y=              3.5683    Z=              3.5094  Tot=              5.0381
 Quadrupole moment (field-independent basis, Debye-Ang):
   XX=           -227.9531   YY=           -244.1839   ZZ=           -264.7625
   XY=             -7.4582   XZ=             38.5654   YZ=              3.8828

 Normal termination of Gaussian 16 at Sat Oct  5 05:35:38 2019.
