 Gaussian 16, Revision A.03,
 Gaussian 16:  ES64L-G16RevA.03 25-Dec-2016

 --------------------------
 # td=(NStates=1) B3LYP/SVP
 --------------------------

 --
 TD
 --
 Symbolic Z-matrix:
 Charge =  0 Multiplicity = 1

                         Standard orientation:
 ---------------------------------------------------------------------
 Center     Atomic      Atomic             Coordinates (Angstroms)
 Number     Number       Type             X           Y           Z
 ---------------------------------------------------------------------
      1          8           0       -3.194144   -0.787737   -3.018179
      2          8           0        3.276056    2.650930    3.553685
      3          8           0        3.705948    0.824448    4.523791
      4          8           0        7.537143   -1.541718   -0.855681
      5          8           0        6.510224   -2.276666   -2.827040
      6          8           0       -2.674169    1.380129    1.768798
      7          7           0       -0.089176   -2.679524    0.745306
      8          7           0       -2.461782   -1.171820   -0.791068
      9          7           0        1.131977    0.180945   -0.876375
     10          7           0       -1.072485    1.435328    0.124997
     11          6           0       -3.164520   -1.472571    0.443906
     12          6           0       -2.526155   -2.570960    1.401358
     13          6           0       -1.113196   -2.322819    1.630440
     14          6           0       -0.416049   -1.754975    2.706117
     15          6           0        0.852061   -1.526195    2.359058
     16          6           0        1.006900   -2.068397    1.072737
     17          6           0       -4.571122   -1.861251    0.020095
     18          6           0        2.007051   -0.788916    3.102261
     19          6           0       -4.672730   -1.848446   -1.348610
     20          6           0        2.130240   -1.838217    0.066640
     21          6           0        2.024282   -0.807018   -0.822460
     22          6           0       -3.400468   -1.201574   -1.826078
     23          6           0        2.926547   -0.228696   -1.938136
     24          6           0       -1.120749   -1.195705    3.917098
     25          6           0       -5.527809   -2.473287    0.973982
     26          6           0        2.454356    0.963401   -2.390874
     27          6           0        2.011658    0.736352    2.836278
     28          6           0        1.275041    1.255790   -1.747365
     29          6           0        4.202165   -0.970272   -2.346064
     30          6           0       -5.736910   -2.171410   -2.277786
     31          6           0        5.291089   -0.919202   -1.280756
     32          6           0        2.874517    1.729353   -3.713333
     33          6           0        0.298378    2.285694   -1.730445
     34          6           0        3.063293    1.365982    3.705042
     35          6           0       -0.764835    2.418390   -0.859859
     36          6           0       -6.781016   -2.983238   -2.160494
     37          6           0        6.472922   -1.627430   -1.812486
     38          6           0       -1.758256    3.585056   -0.804685
     39          6           0       -2.418616    3.234775    0.280990
     40          6           0       -2.103630    1.920701    0.828754
     41          6           0       -1.495231    4.665254   -1.585474
     42          6           0       -3.580159    4.028546    0.928868
     43          6           0       -2.134418    5.917802   -1.431670
     44          1           0       -3.200687   -0.520922    1.177165
     45          1           0       -2.564754   -3.573065    0.669164
     46          1           0       -3.126475   -2.679871    2.163761
     47          1           0       -0.214235   -2.834172   -0.238347
     48          1           0       -1.778806   -0.226632   -0.591416
     49          1           0        1.831039   -1.015139    4.185487
     50          1           0        3.006088   -1.328154    2.896451
     51          1           0        2.960792   -2.552000   -0.059768
     52          1           0       -2.045257   -1.711076    4.228986
     53          1           0       -0.209748   -1.104314    4.494914
     54          1           0       -1.529313   -0.383265    3.305394
     55          1           0       -5.526235   -2.048349    2.058055
     56          1           0       -5.153424   -3.458234    1.083748
     57          1           0       -6.622235   -2.242890    0.663180
     58          1           0        2.156077    0.968366    1.760822
     59          1           0        0.981533    1.141942    3.162488
     60          1           0        0.486232    0.056113   -0.268247
     61          1           0        4.510679   -0.462016   -3.340820
     62          1           0        3.949756   -1.925293   -2.597685
     63          1           0       -5.487885   -1.680499   -3.187870
     64          1           0        4.803295   -1.233624   -0.132387
     65          1           0        5.524097    0.147241   -1.231146
     66          1           0        3.330301    0.872216   -4.491222
     67          1           0        3.779956    2.596306   -3.512981
     68          1           0        1.926694    2.200803   -4.137602
     69          1           0        0.661268    3.078004   -2.390395
     70          1           0       -7.043708   -3.355706   -1.106651
     71          1           0       -7.547531   -3.164858   -2.876152
     72          1           0        3.822950    3.046830    4.303074
     73          1           0       -1.011459    4.455259   -2.550129
     74          1           0       -4.040655    4.490993    0.268923
     75          1           0       -4.401154    3.492102    1.626185
     76          1           0       -3.240026    4.871506    1.824104
     77          1           0        8.248528   -1.999957   -1.237904
     78          1           0       -1.905849    6.773951   -2.182266
     79          1           0       -2.805828    6.099719   -0.504223
 ---------------------------------------------------------------------

 SCF Done:  E(RB3LYP) =  -1947.75823008     A.U. after   22 cycles

 Excitation energies and oscillator strengths:

 Excited State   1:      Singlet-A      0.5685 eV 2180.89 nm  f=0.0004  <S**2>=0.000
     155 ->156         0.70472
 This state for optimization and/or second-order correction.
 Total Energy, E(TD-HF/TD-DFT) =  -1947.73733802
 Copying the excited state density for this state as the 1-particle RhoCI density.

 The electronic state is 1-A.
 Alpha  occ. eigenvalues --  -19.18492 -19.16991 -19.15866 -19.11761 -19.10941
 Alpha  occ. eigenvalues --  -19.07566 -14.37470 -14.36712 -14.33196 -14.31281
 Alpha  occ. eigenvalues --  -10.34372 -10.30581 -10.28277 -10.27346 -10.26536
 Alpha  occ. eigenvalues --  -10.26513 -10.26511 -10.25623 -10.24415 -10.24301
 Alpha  occ. eigenvalues --  -10.24106 -10.23367 -10.23030 -10.22327 -10.21950
 Alpha  occ. eigenvalues --  -10.21878 -10.21830 -10.21154 -10.20983 -10.20970
 Alpha  occ. eigenvalues --  -10.20835 -10.20147 -10.20047 -10.20041 -10.19879
 Alpha  occ. eigenvalues --  -10.19691 -10.19363 -10.18300 -10.17922 -10.17846
 Alpha  occ. eigenvalues --  -10.17011 -10.16499 -10.16269  -1.10818  -1.09908
 Alpha  occ. eigenvalues --   -1.03091  -1.02717  -1.02677  -0.99919  -0.99022
 Alpha  occ. eigenvalues --   -0.97167  -0.93693  -0.90150  -0.85433  -0.83875
 Alpha  occ. eigenvalues --   -0.82918  -0.81051  -0.80149  -0.79989  -0.79212
 Alpha  occ. eigenvalues --   -0.77272  -0.76569  -0.75669  -0.74571  -0.72756
 Alpha  occ. eigenvalues --   -0.70918  -0.70543  -0.70485  -0.69338  -0.68288
 Alpha  occ. eigenvalues --   -0.67140  -0.65870  -0.63694  -0.62350  -0.61125
 Alpha  occ. eigenvalues --   -0.60642  -0.59778  -0.59159  -0.59087  -0.57413
 Alpha  occ. eigenvalues --   -0.56648  -0.55825  -0.54264  -0.53191  -0.52945
 Alpha  occ. eigenvalues --   -0.52523  -0.51907  -0.50856  -0.50361  -0.50313
 Alpha  occ. eigenvalues --   -0.49901  -0.49601  -0.48884  -0.48456  -0.48134
 Alpha  occ. eigenvalues --   -0.47730  -0.47237  -0.46877  -0.46655  -0.45968
 Alpha  occ. eigenvalues --   -0.45656  -0.45224  -0.44940  -0.44266  -0.43843
 Alpha  occ. eigenvalues --   -0.43745  -0.43219  -0.42972  -0.42691  -0.42355
 Alpha  occ. eigenvalues --   -0.41821  -0.41748  -0.41588  -0.41289  -0.40995
 Alpha  occ. eigenvalues --   -0.40652  -0.40481  -0.40202  -0.39805  -0.39235
 Alpha  occ. eigenvalues --   -0.39094  -0.38890  -0.38835  -0.38592  -0.38381
 Alpha  occ. eigenvalues --   -0.38094  -0.37465  -0.37095  -0.36373  -0.36241
 Alpha  occ. eigenvalues --   -0.35979  -0.35468  -0.35454  -0.34957  -0.34148
 Alpha  occ. eigenvalues --   -0.33902  -0.33452  -0.33152  -0.32310  -0.31617
 Alpha  occ. eigenvalues --   -0.31258  -0.31062  -0.30147  -0.29457  -0.29064
 Alpha  occ. eigenvalues --   -0.27742  -0.27123  -0.26117  -0.24726  -0.24334
 Alpha  occ. eigenvalues --   -0.23759  -0.22896  -0.22728  -0.22152  -0.18659
 Alpha virt. eigenvalues --   -0.14067  -0.08509  -0.03808  -0.03592  -0.03151
 Alpha virt. eigenvalues --    0.01086   0.01484   0.01864   0.02078   0.02318
 Alpha virt. eigenvalues --    0.03359   0.04605   0.04797   0.04929   0.05451

 Mulliken charges:
               1
     1  O   -0.304025
     2  O   -0.186339
     3  O   -0.203814
     4  O   -0.214909
     5  O   -0.196019
     6  O   -0.212693
     7  N    0.031962
     8  N   -0.268640
     9  N    0.033756
    10  N   -0.319056
    11  C   -0.014278
    12  C    0.218323
    13  C   -0.094437
    14  C   -0.152864
    15  C   -0.085724
    16  C   -0.124179
    17  C   -0.167070
    18  C    0.065890
    19  C   -0.053488
    20  C   -0.082626
    21  C    0.062593
    22  C    0.169765
    23  C   -0.131445
    24  C    0.101795
    25  C    0.054529
    26  C   -0.068492
    27  C   -0.004743
    28  C    0.092443
    29  C    0.138563
    30  C    0.028971
    31  C   -0.063097
    32  C   -0.056661
    33  C   -0.053740
    34  C    0.089937
    35  C    0.103353
    36  C   -0.033328
    37  C    0.183490
    38  C    0.143809
    39  C   -0.172421
    40  C    0.165173
    41  C   -0.070381
    42  C    0.067715
    43  C   -0.063662
    44  H    0.084214
    45  H    0.002116
    46  H   -0.079522
    47  H    0.105424
    48  H    0.215433
    49  H    0.016831
    50  H    0.015300
    51  H    0.025659
    52  H    0.001041
    53  H    0.019235
    54  H    0.046539
    55  H    0.021821
    56  H    0.035510
    57  H    0.057086
    58  H    0.035528
    59  H    0.066600
    60  H    0.062410
    61  H    0.016789
    62  H   -0.000264
    63  H   -0.013438
    64  H    0.103900
    65  H    0.041792
    66  H    0.075346
    67  H    0.068504
    68  H    0.060839
    69  H   -0.014522
    70  H    0.014008
    71  H    0.014311
    72  H    0.201330
    73  H    0.021204
    74  H   -0.034519
    75  H    0.050688
    76  H    0.039620
    77  H    0.157608
    78  H    0.054592
    79  H    0.057050
 Sum of Mulliken charges =  -0.00000

 Dipole moment (field-independent basis, Debye):
    X=              4.1704    Y=              3.8251    Z=             -0.8770  Tot=              5.7265
 Quadrupole moment (field-independent basis, Debye-Ang):
   XX=           -239.6258   YY=           -232.1855   ZZ=           -272.0898
   XY=              3.1084   XZ=            -23.1157   YZ=             -9.1226

 Normal termination of Gaussian 16 at Tue Jul 30 07:12:59 2019.
