 Gaussian 16, Revision A.03,
 Gaussian 16:  ES64L-G16RevA.03 25-Dec-2016

 --------------------------
 # td=(NStates=1) B3LYP/SVP
 --------------------------

 --
 TD
 --
 Symbolic Z-matrix:
 Charge =  0 Multiplicity = 1

                         Standard orientation:
 ---------------------------------------------------------------------
 Center     Atomic      Atomic             Coordinates (Angstroms)
 Number     Number       Type             X           Y           Z
 ---------------------------------------------------------------------
      1          8           0        5.112432    0.163846   -3.195330
      2          8           0       -3.042140   -2.881420    3.350216
      3          8           0       -3.407801   -0.729869    3.035260
      4          8           0       -1.681726    7.099068    1.562126
      5          8           0       -0.653003    7.010518   -0.469171
      6          8           0       -1.522770   -3.995691   -0.028352
      7          7           0        2.352727    0.927282    0.826005
      8          7           0        4.215521   -0.477809   -1.211603
      9          7           0       -1.801916    0.784562   -0.311038
     10          7           0       -2.476778   -1.890702   -0.525955
     11          6           0        4.653778   -1.263284   -0.013560
     12          6           0        4.400488   -0.464091    1.336399
     13          6           0        2.838037   -0.106383    1.475171
     14          6           0        1.875756   -0.785061    2.216016
     15          6           0        0.637375   -0.024533    1.890477
     16          6           0        1.022206    1.046192    1.023732
     17          6           0        6.144628   -1.425776   -0.241670
     18          6           0       -0.668732   -0.216903    2.616820
     19          6           0        6.467999   -0.730276   -1.340478
     20          6           0        0.193613    1.992116    0.232899
     21          6           0       -1.042674    1.861782   -0.167752
     22          6           0        5.262316   -0.287075   -2.091992
     23          6           0       -1.765691    2.911307   -0.945887
     24          6           0        2.063481   -1.899874    3.235784
     25          6           0        7.072889   -2.095749    0.699509
     26          6           0       -2.979993    2.402943   -1.346097
     27          6           0       -1.284314   -1.679971    2.614755
     28          6           0       -2.916892    1.014001   -1.016219
     29          6           0       -1.443964    4.408796   -1.049842
     30          6           0        7.750003   -0.558185   -2.068641
     31          6           0       -1.713613    4.942192    0.382083
     32          6           0       -4.179435    3.004035   -1.942830
     33          6           0       -3.872870   -0.093263   -1.382987
     34          6           0       -2.657627   -1.659406    3.064973
     35          6           0       -3.567485   -1.508665   -1.202157
     36          6           0        9.033306   -0.718906   -1.539387
     37          6           0       -1.325347    6.506169    0.408715
     38          6           0       -4.422338   -2.582099   -1.713322
     39          6           0       -3.698776   -3.708186   -1.210714
     40          6           0       -2.535188   -3.282362   -0.464289
     41          6           0       -5.735362   -2.454913   -2.240390
     42          6           0       -4.233686   -5.226356   -1.185890
     43          6           0       -6.368633   -3.453645   -2.811373
     44          1           0        3.998919   -2.134381    0.075368
     45          1           0        5.166483    0.448974    1.251225
     46          1           0        4.621616   -1.105445    2.214262
     47          1           0        2.869195    1.535390    0.325413
     48          1           0        3.398379   -0.667005   -1.779416
     49          1           0       -0.367157    0.032451    3.634563
     50          1           0       -1.450900    0.391086    2.283526
     51          1           0        0.746514    2.761844    0.022785
     52          1           0        3.116774   -2.096858    3.303835
     53          1           0        1.327859   -1.789844    4.087594
     54          1           0        1.739741   -2.799474    2.677692
     55          1           0        6.509093   -3.161783    1.083733
     56          1           0        7.470295   -1.577863    1.664031
     57          1           0        7.788578   -2.349665    0.044646
     58          1           0       -0.961380   -2.248058    1.567134
     59          1           0       -0.840765   -2.350913    3.522033
     60          1           0       -1.399932   -0.124155   -0.361533
     61          1           0       -2.064172    4.847031   -1.716964
     62          1           0       -0.506371    4.721762   -1.352922
     63          1           0        7.528329   -0.458548   -3.104831
     64          1           0       -1.192154    4.445428    1.110194
     65          1           0       -2.850820    5.039882    0.538227
     66          1           0       -3.983735    4.002443   -2.348397
     67          1           0       -5.075962    2.846774   -1.320289
     68          1           0       -4.441939    2.279932   -2.846640
     69          1           0       -4.789525    0.034900   -1.909921
     70          1           0        9.377553   -1.192826   -0.465654
     71          1           0        9.810427   -0.488760   -2.413518
     72          1           0       -4.040432   -3.016315    3.495981
     73          1           0       -6.087088   -1.342702   -2.208438
     74          1           0       -5.447027   -5.125743   -0.945435
     75          1           0       -3.951374   -5.626412   -2.237024
     76          1           0       -3.763635   -5.655050   -0.189035
     77          1           0       -1.291720    7.939028    1.573188
     78          1           0       -7.449640   -3.464717   -3.207572
     79          1           0       -6.000350   -4.472764   -2.878843
 ---------------------------------------------------------------------

 SCF Done:  E(RB3LYP) =  -1947.83404074     A.U. after   19 cycles

 Excitation energies and oscillator strengths:

 Excited State   1:      Singlet-A      1.8956 eV  654.08 nm  f=0.2132  <S**2>=0.000
     153 ->156        -0.17483
     154 ->156         0.33026
     155 ->156         0.59781
 This state for optimization and/or second-order correction.
 Total Energy, E(TD-HF/TD-DFT) =  -1947.76438004
 Copying the excited state density for this state as the 1-particle RhoCI density.

 The electronic state is 1-A.
 Alpha  occ. eigenvalues --  -19.19729 -19.16334 -19.13962 -19.10803 -19.09938
 Alpha  occ. eigenvalues --  -19.09171 -14.37915 -14.36746 -14.34841 -14.27776
 Alpha  occ. eigenvalues --  -10.33256 -10.29256 -10.28243 -10.25477 -10.25423
 Alpha  occ. eigenvalues --  -10.25348 -10.23753 -10.23336 -10.23082 -10.22646
 Alpha  occ. eigenvalues --  -10.22532 -10.22528 -10.22476 -10.22229 -10.21753
 Alpha  occ. eigenvalues --  -10.21703 -10.21184 -10.21147 -10.20991 -10.20955
 Alpha  occ. eigenvalues --  -10.20678 -10.20630 -10.20309 -10.20050 -10.19847
 Alpha  occ. eigenvalues --  -10.19792 -10.19704 -10.19681 -10.19500 -10.19404
 Alpha  occ. eigenvalues --  -10.19272 -10.19150 -10.18008  -1.11488  -1.08435
 Alpha  occ. eigenvalues --   -1.04048  -1.02221  -1.01148  -1.00688  -0.98797
 Alpha  occ. eigenvalues --   -0.96445  -0.93843  -0.90242  -0.83360  -0.82908
 Alpha  occ. eigenvalues --   -0.82510  -0.80696  -0.80301  -0.78958  -0.77920
 Alpha  occ. eigenvalues --   -0.76457  -0.75479  -0.74681  -0.73236  -0.72316
 Alpha  occ. eigenvalues --   -0.71777  -0.71617  -0.70262  -0.69216  -0.68448
 Alpha  occ. eigenvalues --   -0.67675  -0.65468  -0.63511  -0.61937  -0.60818
 Alpha  occ. eigenvalues --   -0.60235  -0.59210  -0.58611  -0.57875  -0.57624
 Alpha  occ. eigenvalues --   -0.57314  -0.56889  -0.55224  -0.53808  -0.52994
 Alpha  occ. eigenvalues --   -0.51743  -0.51590  -0.50753  -0.50471  -0.49801
 Alpha  occ. eigenvalues --   -0.49450  -0.49400  -0.47773  -0.47463  -0.47341
 Alpha  occ. eigenvalues --   -0.46714  -0.46408  -0.46077  -0.46031  -0.45677
 Alpha  occ. eigenvalues --   -0.45272  -0.44583  -0.44538  -0.44181  -0.44084
 Alpha  occ. eigenvalues --   -0.43516  -0.43217  -0.42738  -0.42560  -0.42248
 Alpha  occ. eigenvalues --   -0.41961  -0.41790  -0.41535  -0.41100  -0.40985
 Alpha  occ. eigenvalues --   -0.40748  -0.40472  -0.40196  -0.39769  -0.39728
 Alpha  occ. eigenvalues --   -0.39172  -0.39041  -0.38722  -0.38576  -0.37862
 Alpha  occ. eigenvalues --   -0.37673  -0.37526  -0.37339  -0.36955  -0.36486
 Alpha  occ. eigenvalues --   -0.36120  -0.35477  -0.34657  -0.34254  -0.33960
 Alpha  occ. eigenvalues --   -0.33032  -0.32793  -0.32406  -0.32103  -0.31391
 Alpha  occ. eigenvalues --   -0.31300  -0.30516  -0.29078  -0.28534  -0.27112
 Alpha  occ. eigenvalues --   -0.26267  -0.26256  -0.25991  -0.25816  -0.24677
 Alpha  occ. eigenvalues --   -0.23585  -0.23226  -0.22885  -0.21387  -0.18925
 Alpha virt. eigenvalues --   -0.11021  -0.06756  -0.06530  -0.00635  -0.00205
 Alpha virt. eigenvalues --    0.00055   0.01743   0.02283   0.02777   0.03755
 Alpha virt. eigenvalues --    0.04188   0.04722   0.04752   0.05139   0.05430

 Mulliken charges:
               1
     1  O   -0.204281
     2  O   -0.191400
     3  O   -0.221717
     4  O   -0.139060
     5  O   -0.229717
     6  O   -0.303516
     7  N    0.090596
     8  N   -0.200354
     9  N    0.046204
    10  N   -0.258590
    11  C    0.097051
    12  C    0.118596
    13  C   -0.133717
    14  C   -0.167098
    15  C   -0.162567
    16  C   -0.037262
    17  C   -0.135638
    18  C    0.129464
    19  C   -0.085358
    20  C    0.027947
    21  C    0.129964
    22  C    0.118793
    23  C   -0.147356
    24  C    0.174123
    25  C    0.042528
    26  C   -0.110228
    27  C   -0.141912
    28  C    0.057769
    29  C    0.215155
    30  C    0.005295
    31  C   -0.021274
    32  C    0.101244
    33  C   -0.041484
    34  C    0.132885
    35  C    0.012785
    36  C   -0.096155
    37  C    0.127407
    38  C    0.034553
    39  C   -0.189635
    40  C    0.178922
    41  C   -0.006184
    42  C   -0.023192
    43  C   -0.053851
    44  H    0.015936
    45  H    0.020050
    46  H    0.011646
    47  H    0.071146
    48  H    0.126271
    49  H    0.009568
    50  H    0.001319
    51  H   -0.092971
    52  H   -0.019763
    53  H    0.040409
    54  H    0.025877
    55  H    0.036313
    56  H    0.070736
    57  H    0.009535
    58  H    0.141923
    59  H    0.028338
    60  H    0.132649
    61  H   -0.043109
    62  H   -0.002920
    63  H    0.019051
    64  H    0.028829
    65  H    0.049969
    66  H    0.022929
    67  H    0.039147
    68  H    0.034904
    69  H   -0.059392
    70  H    0.074073
    71  H    0.052803
    72  H    0.201942
    73  H    0.020780
    74  H    0.049573
    75  H    0.070791
    76  H    0.061495
    77  H    0.157097
    78  H    0.031099
    79  H    0.022224
 Sum of Mulliken charges =  -0.00000

 Dipole moment (field-independent basis, Debye):
    X=              0.9712    Y=              2.6384    Z=              2.7688  Tot=              3.9460
 Quadrupole moment (field-independent basis, Debye-Ang):
   XX=           -217.3722   YY=           -244.7859   ZZ=           -260.1425
   XY=            -13.1018   XZ=             27.9943   YZ=              5.1570

 Normal termination of Gaussian 16 at Fri Sep 27 18:57:12 2019.
