 Gaussian 16, Revision A.03,
 Gaussian 16:  ES64L-G16RevA.03 25-Dec-2016

 --------------------------
 # td=(NStates=1) B3LYP/SVP
 --------------------------

 --
 TD
 --
 Symbolic Z-matrix:
 Charge =  0 Multiplicity = 1

                         Standard orientation:
 ---------------------------------------------------------------------
 Center     Atomic      Atomic             Coordinates (Angstroms)
 Number     Number       Type             X           Y           Z
 ---------------------------------------------------------------------
      1          8           0       -3.354245   -0.752953   -2.951778
      2          8           0        3.210496    2.554280    3.426311
      3          8           0        3.623185    0.726385    4.576487
      4          8           0        7.760929   -1.350558   -0.985631
      5          8           0        6.534557   -2.756913   -2.285166
      6          8           0       -2.709536    1.390084    1.665041
      7          7           0       -0.219501   -2.583273    0.595581
      8          7           0       -2.697393   -1.029777   -0.776632
      9          7           0        1.101025    0.083461   -0.818176
     10          7           0       -0.930704    1.534781    0.077155
     11          6           0       -3.427958   -1.427985    0.493081
     12          6           0       -2.543171   -2.567884    1.315303
     13          6           0       -1.202419   -2.238061    1.493320
     14          6           0       -0.643992   -1.564562    2.554422
     15          6           0        0.749392   -1.465613    2.297134
     16          6           0        0.919775   -2.040233    1.007996
     17          6           0       -4.758199   -1.765184    0.044632
     18          6           0        1.875120   -0.910780    3.075873
     19          6           0       -4.845594   -1.712872   -1.339964
     20          6           0        2.145051   -1.847878    0.064979
     21          6           0        2.155555   -0.820907   -0.810796
     22          6           0       -3.524080   -1.164436   -1.840536
     23          6           0        3.038802   -0.445975   -1.899817
     24          6           0       -1.423091   -0.972544    3.701024
     25          6           0       -5.694622   -2.416521    1.081488
     26          6           0        2.532396    0.769405   -2.426148
     27          6           0        2.045059    0.698243    2.832805
     28          6           0        1.301164    1.104123   -1.654635
     29          6           0        4.217788   -1.265703   -2.165385
     30          6           0       -5.970951   -2.125973   -2.315931
     31          6           0        5.434385   -0.766439   -1.336466
     32          6           0        3.211998    1.530487   -3.375582
     33          6           0        0.506209    2.267537   -1.747382
     34          6           0        3.001835    1.296769    3.716034
     35          6           0       -0.559503    2.414268   -0.926828
     36          6           0       -6.779873   -3.195406   -2.045354
     37          6           0        6.565616   -1.732388   -1.680173
     38          6           0       -1.458277    3.634788   -0.777621
     39          6           0       -2.313229    3.396887    0.268483
     40          6           0       -1.984109    1.981334    0.799401
     41          6           0       -1.304117    4.760157   -1.568391
     42          6           0       -3.453183    4.311375    0.707921
     43          6           0       -1.970274    6.001627   -1.629969
     44          1           0       -3.329704   -0.368731    1.013393
     45          1           0       -2.680021   -3.456969    0.764813
     46          1           0       -3.042568   -2.736222    2.327786
     47          1           0       -0.390353   -2.883478   -0.341221
     48          1           0       -2.109894   -0.309305   -0.961257
     49          1           0        1.776828   -1.092791    4.161437
     50          1           0        2.938398   -1.268583    2.779178
     51          1           0        2.801943   -2.674832    0.026607
     52          1           0       -2.596821   -1.596610    3.901149
     53          1           0       -0.754938   -0.983393    4.802337
     54          1           0       -1.500247    0.122902    3.218771
     55          1           0       -5.597538   -2.156039    2.211008
     56          1           0       -5.454676   -3.527196    1.126797
     57          1           0       -6.807495   -2.030019    0.753318
     58          1           0        2.082975    0.956502    1.735680
     59          1           0        1.075144    1.074355    2.750067
     60          1           0        0.429897    0.190415   -0.018634
     61          1           0        4.600652   -1.367844   -3.131691
     62          1           0        3.978446   -2.422143   -1.727889
     63          1           0       -6.004731   -1.603918   -3.271982
     64          1           0        5.164913   -0.655926   -0.326075
     65          1           0        5.898961    0.300611   -1.667733
     66          1           0        4.050780    1.145868   -3.921016
     67          1           0        3.486902    2.643351   -2.961706
     68          1           0        2.632813    1.888239   -4.291358
     69          1           0        0.863675    3.140378   -2.338752
     70          1           0       -6.608937   -3.665718   -0.933898
     71          1           0       -7.465022   -3.473858   -2.797064
     72          1           0        3.920502    2.765449    4.243859
     73          1           0       -0.418037    4.809120   -2.330385
     74          1           0       -4.308335    4.372324    0.006184
     75          1           0       -3.878705    3.690633    1.646076
     76          1           0       -3.003058    5.117742    1.177592
     77          1           0        8.296225   -1.942381   -0.997820
     78          1           0       -1.518902    6.991260   -2.047769
     79          1           0       -2.887184    6.169926   -1.164913
 ---------------------------------------------------------------------

 SCF Done:  E(RB3LYP) =  -1947.77336457     A.U. after   20 cycles

 Excitation energies and oscillator strengths:

 Excited State   1:      Singlet-A      1.0086 eV 1229.22 nm  f=0.0009  <S**2>=0.000
     155 ->156         0.70241
 This state for optimization and/or second-order correction.
 Total Energy, E(TD-HF/TD-DFT) =  -1947.73629757
 Copying the excited state density for this state as the 1-particle RhoCI density.

 The electronic state is 1-A.
 Alpha  occ. eigenvalues --  -19.18817 -19.16591 -19.16120 -19.12061 -19.11993
 Alpha  occ. eigenvalues --  -19.07263 -14.38917 -14.37323 -14.31718 -14.31017
 Alpha  occ. eigenvalues --  -10.34692 -10.31124 -10.28576 -10.28381 -10.26254
 Alpha  occ. eigenvalues --  -10.25678 -10.25283 -10.24193 -10.23993 -10.23928
 Alpha  occ. eigenvalues --  -10.23764 -10.23565 -10.22730 -10.22333 -10.21816
 Alpha  occ. eigenvalues --  -10.21716 -10.21675 -10.21601 -10.21265 -10.20804
 Alpha  occ. eigenvalues --  -10.20768 -10.20637 -10.20187 -10.19991 -10.19642
 Alpha  occ. eigenvalues --  -10.19413 -10.19405 -10.19397 -10.19329 -10.18987
 Alpha  occ. eigenvalues --  -10.18758 -10.17641 -10.17318  -1.11805  -1.10640
 Alpha  occ. eigenvalues --   -1.04511  -1.01664  -1.01202  -1.00385  -1.00042
 Alpha  occ. eigenvalues --   -0.98668  -0.92950  -0.91415  -0.85605  -0.83827
 Alpha  occ. eigenvalues --   -0.81135  -0.80593  -0.80554  -0.79870  -0.79246
 Alpha  occ. eigenvalues --   -0.77633  -0.76351  -0.74770  -0.74402  -0.73916
 Alpha  occ. eigenvalues --   -0.70543  -0.70367  -0.69639  -0.68705  -0.67592
 Alpha  occ. eigenvalues --   -0.66592  -0.65949  -0.63390  -0.62540  -0.61521
 Alpha  occ. eigenvalues --   -0.60436  -0.59068  -0.58364  -0.58241  -0.57496
 Alpha  occ. eigenvalues --   -0.56305  -0.55835  -0.55210  -0.53465  -0.53384
 Alpha  occ. eigenvalues --   -0.52860  -0.52346  -0.51248  -0.50908  -0.50460
 Alpha  occ. eigenvalues --   -0.49707  -0.49624  -0.48949  -0.48533  -0.48112
 Alpha  occ. eigenvalues --   -0.47631  -0.47491  -0.47181  -0.46752  -0.46193
 Alpha  occ. eigenvalues --   -0.45857  -0.45433  -0.44985  -0.44269  -0.44073
 Alpha  occ. eigenvalues --   -0.43814  -0.43338  -0.42977  -0.42383  -0.42343
 Alpha  occ. eigenvalues --   -0.42160  -0.41939  -0.41585  -0.41472  -0.41282
 Alpha  occ. eigenvalues --   -0.40738  -0.40643  -0.40165  -0.39622  -0.39456
 Alpha  occ. eigenvalues --   -0.39310  -0.38769  -0.38485  -0.38128  -0.37620
 Alpha  occ. eigenvalues --   -0.37396  -0.37281  -0.37189  -0.36329  -0.36278
 Alpha  occ. eigenvalues --   -0.36155  -0.35920  -0.34963  -0.34317  -0.34218
 Alpha  occ. eigenvalues --   -0.34031  -0.33315  -0.32666  -0.32505  -0.32018
 Alpha  occ. eigenvalues --   -0.31777  -0.31128  -0.29299  -0.28770  -0.28506
 Alpha  occ. eigenvalues --   -0.28236  -0.27362  -0.25515  -0.24341  -0.23815
 Alpha  occ. eigenvalues --   -0.23231  -0.22833  -0.22520  -0.22294  -0.19449
 Alpha virt. eigenvalues --   -0.13218  -0.08324  -0.03431  -0.03119  -0.02892
 Alpha virt. eigenvalues --    0.00595   0.01547   0.01641   0.02355   0.02673
 Alpha virt. eigenvalues --    0.03080   0.03271   0.03630   0.04031   0.04782

 Mulliken charges:
               1
     1  O   -0.231231
     2  O   -0.206510
     3  O   -0.241755
     4  O   -0.143325
     5  O   -0.178394
     6  O   -0.275059
     7  N    0.021119
     8  N   -0.179441
     9  N   -0.064721
    10  N   -0.320482
    11  C    0.050571
    12  C    0.197837
    13  C   -0.081877
    14  C   -0.068753
    15  C   -0.097040
    16  C   -0.105897
    17  C   -0.132592
    18  C    0.094257
    19  C   -0.089473
    20  C   -0.096337
    21  C    0.141730
    22  C    0.078988
    23  C    0.005838
    24  C   -0.082585
    25  C   -0.021154
    26  C   -0.067999
    27  C   -0.038226
    28  C    0.122822
    29  C    0.032300
    30  C   -0.008312
    31  C   -0.036836
    32  C    0.011540
    33  C   -0.110848
    34  C    0.174452
    35  C    0.144233
    36  C   -0.038168
    37  C    0.162113
    38  C    0.149405
    39  C   -0.247689
    40  C    0.211486
    41  C   -0.118965
    42  C    0.096156
    43  C   -0.058671
    44  H    0.090122
    45  H   -0.045698
    46  H    0.000210
    47  H    0.107029
    48  H    0.089283
    49  H    0.021312
    50  H    0.009711
    51  H    0.005054
    52  H    0.040371
    53  H    0.040247
    54  H    0.096432
    55  H    0.033266
    56  H    0.053803
    57  H    0.067707
    58  H    0.010878
    59  H    0.007314
    60  H    0.201949
    61  H    0.005617
    62  H    0.062667
    63  H    0.011353
    64  H    0.041528
    65  H    0.070372
    66  H    0.016984
    67  H    0.047079
    68  H    0.029729
    69  H    0.000282
    70  H    0.049830
    71  H    0.013897
    72  H    0.219349
    73  H    0.012871
    74  H    0.060702
    75  H    0.030608
    76  H    0.015764
    77  H    0.074822
    78  H    0.048922
    79  H    0.006127
 Sum of Mulliken charges =  -0.00000

 Dipole moment (field-independent basis, Debye):
    X=              4.9572    Y=              2.1803    Z=             -1.6761  Tot=              5.6689
 Quadrupole moment (field-independent basis, Debye-Ang):
   XX=           -244.7377   YY=           -235.3151   ZZ=           -270.4702
   XY=              8.8362   XZ=            -21.1216   YZ=             -7.6636

 Normal termination of Gaussian 16 at Sun Jul 28 22:53:24 2019.
