 Gaussian 16, Revision A.03,
 Gaussian 16:  ES64L-G16RevA.03 25-Dec-2016

 --------------------------
 # td=(NStates=1) B3LYP/SVP
 --------------------------

 --
 TD
 --
 Symbolic Z-matrix:
 Charge =  0 Multiplicity = 1

                         Standard orientation:
 ---------------------------------------------------------------------
 Center     Atomic      Atomic             Coordinates (Angstroms)
 Number     Number       Type             X           Y           Z
 ---------------------------------------------------------------------
      1          8           0        5.223491   -0.002003   -3.286025
      2          8           0       -3.088715   -2.943134    3.062914
      3          8           0       -3.451712   -0.772766    3.074609
      4          8           0       -1.616032    7.315820    1.365624
      5          8           0       -0.363360    6.930497   -0.488334
      6          8           0       -1.815967   -4.051653    0.079722
      7          7           0        2.348794    0.988428    0.773524
      8          7           0        4.326287   -0.630497   -1.283012
      9          7           0       -1.741368    0.748760   -0.386161
     10          7           0       -2.677713   -1.814534   -0.430304
     11          6           0        4.787757   -1.158479   -0.006558
     12          6           0        4.459766   -0.314512    1.298102
     13          6           0        3.009978   -0.054719    1.488730
     14          6           0        2.062532   -0.725542    2.133221
     15          6           0        0.742609   -0.078368    1.871179
     16          6           0        1.033626    0.920659    0.910749
     17          6           0        6.255102   -1.344981   -0.258886
     18          6           0       -0.584476   -0.240327    2.544269
     19          6           0        6.625772   -0.866358   -1.501017
     20          6           0        0.237883    2.032073    0.338273
     21          6           0       -1.072026    1.908058   -0.135409
     22          6           0        5.286687   -0.498105   -2.183635
     23          6           0       -1.888567    2.933144   -0.841098
     24          6           0        2.319710   -1.959851    3.184215
     25          6           0        7.033226   -2.168460    0.735932
     26          6           0       -3.023985    2.302813   -1.333492
     27          6           0       -1.128064   -1.692463    2.485187
     28          6           0       -2.927651    0.969521   -1.051562
     29          6           0       -1.494195    4.387594   -0.843517
     30          6           0        7.905045   -0.791517   -2.091498
     31          6           0       -1.780052    5.168310    0.452595
     32          6           0       -4.255235    3.050780   -1.930401
     33          6           0       -3.914997   -0.111114   -1.360601
     34          6           0       -2.666989   -1.719648    2.913329
     35          6           0       -3.791617   -1.435390   -1.004259
     36          6           0        9.099431   -0.921718   -1.491945
     37          6           0       -1.150715    6.587924    0.439396
     38          6           0       -4.667685   -2.546165   -1.463769
     39          6           0       -3.959280   -3.657640   -1.086156
     40          6           0       -2.679681   -3.189663   -0.341956
     41          6           0       -5.862061   -2.484006   -2.276946
     42          6           0       -4.325914   -5.157911   -1.221971
     43          6           0       -6.773295   -3.334305   -2.570266
     44          1           0        4.229252   -2.209349    0.164246
     45          1           0        5.248688    0.657429    1.365771
     46          1           0        4.790990   -1.151581    1.914620
     47          1           0        2.851932    1.618554    0.011624
     48          1           0        3.316227   -0.612562   -1.394216
     49          1           0       -0.529275   -0.053727    3.549227
     50          1           0       -1.478571    0.271468    2.282454
     51          1           0        0.823474    2.837701    0.034688
     52          1           0        3.357175   -1.961949    3.450822
     53          1           0        1.777253   -1.780053    4.154195
     54          1           0        1.925935   -2.880879    2.566057
     55          1           0        6.344283   -2.981153    1.099580
     56          1           0        7.411966   -1.563142    1.592035
     57          1           0        7.818773   -2.666434    0.353354
     58          1           0       -0.968164   -2.123714    1.454519
     59          1           0       -0.341457   -2.187609    3.055713
     60          1           0       -1.540933   -0.313653   -0.493669
     61          1           0       -1.938324    5.032161   -1.584336
     62          1           0       -0.385103    4.357840   -1.103439
     63          1           0        7.930712   -0.425401   -3.036076
     64          1           0       -1.396907    4.579061    1.226714
     65          1           0       -2.825310    5.376468    0.440150
     66          1           0       -4.155867    4.125449   -2.248673
     67          1           0       -5.054851    2.927731   -1.229171
     68          1           0       -4.730473    2.492101   -2.756661
     69          1           0       -5.000692    0.337294   -1.837284
     70          1           0        9.159710   -0.866233   -0.291943
     71          1           0       10.022871   -0.619177   -2.053497
     72          1           0       -4.053711   -2.872956    3.190202
     73          1           0       -5.997956   -1.373633   -2.662476
     74          1           0       -5.165852   -5.447277   -0.483585
     75          1           0       -4.723680   -5.382642   -2.251190
     76          1           0       -3.412824   -5.710692   -0.769035
     77          1           0       -1.057643    8.241051    1.445327
     78          1           0       -7.663897   -2.956111   -3.147667
     79          1           0       -6.957239   -4.431378   -1.996210
 ---------------------------------------------------------------------

 SCF Done:  E(RB3LYP) =  -1947.86180370     A.U. after   24 cycles

 Excitation energies and oscillator strengths:

 Excited State   1:      Singlet-A      2.0313 eV  610.37 nm  f=0.3797  <S**2>=0.000
     154 ->156         0.14520
     155 ->156         0.67999
     155 <-156        -0.12412
 This state for optimization and/or second-order correction.
 Total Energy, E(TD-HF/TD-DFT) =  -1947.78715549
 Copying the excited state density for this state as the 1-particle RhoCI density.

 The electronic state is 1-A.
 Alpha  occ. eigenvalues --  -19.22185 -19.17620 -19.12632 -19.11330 -19.10000
 Alpha  occ. eigenvalues --  -19.09262 -14.39047 -14.36862 -14.35894 -14.29405
 Alpha  occ. eigenvalues --  -10.33231 -10.31381 -10.28414 -10.26724 -10.25963
 Alpha  occ. eigenvalues --  -10.25424 -10.25208 -10.23875 -10.23722 -10.23634
 Alpha  occ. eigenvalues --  -10.23190 -10.23152 -10.22126 -10.21979 -10.21687
 Alpha  occ. eigenvalues --  -10.21172 -10.21047 -10.20986 -10.20888 -10.20758
 Alpha  occ. eigenvalues --  -10.20665 -10.20617 -10.20523 -10.20323 -10.20319
 Alpha  occ. eigenvalues --  -10.19984 -10.19737 -10.19573 -10.19323 -10.19300
 Alpha  occ. eigenvalues --  -10.19251 -10.18795 -10.17382  -1.12759  -1.10066
 Alpha  occ. eigenvalues --   -1.02798  -0.99373  -0.99316  -0.98948  -0.98062
 Alpha  occ. eigenvalues --   -0.97791  -0.94958  -0.92526  -0.82779  -0.82520
 Alpha  occ. eigenvalues --   -0.82146  -0.80722  -0.80278  -0.79925  -0.78175
 Alpha  occ. eigenvalues --   -0.77394  -0.75512  -0.75420  -0.74001  -0.72430
 Alpha  occ. eigenvalues --   -0.71754  -0.70876  -0.69728  -0.68874  -0.68549
 Alpha  occ. eigenvalues --   -0.66442  -0.66339  -0.63985  -0.62407  -0.62216
 Alpha  occ. eigenvalues --   -0.60398  -0.59231  -0.58317  -0.57732  -0.56709
 Alpha  occ. eigenvalues --   -0.56193  -0.55834  -0.55357  -0.54452  -0.53159
 Alpha  occ. eigenvalues --   -0.51901  -0.51544  -0.50578  -0.50386  -0.50292
 Alpha  occ. eigenvalues --   -0.49588  -0.49300  -0.48957  -0.48583  -0.47291
 Alpha  occ. eigenvalues --   -0.47224  -0.46506  -0.46441  -0.45964  -0.45622
 Alpha  occ. eigenvalues --   -0.45331  -0.44610  -0.44150  -0.43811  -0.43664
 Alpha  occ. eigenvalues --   -0.43486  -0.43180  -0.43148  -0.42698  -0.42312
 Alpha  occ. eigenvalues --   -0.42198  -0.42010  -0.41501  -0.41494  -0.40985
 Alpha  occ. eigenvalues --   -0.40603  -0.40367  -0.39958  -0.39819  -0.39553
 Alpha  occ. eigenvalues --   -0.39550  -0.39362  -0.38815  -0.38601  -0.38186
 Alpha  occ. eigenvalues --   -0.37461  -0.37420  -0.36993  -0.36819  -0.36494
 Alpha  occ. eigenvalues --   -0.36148  -0.35645  -0.35389  -0.34965  -0.34891
 Alpha  occ. eigenvalues --   -0.33353  -0.32612  -0.32482  -0.32382  -0.31663
 Alpha  occ. eigenvalues --   -0.31304  -0.30703  -0.29419  -0.28072  -0.27902
 Alpha  occ. eigenvalues --   -0.27070  -0.26804  -0.25998  -0.25368  -0.25100
 Alpha  occ. eigenvalues --   -0.23889  -0.23449  -0.23281  -0.22490  -0.19810
 Alpha virt. eigenvalues --   -0.11964  -0.06667  -0.06189  -0.00959  -0.00266
 Alpha virt. eigenvalues --    0.00077   0.00966   0.01303   0.01339   0.02208
 Alpha virt. eigenvalues --    0.02838   0.03338   0.03685   0.04756   0.04992

 Mulliken charges:
               1
     1  O   -0.219433
     2  O   -0.123720
     3  O   -0.274508
     4  O   -0.151472
     5  O   -0.287013
     6  O   -0.289475
     7  N   -0.133277
     8  N   -0.137644
     9  N   -0.082659
    10  N   -0.272875
    11  C    0.010039
    12  C    0.128449
    13  C   -0.021712
    14  C   -0.144408
    15  C   -0.079710
    16  C    0.011081
    17  C   -0.192703
    18  C    0.146289
    19  C   -0.028835
    20  C   -0.027460
    21  C    0.119019
    22  C    0.131532
    23  C   -0.100565
    24  C    0.052544
    25  C    0.134156
    26  C   -0.101684
    27  C   -0.079081
    28  C    0.036458
    29  C    0.060274
    30  C    0.020253
    31  C    0.060297
    32  C    0.113781
    33  C   -0.157071
    34  C    0.164998
    35  C    0.120188
    36  C   -0.070589
    37  C    0.114062
    38  C    0.038353
    39  C   -0.212735
    40  C    0.194361
    41  C    0.001018
    42  C    0.028056
    43  C   -0.102801
    44  H    0.038117
    45  H    0.044917
    46  H   -0.009509
    47  H    0.158576
    48  H    0.128272
    49  H   -0.028795
    50  H    0.006433
    51  H   -0.023587
    52  H    0.008021
    53  H    0.043919
    54  H    0.077619
    55  H    0.019984
    56  H    0.036475
    57  H   -0.004955
    58  H    0.071034
    59  H    0.006186
    60  H    0.183730
    61  H   -0.002222
    62  H    0.031031
    63  H   -0.032280
    64  H    0.023855
    65  H    0.026447
    66  H    0.034930
    67  H    0.014413
    68  H    0.011481
    69  H    0.031702
    70  H    0.038635
    71  H    0.038860
    72  H    0.175217
    73  H    0.006774
    74  H    0.032278
    75  H    0.043176
    76  H    0.050533
    77  H    0.245049
    78  H    0.028875
    79  H    0.051029
 Sum of Mulliken charges =  -0.00000

 Dipole moment (field-independent basis, Debye):
    X=              0.7086    Y=              4.7050    Z=              4.2586  Tot=              6.3855
 Quadrupole moment (field-independent basis, Debye-Ang):
   XX=           -225.9321   YY=           -237.9581   ZZ=           -266.5814
   XY=            -13.7693   XZ=             31.6309   YZ=              6.5941

 Normal termination of Gaussian 16 at Wed Oct  2 15:28:50 2019.
