 Gaussian 16, Revision A.03,
 Gaussian 16:  ES64L-G16RevA.03 25-Dec-2016

 --------------------------
 # td=(NStates=1) B3LYP/SVP
 --------------------------

 --
 TD
 --
 Symbolic Z-matrix:
 Charge =  0 Multiplicity = 1

                         Standard orientation:
 ---------------------------------------------------------------------
 Center     Atomic      Atomic             Coordinates (Angstroms)
 Number     Number       Type             X           Y           Z
 ---------------------------------------------------------------------
      1          8           0        5.301444    0.214727   -3.119065
      2          8           0       -3.150488   -2.979450    3.061836
      3          8           0       -3.517560   -0.759258    2.880414
      4          8           0       -1.700394    7.175713    1.416066
      5          8           0       -0.481106    6.976772   -0.403871
      6          8           0       -1.707527   -3.913153    0.165554
      7          7           0        2.376579    0.959071    0.723919
      8          7           0        4.204271   -0.532256   -1.122524
      9          7           0       -1.670684    0.722031   -0.459486
     10          7           0       -2.520899   -1.826319   -0.601970
     11          6           0        4.722223   -1.286732   -0.099237
     12          6           0        4.287743   -0.545922    1.412208
     13          6           0        2.838045   -0.168312    1.442923
     14          6           0        1.889046   -0.715454    2.119875
     15          6           0        0.650093   -0.031767    1.915082
     16          6           0        1.002783    0.956453    1.026930
     17          6           0        6.155596   -1.444979   -0.187544
     18          6           0       -0.628227   -0.242033    2.694993
     19          6           0        6.462874   -0.779548   -1.335702
     20          6           0        0.207799    2.012566    0.440088
     21          6           0       -1.048157    1.898442   -0.227550
     22          6           0        5.299403   -0.298982   -1.939892
     23          6           0       -1.849491    2.843388   -0.819857
     24          6           0        2.102490   -1.899874    3.069144
     25          6           0        7.114109   -2.227480    0.693491
     26          6           0       -3.064044    2.329811   -1.261790
     27          6           0       -1.216214   -1.558070    2.641668
     28          6           0       -2.929421    0.935543   -0.981524
     29          6           0       -1.402206    4.292536   -0.913034
     30          6           0        7.806991   -0.544757   -2.064299
     31          6           0       -1.881767    5.096283    0.359734
     32          6           0       -4.164394    3.075560   -1.971450
     33          6           0       -3.885138   -0.063909   -1.274095
     34          6           0       -2.759991   -1.700517    2.923624
     35          6           0       -3.570739   -1.430122   -1.182939
     36          6           0        9.042587   -0.735368   -1.518468
     37          6           0       -1.266776    6.514667    0.298375
     38          6           0       -4.438130   -2.652480   -1.537367
     39          6           0       -3.761566   -3.726024   -1.221326
     40          6           0       -2.560360   -3.194238   -0.414417
     41          6           0       -5.782580   -2.500309   -2.216694
     42          6           0       -4.004677   -5.151713   -1.278358
     43          6           0       -6.547178   -3.474592   -2.654951
     44          1           0        4.255472   -2.343367    0.109533
     45          1           0        4.910968    0.508374    1.325942
     46          1           0        4.494781   -1.254311    2.292942
     47          1           0        2.740761    1.561163    0.132384
     48          1           0        3.182923   -0.983071   -1.506772
     49          1           0       -0.464926    0.250881    3.786607
     50          1           0       -1.586617    0.302484    2.268961
     51          1           0        0.786684    2.922158    0.175469
     52          1           0        3.235048   -1.632234    3.122031
     53          1           0        1.324071   -1.861903    3.895728
     54          1           0        2.021053   -2.886365    2.608886
     55          1           0        6.693383   -3.001904    1.308656
     56          1           0        7.632190   -1.498442    1.371069
     57          1           0        7.827569   -2.644746    0.091492
     58          1           0       -1.394070   -2.068752    1.589012
     59          1           0       -0.670788   -2.342371    3.097444
     60          1           0       -1.364542   -0.208755   -0.289068
     61          1           0       -1.786760    4.658488   -1.886697
     62          1           0       -0.195084    4.347720   -0.965656
     63          1           0        7.823430   -0.532129   -3.194157
     64          1           0       -1.167778    4.758428    1.208991
     65          1           0       -2.932330    5.073137    0.368427
     66          1           0       -4.024224    4.211449   -2.525276
     67          1           0       -4.994747    3.000131   -1.199021
     68          1           0       -4.476643    2.369311   -2.845440
     69          1           0       -4.883460    0.186905   -1.889910
     70          1           0        9.453773   -0.449085   -0.484709
     71          1           0        9.808340   -0.445459   -2.378452
     72          1           0       -3.948875   -2.784638    3.199008
     73          1           0       -6.355424   -1.463804   -2.064917
     74          1           0       -4.922474   -5.503337   -0.671769
     75          1           0       -4.136145   -5.446091   -2.277028
     76          1           0       -3.260887   -5.639802   -0.636743
     77          1           0       -1.445375    8.073154    1.318367
     78          1           0       -7.683141   -3.271729   -3.212936
     79          1           0       -6.100356   -4.434372   -2.655275
 ---------------------------------------------------------------------

 SCF Done:  E(RB3LYP) =  -1947.75638356     A.U. after   17 cycles

 Excitation energies and oscillator strengths:

 Excited State   1:      Singlet-A      2.0929 eV  592.42 nm  f=0.4791  <S**2>=0.000
     153 ->156        -0.11000
     155 ->156         0.69994
     155 <-156        -0.12553
 This state for optimization and/or second-order correction.
 Total Energy, E(TD-HF/TD-DFT) =  -1947.67947261
 Copying the excited state density for this state as the 1-particle RhoCI density.

 The electronic state is 1-A.
 Alpha  occ. eigenvalues --  -19.17240 -19.16971 -19.13850 -19.12247 -19.11072
 Alpha  occ. eigenvalues --  -19.09455 -14.37489 -14.36967 -14.36255 -14.28908
 Alpha  occ. eigenvalues --  -10.32023 -10.31480 -10.28220 -10.27064 -10.25824
 Alpha  occ. eigenvalues --  -10.25106 -10.23846 -10.23703 -10.23199 -10.23045
 Alpha  occ. eigenvalues --  -10.23024 -10.22982 -10.22433 -10.22247 -10.22001
 Alpha  occ. eigenvalues --  -10.21691 -10.21585 -10.21094 -10.20973 -10.20729
 Alpha  occ. eigenvalues --  -10.20713 -10.20629 -10.20526 -10.20253 -10.20252
 Alpha  occ. eigenvalues --  -10.20126 -10.20062 -10.19905 -10.19331 -10.18871
 Alpha  occ. eigenvalues --  -10.18749 -10.18324 -10.18179  -1.12825  -1.11662
 Alpha  occ. eigenvalues --   -1.02617  -1.01402  -1.01359  -1.00421  -0.99648
 Alpha  occ. eigenvalues --   -0.98282  -0.94689  -0.93936  -0.82948  -0.82743
 Alpha  occ. eigenvalues --   -0.82584  -0.81643  -0.80871  -0.79500  -0.77550
 Alpha  occ. eigenvalues --   -0.77097  -0.76482  -0.75795  -0.74248  -0.73081
 Alpha  occ. eigenvalues --   -0.72223  -0.71330  -0.69833  -0.69335  -0.68387
 Alpha  occ. eigenvalues --   -0.67439  -0.66610  -0.63521  -0.60958  -0.60305
 Alpha  occ. eigenvalues --   -0.59906  -0.59018  -0.57637  -0.57385  -0.56783
 Alpha  occ. eigenvalues --   -0.56570  -0.55738  -0.54992  -0.54106  -0.53398
 Alpha  occ. eigenvalues --   -0.52147  -0.51826  -0.51720  -0.51277  -0.50354
 Alpha  occ. eigenvalues --   -0.49333  -0.49108  -0.48872  -0.48386  -0.47608
 Alpha  occ. eigenvalues --   -0.47029  -0.46940  -0.46484  -0.46325  -0.45760
 Alpha  occ. eigenvalues --   -0.45626  -0.45242  -0.44368  -0.44002  -0.43493
 Alpha  occ. eigenvalues --   -0.43367  -0.43198  -0.42942  -0.42901  -0.42581
 Alpha  occ. eigenvalues --   -0.42262  -0.42153  -0.41915  -0.41456  -0.41266
 Alpha  occ. eigenvalues --   -0.40938  -0.40861  -0.40735  -0.40354  -0.39777
 Alpha  occ. eigenvalues --   -0.39664  -0.39296  -0.39115  -0.38575  -0.38437
 Alpha  occ. eigenvalues --   -0.37866  -0.37668  -0.37340  -0.36815  -0.36221
 Alpha  occ. eigenvalues --   -0.35747  -0.35363  -0.35160  -0.34156  -0.33871
 Alpha  occ. eigenvalues --   -0.33533  -0.33252  -0.33192  -0.32238  -0.31218
 Alpha  occ. eigenvalues --   -0.31137  -0.31014  -0.29230  -0.28781  -0.27345
 Alpha  occ. eigenvalues --   -0.27205  -0.27156  -0.25592  -0.25418  -0.25223
 Alpha  occ. eigenvalues --   -0.24773  -0.24531  -0.23831  -0.23046  -0.19261
 Alpha virt. eigenvalues --   -0.11262  -0.06728  -0.06120  -0.02211  -0.00149
 Alpha virt. eigenvalues --    0.00528   0.01201   0.01554   0.02085   0.02609
 Alpha virt. eigenvalues --    0.03559   0.04217   0.04445   0.05084   0.05520

 Mulliken charges:
               1
     1  O   -0.288544
     2  O   -0.060763
     3  O   -0.235539
     4  O   -0.193926
     5  O   -0.149477
     6  O   -0.251984
     7  N   -0.042266
     8  N   -0.159054
     9  N   -0.025108
    10  N   -0.214291
    11  C   -0.034824
    12  C    0.091720
    13  C   -0.038551
    14  C   -0.144654
    15  C   -0.040665
    16  C    0.011613
    17  C   -0.128513
    18  C    0.054988
    19  C   -0.055945
    20  C   -0.063857
    21  C    0.071095
    22  C    0.136362
    23  C   -0.091207
    24  C    0.068277
    25  C    0.161660
    26  C   -0.101509
    27  C   -0.043846
    28  C    0.114960
    29  C    0.009628
    30  C   -0.002238
    31  C    0.037457
    32  C    0.000473
    33  C   -0.135517
    34  C    0.106739
    35  C    0.026083
    36  C   -0.106181
    37  C    0.088875
    38  C    0.037750
    39  C   -0.209118
    40  C    0.151872
    41  C   -0.032214
    42  C    0.106015
    43  C   -0.063664
    44  H    0.033864
    45  H    0.017694
    46  H    0.017693
    47  H    0.063214
    48  H    0.209517
    49  H    0.043270
    50  H    0.036715
    51  H   -0.009317
    52  H    0.019098
    53  H    0.045000
    54  H    0.032215
    55  H    0.010635
    56  H    0.039689
    57  H    0.015368
    58  H    0.083846
    59  H   -0.012342
    60  H    0.120265
    61  H    0.020089
    62  H    0.035522
    63  H    0.054309
    64  H    0.065345
    65  H    0.034882
    66  H    0.072025
    67  H    0.051314
    68  H    0.045225
    69  H    0.017673
    70  H    0.050215
    71  H    0.037899
    72  H    0.075813
    73  H    0.027080
    74  H    0.025596
    75  H    0.029860
    76  H    0.021967
    77  H    0.152738
    78  H    0.059152
    79  H   -0.005242
 Sum of Mulliken charges =  -0.00000

 Dipole moment (field-independent basis, Debye):
    X=              0.1547    Y=              1.1758    Z=              2.2167  Tot=              2.5140
 Quadrupole moment (field-independent basis, Debye-Ang):
   XX=           -227.5028   YY=           -245.1534   ZZ=           -264.5220
   XY=            -16.9453   XZ=             32.7659   YZ=              3.0284

 Normal termination of Gaussian 16 at Mon Sep 16 14:52:34 2019.
