 Gaussian 16, Revision A.03,
 Gaussian 16:  ES64L-G16RevA.03 25-Dec-2016

 --------------------------
 # td=(NStates=1) B3LYP/SVP
 --------------------------

 --
 TD
 --
 Symbolic Z-matrix:
 Charge =  0 Multiplicity = 1

                         Standard orientation:
 ---------------------------------------------------------------------
 Center     Atomic      Atomic             Coordinates (Angstroms)
 Number     Number       Type             X           Y           Z
 ---------------------------------------------------------------------
      1          8           0        5.533854    0.185782   -3.239906
      2          8           0       -2.883157   -3.103784    3.079007
      3          8           0       -3.516589   -0.890410    2.840126
      4          8           0       -1.639664    7.033603    1.669405
      5          8           0       -0.861070    7.113953   -0.482259
      6          8           0       -1.639049   -3.899402   -0.007729
      7          7           0        2.293545    0.929439    0.549497
      8          7           0        4.520438   -0.401071   -1.253828
      9          7           0       -1.913079    0.722871   -0.390112
     10          7           0       -2.605238   -1.896993   -0.609731
     11          6           0        4.823111   -1.113114   -0.062215
     12          6           0        4.364245   -0.290922    1.165013
     13          6           0        2.950244    0.013539    1.261199
     14          6           0        1.941591   -0.669940    2.148853
     15          6           0        0.632140    0.000930    1.767204
     16          6           0        0.922753    0.917193    0.771500
     17          6           0        6.312069   -1.262607   -0.074785
     18          6           0       -0.666891   -0.181366    2.431032
     19          6           0        6.824445   -0.825932   -1.324557
     20          6           0        0.148770    1.958650    0.274686
     21          6           0       -1.187610    1.880049   -0.359667
     22          6           0        5.606998   -0.267923   -2.190268
     23          6           0       -1.954396    2.930906   -0.857352
     24          6           0        2.146512   -1.782487    3.059611
     25          6           0        7.102623   -1.919978    1.019204
     26          6           0       -3.215436    2.345205   -1.348882
     27          6           0       -1.167789   -1.598140    2.560876
     28          6           0       -3.112294    0.869638   -1.073920
     29          6           0       -1.617068    4.400935   -0.843408
     30          6           0        8.129588   -0.828046   -1.944832
     31          6           0       -1.778530    5.111948    0.464069
     32          6           0       -4.429557    3.042435   -1.831248
     33          6           0       -3.994148   -0.115013   -1.278062
     34          6           0       -2.663152   -1.841947    2.861073
     35          6           0       -3.773279   -1.496850   -1.118201
     36          6           0        9.405258   -0.931259   -1.305907
     37          6           0       -1.329491    6.492899    0.477688
     38          6           0       -4.557530   -2.673819   -1.526925
     39          6           0       -3.819780   -3.828942   -1.142166
     40          6           0       -2.617963   -3.304260   -0.497880
     41          6           0       -5.828558   -2.558486   -2.199043
     42          6           0       -4.197878   -5.250760   -0.977869
     43          6           0       -6.764107   -3.489338   -2.406268
     44          1           0        4.364113   -2.113049   -0.106639
     45          1           0        5.054984    0.719212    1.159086
     46          1           0        4.773054   -0.705249    1.895003
     47          1           0        2.825010    1.368925   -0.110011
     48          1           0        3.529405   -0.466163   -1.769612
     49          1           0       -0.703789    0.403371    3.580742
     50          1           0       -1.394219    0.502467    1.666884
     51          1           0        0.590633    2.979993    0.249273
     52          1           0        3.095131   -2.148077    3.287559
     53          1           0        1.784069   -1.451329    3.986589
     54          1           0        1.658321   -2.729531    2.838449
     55          1           0        6.506813   -2.556026    1.763654
     56          1           0        7.811899   -1.078826    1.723582
     57          1           0        7.852620   -2.686097    0.687156
     58          1           0       -1.026660   -2.222322    1.598877
     59          1           0       -0.526731   -2.176502    3.322744
     60          1           0       -1.558392   -0.048807   -0.234432
     61          1           0       -2.098915    4.742088   -1.701582
     62          1           0       -0.597238    4.489118   -1.467194
     63          1           0        8.095207   -0.295848   -3.129284
     64          1           0       -1.308818    4.724768    1.253946
     65          1           0       -2.838008    5.041310    0.571930
     66          1           0       -4.151577    4.097830   -2.067568
     67          1           0       -5.357984    3.045293   -1.107096
     68          1           0       -4.833763    2.522477   -2.893492
     69          1           0       -4.951371    0.054513   -1.702924
     70          1           0        9.382717   -1.252421   -0.203617
     71          1           0       10.220484   -0.860455   -1.899937
     72          1           0       -3.902601   -3.275423    3.090959
     73          1           0       -5.884371   -1.434547   -2.441200
     74          1           0       -4.941827   -5.327450   -0.214165
     75          1           0       -4.332279   -5.791815   -1.948162
     76          1           0       -3.441975   -5.674603   -0.325357
     77          1           0       -1.239831    7.851919    1.468087
     78          1           0       -7.696376   -3.162023   -2.920172
     79          1           0       -6.591343   -4.483565   -2.233304
 ---------------------------------------------------------------------

 SCF Done:  E(RB3LYP) =  -1947.77529221     A.U. after   19 cycles

 Excitation energies and oscillator strengths:

 Excited State   1:      Singlet-A      1.7623 eV  703.54 nm  f=0.3534  <S**2>=0.000
     153 ->156         0.10370
     154 ->156         0.11685
     155 ->156         0.68687
     155 <-156        -0.13586
 This state for optimization and/or second-order correction.
 Total Energy, E(TD-HF/TD-DFT) =  -1947.71052928
 Copying the excited state density for this state as the 1-particle RhoCI density.

 The electronic state is 1-A.
 Alpha  occ. eigenvalues --  -19.19785 -19.18921 -19.13976 -19.12424 -19.10278
 Alpha  occ. eigenvalues --  -19.09994 -14.38087 -14.35365 -14.35270 -14.27542
 Alpha  occ. eigenvalues --  -10.32973 -10.30691 -10.29508 -10.25630 -10.24884
 Alpha  occ. eigenvalues --  -10.24412 -10.24126 -10.23726 -10.23486 -10.23229
 Alpha  occ. eigenvalues --  -10.22639 -10.22623 -10.22295 -10.22281 -10.22208
 Alpha  occ. eigenvalues --  -10.21830 -10.21670 -10.21349 -10.20930 -10.20874
 Alpha  occ. eigenvalues --  -10.20823 -10.20807 -10.20459 -10.20364 -10.20325
 Alpha  occ. eigenvalues --  -10.19884 -10.19749 -10.19636 -10.19288 -10.19021
 Alpha  occ. eigenvalues --  -10.18522 -10.18470 -10.17879  -1.12508  -1.08845
 Alpha  occ. eigenvalues --   -1.07393  -1.01450  -0.99893  -0.99521  -0.98856
 Alpha  occ. eigenvalues --   -0.95827  -0.94036  -0.91140  -0.83611  -0.82212
 Alpha  occ. eigenvalues --   -0.80971  -0.80360  -0.80213  -0.79885  -0.79197
 Alpha  occ. eigenvalues --   -0.77206  -0.75985  -0.75285  -0.74533  -0.73089
 Alpha  occ. eigenvalues --   -0.71686  -0.70275  -0.70026  -0.69905  -0.68775
 Alpha  occ. eigenvalues --   -0.67092  -0.66683  -0.64204  -0.61205  -0.61009
 Alpha  occ. eigenvalues --   -0.60581  -0.59848  -0.58385  -0.57265  -0.57099
 Alpha  occ. eigenvalues --   -0.56308  -0.56032  -0.54598  -0.53873  -0.52910
 Alpha  occ. eigenvalues --   -0.52341  -0.51734  -0.51620  -0.50906  -0.50555
 Alpha  occ. eigenvalues --   -0.50418  -0.49152  -0.47696  -0.47626  -0.47386
 Alpha  occ. eigenvalues --   -0.46953  -0.46780  -0.46690  -0.45983  -0.45668
 Alpha  occ. eigenvalues --   -0.45250  -0.44915  -0.44745  -0.44543  -0.44136
 Alpha  occ. eigenvalues --   -0.43545  -0.43401  -0.43114  -0.42886  -0.42884
 Alpha  occ. eigenvalues --   -0.42380  -0.42070  -0.41661  -0.41546  -0.41291
 Alpha  occ. eigenvalues --   -0.41086  -0.40802  -0.40569  -0.40501  -0.40177
 Alpha  occ. eigenvalues --   -0.39689  -0.39542  -0.39217  -0.39053  -0.38703
 Alpha  occ. eigenvalues --   -0.38428  -0.38360  -0.37850  -0.37480  -0.36612
 Alpha  occ. eigenvalues --   -0.35853  -0.35724  -0.34668  -0.34048  -0.33872
 Alpha  occ. eigenvalues --   -0.33527  -0.33077  -0.32981  -0.31797  -0.31138
 Alpha  occ. eigenvalues --   -0.30232  -0.29521  -0.29483  -0.28091  -0.27693
 Alpha  occ. eigenvalues --   -0.26418  -0.25965  -0.25246  -0.25153  -0.24517
 Alpha  occ. eigenvalues --   -0.23586  -0.23439  -0.22598  -0.21579  -0.18331
 Alpha virt. eigenvalues --   -0.11490  -0.07624  -0.07423  -0.01420  -0.00637
 Alpha virt. eigenvalues --    0.00146   0.00806   0.01597   0.02529   0.02868
 Alpha virt. eigenvalues --    0.03487   0.03585   0.03733   0.04786   0.05062

 Mulliken charges:
               1
     1  O   -0.119432
     2  O   -0.159610
     3  O   -0.302414
     4  O   -0.131962
     5  O   -0.248232
     6  O   -0.228499
     7  N    0.018764
     8  N   -0.299270
     9  N    0.061935
    10  N   -0.269727
    11  C    0.126184
    12  C    0.244424
    13  C   -0.091522
    14  C   -0.140048
    15  C   -0.042840
    16  C    0.106358
    17  C   -0.139058
    18  C   -0.022751
    19  C   -0.077322
    20  C   -0.121419
    21  C    0.029666
    22  C    0.150907
    23  C   -0.125914
    24  C    0.145197
    25  C   -0.034750
    26  C   -0.106458
    27  C   -0.057354
    28  C    0.172576
    29  C    0.072736
    30  C   -0.109071
    31  C    0.180023
    32  C   -0.002478
    33  C   -0.075502
    34  C    0.157533
    35  C    0.034798
    36  C    0.001551
    37  C    0.110255
    38  C    0.031968
    39  C   -0.221584
    40  C    0.147682
    41  C   -0.035006
    42  C    0.134240
    43  C    0.023884
    44  H    0.025674
    45  H    0.011763
    46  H   -0.110433
    47  H    0.077563
    48  H    0.161294
    49  H    0.039749
    50  H    0.053282
    51  H    0.005492
    52  H   -0.036735
    53  H    0.001958
    54  H    0.031940
    55  H    0.034439
    56  H    0.065256
    57  H    0.051510
    58  H    0.086859
    59  H    0.027595
    60  H    0.029692
    61  H   -0.022615
    62  H    0.020051
    63  H    0.062285
    64  H   -0.002511
    65  H    0.039906
    66  H    0.022589
    67  H    0.061759
    68  H    0.045839
    69  H   -0.056294
    70  H    0.037515
    71  H    0.010726
    72  H    0.212167
    73  H   -0.000786
    74  H    0.006388
    75  H    0.047324
    76  H   -0.000298
    77  H    0.143098
    78  H    0.032352
    79  H   -0.004852
 Sum of Mulliken charges =  -0.00000

 Dipole moment (field-independent basis, Debye):
    X=              0.9432    Y=              0.4444    Z=              2.4964  Tot=              2.7054
 Quadrupole moment (field-independent basis, Debye-Ang):
   XX=           -220.1600   YY=           -244.6700   ZZ=           -261.2221
   XY=             -6.1691   XZ=             28.7100   YZ=              2.1775

 Normal termination of Gaussian 16 at Fri Oct  4 21:59:55 2019.
