 Gaussian 16, Revision A.03,
 Gaussian 16:  ES64L-G16RevA.03 25-Dec-2016

 --------------------------
 # td=(NStates=1) B3LYP/SVP
 --------------------------

 --
 TD
 --
 Symbolic Z-matrix:
 Charge =  0 Multiplicity = 1

                         Standard orientation:
 ---------------------------------------------------------------------
 Center     Atomic      Atomic             Coordinates (Angstroms)
 Number     Number       Type             X           Y           Z
 ---------------------------------------------------------------------
      1          8           0       -3.229116   -1.618836   -2.634946
      2          8           0        2.541639    3.822162    2.823504
      3          8           0        3.314975    2.259229    4.252636
      4          8           0        7.673825   -1.466937   -0.262818
      5          8           0        6.892902   -3.157048   -1.522767
      6          8           0       -2.415962    1.676120    1.329484
      7          7           0       -0.235972   -2.189933    1.218881
      8          7           0       -2.545512   -1.281042   -0.455693
      9          7           0        1.233133    0.023655   -0.797154
     10          7           0       -1.057229    1.332541   -0.532689
     11          6           0       -3.368295   -1.264735    0.720434
     12          6           0       -2.609665   -2.125032    1.993699
     13          6           0       -1.194798   -1.816268    2.045131
     14          6           0       -0.498418   -0.907839    3.032226
     15          6           0        0.818560   -0.828599    2.610793
     16          6           0        1.035261   -1.684148    1.471199
     17          6           0       -4.615894   -1.926252    0.525067
     18          6           0        1.844473    0.123550    3.252789
     19          6           0       -4.733500   -2.196656   -0.842482
     20          6           0        2.292623   -1.757844    0.596284
     21          6           0        2.257217   -0.840974   -0.543345
     22          6           0       -3.506726   -1.658801   -1.436820
     23          6           0        3.159570   -0.894845   -1.628191
     24          6           0       -1.262732    0.103861    3.880250
     25          6           0       -5.670949   -2.142366    1.610121
     26          6           0        2.575698    0.070161   -2.586124
     27          6           0        1.631484    1.531252    2.683338
     28          6           0        1.356180    0.644707   -1.993173
     29          6           0        4.314447   -1.816110   -1.882478
     30          6           0       -5.677785   -2.885228   -1.707917
     31          6           0        5.422317   -1.231263   -1.059852
     32          6           0        3.048610    0.489810   -3.957105
     33          6           0        0.542918    1.671974   -2.464252
     34          6           0        2.563627    2.559446    3.435024
     35          6           0       -0.619884    2.001532   -1.609216
     36          6           0       -6.742463   -3.631784   -1.305836
     37          6           0        6.719132   -2.018785   -1.011799
     38          6           0       -1.498711    3.139024   -1.722258
     39          6           0       -2.408511    3.320146   -0.614984
     40          6           0       -2.022070    2.078993    0.217616
     41          6           0       -1.331111    4.183787   -2.893981
     42          6           0       -3.364752    4.202518   -0.208061
     43          6           0       -2.143722    5.137727   -3.239471
     44          1           0       -3.391459   -0.178469    1.166653
     45          1           0       -2.716679   -3.060926    1.558316
     46          1           0       -3.042480   -1.826553    2.897624
     47          1           0       -0.164393   -2.710307    0.275220
     48          1           0       -1.850553   -0.557536   -0.655445
     49          1           0        1.920930    0.128384    4.330194
     50          1           0        2.856947   -0.462814    3.052932
     51          1           0        3.001379   -2.473305    0.681535
     52          1           0       -1.968822   -0.474354    4.540783
     53          1           0       -0.755457    0.550638    4.687107
     54          1           0       -1.855576    0.653786    3.069622
     55          1           0       -5.243201   -1.222725    2.100833
     56          1           0       -5.513222   -2.896054    2.216450
     57          1           0       -6.720789   -1.962778    1.181206
     58          1           0        1.769683    1.633817    1.553268
     59          1           0        0.620485    1.794233    2.862053
     60          1           0        0.296589    0.401308   -0.294111
     61          1           0        4.376281   -2.032241   -2.886349
     62          1           0        3.983825   -2.869004   -1.623580
     63          1           0       -5.308728   -2.868676   -2.698529
     64          1           0        5.207930   -1.344105   -0.079020
     65          1           0        5.801612   -0.288929   -1.432351
     66          1           0        4.104968   -0.038567   -4.144729
     67          1           0        3.117191    1.507977   -3.884376
     68          1           0        2.492003   -0.004931   -4.838337
     69          1           0        0.710301    2.096540   -3.445468
     70          1           0       -7.070446   -3.488392   -0.239662
     71          1           0       -7.526774   -3.843066   -2.042518
     72          1           0        3.385284    4.105175    3.136961
     73          1           0       -0.539228    3.687682   -3.631183
     74          1           0       -4.266362    4.295479   -0.870424
     75          1           0       -3.888204    3.702163    0.674221
     76          1           0       -3.028131    5.371882   -0.073756
     77          1           0        8.406525   -1.921807   -0.534107
     78          1           0       -2.245304    5.901677   -4.075391
     79          1           0       -2.815956    5.594958   -2.649565
 ---------------------------------------------------------------------

 SCF Done:  E(RB3LYP) =  -1947.76840043     A.U. after   23 cycles

 Excitation energies and oscillator strengths:

 Excited State   1:      Singlet-A      0.3600 eV 3443.79 nm  f=0.0004  <S**2>=0.000
     155 ->156         0.70401
 This state for optimization and/or second-order correction.
 Total Energy, E(TD-HF/TD-DFT) =  -1947.75516984
 Copying the excited state density for this state as the 1-particle RhoCI density.

 The electronic state is 1-A.
 Alpha  occ. eigenvalues --  -19.19834 -19.16539 -19.14402 -19.13504 -19.13271
 Alpha  occ. eigenvalues --  -19.07659 -14.37638 -14.37127 -14.32622 -14.32240
 Alpha  occ. eigenvalues --  -10.33328 -10.31202 -10.30418 -10.26704 -10.26256
 Alpha  occ. eigenvalues --  -10.26217 -10.26037 -10.23691 -10.23252 -10.23117
 Alpha  occ. eigenvalues --  -10.23055 -10.22625 -10.22499 -10.22493 -10.22447
 Alpha  occ. eigenvalues --  -10.22179 -10.22049 -10.22036 -10.21527 -10.21061
 Alpha  occ. eigenvalues --  -10.20506 -10.20354 -10.20094 -10.19804 -10.19623
 Alpha  occ. eigenvalues --  -10.18758 -10.18693 -10.18635 -10.18412 -10.18253
 Alpha  occ. eigenvalues --  -10.17018 -10.16537 -10.16274  -1.12756  -1.10588
 Alpha  occ. eigenvalues --   -1.03572  -1.01859  -0.99874  -0.99846  -0.99796
 Alpha  occ. eigenvalues --   -0.96517  -0.94228  -0.91780  -0.84806  -0.82037
 Alpha  occ. eigenvalues --   -0.81350  -0.80962  -0.79488  -0.79001  -0.78349
 Alpha  occ. eigenvalues --   -0.77742  -0.76130  -0.75043  -0.74069  -0.73279
 Alpha  occ. eigenvalues --   -0.71777  -0.70961  -0.69976  -0.68994  -0.67584
 Alpha  occ. eigenvalues --   -0.66357  -0.64406  -0.63732  -0.62431  -0.61805
 Alpha  occ. eigenvalues --   -0.60443  -0.59170  -0.58658  -0.56782  -0.56049
 Alpha  occ. eigenvalues --   -0.55645  -0.55269  -0.54632  -0.54345  -0.52856
 Alpha  occ. eigenvalues --   -0.52525  -0.51893  -0.51588  -0.50484  -0.50012
 Alpha  occ. eigenvalues --   -0.49871  -0.49332  -0.48829  -0.48686  -0.48348
 Alpha  occ. eigenvalues --   -0.47876  -0.47331  -0.47056  -0.46666  -0.46293
 Alpha  occ. eigenvalues --   -0.45849  -0.45455  -0.45193  -0.45087  -0.44920
 Alpha  occ. eigenvalues --   -0.44284  -0.44009  -0.43647  -0.43428  -0.43234
 Alpha  occ. eigenvalues --   -0.42715  -0.42061  -0.41914  -0.41469  -0.41381
 Alpha  occ. eigenvalues --   -0.40932  -0.40673  -0.40572  -0.40142  -0.39828
 Alpha  occ. eigenvalues --   -0.39641  -0.39059  -0.38648  -0.38598  -0.38229
 Alpha  occ. eigenvalues --   -0.37951  -0.37488  -0.37102  -0.36708  -0.36187
 Alpha  occ. eigenvalues --   -0.35818  -0.35509  -0.34579  -0.34242  -0.33780
 Alpha  occ. eigenvalues --   -0.33512  -0.32999  -0.32836  -0.32525  -0.31840
 Alpha  occ. eigenvalues --   -0.30376  -0.30327  -0.29842  -0.29133  -0.28488
 Alpha  occ. eigenvalues --   -0.28367  -0.27239  -0.26179  -0.24500  -0.23924
 Alpha  occ. eigenvalues --   -0.23164  -0.22584  -0.22357  -0.22070  -0.17596
 Alpha virt. eigenvalues --   -0.13775  -0.09229  -0.05186  -0.01775  -0.01311
 Alpha virt. eigenvalues --    0.01154   0.01552   0.02456   0.02835   0.03144
 Alpha virt. eigenvalues --    0.03618   0.03995   0.04869   0.05209   0.05407

 Mulliken charges:
               1
     1  O   -0.254609
     2  O   -0.208634
     3  O   -0.154949
     4  O   -0.115648
     5  O   -0.273639
     6  O   -0.217107
     7  N   -0.029537
     8  N   -0.186348
     9  N   -0.119296
    10  N   -0.376520
    11  C   -0.084969
    12  C    0.334619
    13  C   -0.165670
    14  C   -0.143683
    15  C   -0.114321
    16  C   -0.060578
    17  C   -0.149334
    18  C    0.083815
    19  C   -0.052331
    20  C   -0.019759
    21  C    0.082136
    22  C    0.118768
    23  C   -0.104853
    24  C    0.082230
    25  C    0.144321
    26  C   -0.169708
    27  C    0.000971
    28  C    0.097887
    29  C    0.143736
    30  C    0.007415
    31  C    0.135852
    32  C    0.066199
    33  C   -0.076275
    34  C    0.126131
    35  C    0.144936
    36  C   -0.023820
    37  C    0.080795
    38  C   -0.044766
    39  C   -0.114722
    40  C    0.214727
    41  C    0.046560
    42  C   -0.008752
    43  C   -0.021296
    44  H    0.078647
    45  H   -0.050431
    46  H   -0.029200
    47  H    0.143395
    48  H    0.141171
    49  H    0.003890
    50  H   -0.001481
    51  H   -0.021934
    52  H   -0.015547
    53  H   -0.011890
    54  H    0.087287
    55  H    0.020554
    56  H   -0.000501
    57  H    0.061345
    58  H    0.040655
    59  H    0.029890
    60  H    0.233571
    61  H   -0.015222
    62  H    0.024641
    63  H   -0.012876
    64  H    0.013899
    65  H    0.043059
    66  H    0.023039
    67  H    0.027622
    68  H    0.061070
    69  H    0.005017
    70  H    0.009349
    71  H    0.027578
    72  H    0.145910
    73  H    0.017797
    74  H    0.041098
    75  H    0.038670
    76  H    0.069838
    77  H    0.145231
    78  H    0.032643
    79  H   -0.027756
 Sum of Mulliken charges =  -0.00000

 Dipole moment (field-independent basis, Debye):
    X=              2.4223    Y=              3.8461    Z=             -2.1948  Tot=              5.0475
 Quadrupole moment (field-independent basis, Debye-Ang):
   XX=           -231.6034   YY=           -247.8290   ZZ=           -264.2956
   XY=             -4.0733   XZ=            -22.2145   YZ=            -18.0083

 Normal termination of Gaussian 16 at Wed Jul 31 06:49:59 2019.
