 Gaussian 16, Revision A.03,
 Gaussian 16:  ES64L-G16RevA.03 25-Dec-2016

 --------------------------
 # td=(NStates=1) B3LYP/SVP
 --------------------------

 --
 TD
 --
 Symbolic Z-matrix:
 Charge =  0 Multiplicity = 1

                         Standard orientation:
 ---------------------------------------------------------------------
 Center     Atomic      Atomic             Coordinates (Angstroms)
 Number     Number       Type             X           Y           Z
 ---------------------------------------------------------------------
      1          8           0       -3.261424   -1.451349   -2.837794
      2          8           0        3.070583    3.185325    3.270765
      3          8           0        3.714220    1.360836    4.421338
      4          8           0        7.719547   -1.539334   -0.725401
      5          8           0        6.783748   -3.010877   -2.036690
      6          8           0       -2.560846    1.693109    1.488933
      7          7           0       -0.217285   -2.258935    0.947449
      8          7           0       -2.717099   -1.169487   -0.576130
      9          7           0        1.095889    0.171336   -0.743751
     10          7           0       -1.061819    1.417125   -0.260147
     11          6           0       -3.412185   -1.263582    0.608046
     12          6           0       -2.737653   -2.251606    1.704385
     13          6           0       -1.198779   -1.851294    1.849889
     14          6           0       -0.541875   -1.144960    2.831231
     15          6           0        0.766604   -1.029080    2.615386
     16          6           0        0.983717   -1.858704    1.448555
     17          6           0       -4.726724   -1.839541    0.233806
     18          6           0        1.856696   -0.239160    3.223784
     19          6           0       -4.822069   -2.009070   -1.080188
     20          6           0        2.075364   -1.906311    0.457009
     21          6           0        2.001662   -0.886094   -0.593297
     22          6           0       -3.629352   -1.463916   -1.661314
     23          6           0        2.992342   -0.793378   -1.771646
     24          6           0       -1.377897   -0.443279    3.902401
     25          6           0       -5.722933   -2.132481    1.379774
     26          6           0        2.534406    0.418909   -2.496956
     27          6           0        1.963898    1.237838    2.758859
     28          6           0        1.346585    0.899674   -1.794795
     29          6           0        4.192292   -1.624769   -1.990523
     30          6           0       -5.816704   -2.585049   -1.962733
     31          6           0        5.487444   -1.061623   -1.372720
     32          6           0        3.090504    0.989802   -3.669615
     33          6           0        0.524879    2.026129   -2.042279
     34          6           0        3.051122    1.926436    3.586252
     35          6           0       -0.565753    2.245255   -1.282829
     36          6           0       -6.687296   -3.592738   -1.544749
     37          6           0        6.694232   -1.986193   -1.451790
     38          6           0       -1.415917    3.529537   -1.330447
     39          6           0       -2.212694    3.393917   -0.171722
     40          6           0       -1.942566    2.070684    0.444761
     41          6           0       -1.457339    4.436683   -2.476865
     42          6           0       -3.392257    4.400730    0.131618
     43          6           0       -2.104993    5.565199   -2.551432
     44          1           0       -3.451181   -0.275524    1.156879
     45          1           0       -2.634098   -3.252943    1.132772
     46          1           0       -3.315694   -2.174585    2.620725
     47          1           0       -0.500593   -2.981037    0.071762
     48          1           0       -1.938765   -0.463193   -0.785059
     49          1           0        1.478042   -0.475248    4.434657
     50          1           0        2.863219   -0.729953    3.106210
     51          1           0        2.829560   -2.655978    0.595941
     52          1           0       -1.956129   -1.306358    4.685284
     53          1           0       -0.746732    0.094982    4.668111
     54          1           0       -2.229901    0.172808    3.355180
     55          1           0       -5.639543   -1.396471    2.147724
     56          1           0       -5.501329   -3.177000    1.726337
     57          1           0       -6.864292   -2.035385    0.964825
     58          1           0        2.311182    1.036501    1.807191
     59          1           0        0.955079    1.686499    2.703872
     60          1           0        0.219448    0.235866   -0.206564
     61          1           0        4.435615   -1.583185   -3.122694
     62          1           0        4.160683   -2.565600   -1.850337
     63          1           0       -5.932577   -2.202395   -3.081839
     64          1           0        5.288594   -0.825389   -0.319205
     65          1           0        5.722627   -0.144671   -2.045537
     66          1           0        3.877963    0.183468   -4.210643
     67          1           0        3.661581    2.034209   -3.594999
     68          1           0        2.410869    1.130323   -4.596540
     69          1           0        0.792623    2.591823   -2.866733
     70          1           0       -6.715935   -4.165827   -0.521178
     71          1           0       -7.329165   -3.948464   -2.394527
     72          1           0        3.996600    3.538034    3.508411
     73          1           0       -0.966749    4.346177   -3.502799
     74          1           0       -4.014935    4.519516   -0.806055
     75          1           0       -4.042045    3.767669    1.076749
     76          1           0       -3.112296    5.168419    0.686878
     77          1           0        8.522908   -2.240715   -1.018983
     78          1           0       -2.201223    5.929302   -3.590181
     79          1           0       -2.638397    6.074559   -1.735932
 ---------------------------------------------------------------------

 SCF Done:  E(RB3LYP) =  -1947.78924054     A.U. after   20 cycles

 Excitation energies and oscillator strengths:

 Excited State   1:      Singlet-A      1.0197 eV 1215.93 nm  f=0.0198  <S**2>=0.000
     155 ->156         0.70510
 This state for optimization and/or second-order correction.
 Total Energy, E(TD-HF/TD-DFT) =  -1947.75176861
 Copying the excited state density for this state as the 1-particle RhoCI density.

 The electronic state is 1-A.
 Alpha  occ. eigenvalues --  -19.19872 -19.19499 -19.14106 -19.12453 -19.09802
 Alpha  occ. eigenvalues --  -19.07904 -14.38560 -14.38379 -14.31786 -14.30218
 Alpha  occ. eigenvalues --  -10.33183 -10.31846 -10.27542 -10.26941 -10.26658
 Alpha  occ. eigenvalues --  -10.25915 -10.25106 -10.24884 -10.24683 -10.23789
 Alpha  occ. eigenvalues --  -10.23688 -10.23436 -10.21689 -10.21249 -10.21173
 Alpha  occ. eigenvalues --  -10.21162 -10.20977 -10.20723 -10.20683 -10.20560
 Alpha  occ. eigenvalues --  -10.20356 -10.20345 -10.20315 -10.20148 -10.20114
 Alpha  occ. eigenvalues --  -10.19867 -10.19686 -10.19418 -10.19379 -10.19252
 Alpha  occ. eigenvalues --  -10.17903 -10.17615 -10.16344  -1.11712  -1.11231
 Alpha  occ. eigenvalues --   -1.01729  -1.01352  -1.01276  -0.99614  -0.99489
 Alpha  occ. eigenvalues --   -0.96907  -0.92198  -0.92023  -0.84354  -0.82372
 Alpha  occ. eigenvalues --   -0.80856  -0.80709  -0.80264  -0.79856  -0.78376
 Alpha  occ. eigenvalues --   -0.76264  -0.75506  -0.75161  -0.73745  -0.72365
 Alpha  occ. eigenvalues --   -0.70470  -0.69797  -0.69392  -0.68640  -0.67037
 Alpha  occ. eigenvalues --   -0.65731  -0.64479  -0.62640  -0.61059  -0.60195
 Alpha  occ. eigenvalues --   -0.60129  -0.59334  -0.58368  -0.58260  -0.57191
 Alpha  occ. eigenvalues --   -0.55623  -0.55071  -0.54464  -0.53391  -0.52066
 Alpha  occ. eigenvalues --   -0.51682  -0.51533  -0.50663  -0.50223  -0.49863
 Alpha  occ. eigenvalues --   -0.49671  -0.49548  -0.49420  -0.49081  -0.48695
 Alpha  occ. eigenvalues --   -0.47697  -0.47290  -0.46701  -0.46423  -0.45657
 Alpha  occ. eigenvalues --   -0.45424  -0.45051  -0.44667  -0.44521  -0.44188
 Alpha  occ. eigenvalues --   -0.43706  -0.42906  -0.42798  -0.42417  -0.42322
 Alpha  occ. eigenvalues --   -0.42060  -0.41857  -0.41179  -0.40981  -0.40839
 Alpha  occ. eigenvalues --   -0.40500  -0.40293  -0.39997  -0.39771  -0.39162
 Alpha  occ. eigenvalues --   -0.38632  -0.37815  -0.37487  -0.37334  -0.37047
 Alpha  occ. eigenvalues --   -0.36904  -0.36749  -0.36510  -0.36263  -0.35786
 Alpha  occ. eigenvalues --   -0.35593  -0.35176  -0.34896  -0.34118  -0.33795
 Alpha  occ. eigenvalues --   -0.33686  -0.32990  -0.32729  -0.32555  -0.31927
 Alpha  occ. eigenvalues --   -0.31278  -0.29909  -0.29573  -0.28574  -0.28229
 Alpha  occ. eigenvalues --   -0.27841  -0.26944  -0.24668  -0.23982  -0.23655
 Alpha  occ. eigenvalues --   -0.23246  -0.23167  -0.22465  -0.22334  -0.19097
 Alpha virt. eigenvalues --   -0.12991  -0.07592  -0.03974  -0.01531  -0.00661
 Alpha virt. eigenvalues --    0.00427   0.00462   0.00812   0.01324   0.01469
 Alpha virt. eigenvalues --    0.02211   0.02782   0.03604   0.04112   0.04656

 Mulliken charges:
               1
     1  O   -0.250994
     2  O   -0.155727
     3  O   -0.215523
     4  O   -0.234559
     5  O   -0.203854
     6  O   -0.287002
     7  N   -0.150022
     8  N   -0.238127
     9  N   -0.025808
    10  N   -0.305581
    11  C    0.034145
    12  C    0.195565
    13  C   -0.086827
    14  C   -0.096114
    15  C   -0.046476
    16  C   -0.043885
    17  C   -0.166621
    18  C   -0.020519
    19  C    0.007076
    20  C   -0.038688
    21  C    0.086026
    22  C    0.125001
    23  C   -0.063437
    24  C   -0.037887
    25  C    0.052491
    26  C   -0.060516
    27  C    0.048579
    28  C    0.079300
    29  C    0.164985
    30  C   -0.063665
    31  C   -0.032008
    32  C   -0.074987
    33  C   -0.061672
    34  C    0.125533
    35  C    0.139620
    36  C   -0.078387
    37  C    0.118440
    38  C    0.084430
    39  C   -0.198468
    40  C    0.177418
    41  C   -0.045512
    42  C    0.057035
    43  C   -0.056557
    44  H    0.061018
    45  H   -0.015538
    46  H    0.002949
    47  H    0.188820
    48  H    0.158268
    49  H    0.037901
    50  H    0.010382
    51  H    0.020304
    52  H    0.009725
    53  H    0.014580
    54  H    0.085855
    55  H    0.025361
    56  H    0.048163
    57  H    0.049132
    58  H    0.001503
    59  H    0.063687
    60  H    0.183873
    61  H    0.018895
    62  H   -0.051887
    63  H    0.052363
    64  H    0.047140
    65  H    0.062378
    66  H    0.036472
    67  H    0.060589
    68  H    0.054087
    69  H   -0.053856
    70  H    0.047514
    71  H    0.028624
    72  H    0.200231
    73  H    0.012391
    74  H    0.064569
    75  H    0.037623
    76  H   -0.002828
    77  H    0.236477
    78  H    0.022725
    79  H    0.024285
 Sum of Mulliken charges =  -0.00000

 Dipole moment (field-independent basis, Debye):
    X=              5.3329    Y=              1.8249    Z=             -2.4508  Tot=              6.1463
 Quadrupole moment (field-independent basis, Debye-Ang):
   XX=           -230.7860   YY=           -239.2376   ZZ=           -269.3946
   XY=              8.0104   XZ=            -20.4835   YZ=            -14.4973

 Normal termination of Gaussian 16 at Thu Jul 25 14:56:18 2019.
