 Gaussian 16, Revision A.03,
 Gaussian 16:  ES64L-G16RevA.03 25-Dec-2016

 --------------------------
 # td=(NStates=1) B3LYP/SVP
 --------------------------

 --
 TD
 --
 Symbolic Z-matrix:
 Charge =  0 Multiplicity = 1

                         Standard orientation:
 ---------------------------------------------------------------------
 Center     Atomic      Atomic             Coordinates (Angstroms)
 Number     Number       Type             X           Y           Z
 ---------------------------------------------------------------------
      1          8           0        5.282456    0.242859   -3.239941
      2          8           0       -2.912334   -2.979182    3.037779
      3          8           0       -3.314296   -0.800972    2.708386
      4          8           0       -1.956157    7.101171    1.632716
      5          8           0       -1.103333    7.184646   -0.468146
      6          8           0       -1.601692   -3.999656    0.190264
      7          7           0        2.387459    1.000371    0.609437
      8          7           0        4.302850   -0.517884   -1.268438
      9          7           0       -1.861152    0.672171   -0.385214
     10          7           0       -2.488293   -1.950132   -0.503773
     11          6           0        4.836557   -1.031182   -0.005387
     12          6           0        4.481146   -0.146717    1.290472
     13          6           0        2.976334    0.074684    1.431462
     14          6           0        2.014833   -0.525875    2.245704
     15          6           0        0.689899    0.003606    1.752125
     16          6           0        1.009906    0.959236    0.800353
     17          6           0        6.256764   -1.225429   -0.175751
     18          6           0       -0.566648   -0.202352    2.548215
     19          6           0        6.622149   -0.821941   -1.398973
     20          6           0        0.168279    1.925060    0.105436
     21          6           0       -1.124590    1.737215   -0.408662
     22          6           0        5.385234   -0.383252   -2.097050
     23          6           0       -2.031770    2.821622   -1.013681
     24          6           0        2.180120   -1.602408    3.258372
     25          6           0        7.168921   -1.899174    0.829237
     26          6           0       -3.111325    2.213495   -1.488318
     27          6           0       -1.052004   -1.616909    2.568087
     28          6           0       -3.073804    0.841421   -1.190044
     29          6           0       -1.585030    4.357443   -0.934207
     30          6           0        7.926406   -0.772725   -2.087342
     31          6           0       -1.917858    5.022922    0.515950
     32          6           0       -4.402294    2.902454   -2.041477
     33          6           0       -3.907745   -0.167460   -1.422529
     34          6           0       -2.543352   -1.803049    2.764144
     35          6           0       -3.559116   -1.581905   -1.095406
     36          6           0        9.108766   -0.531882   -1.425067
     37          6           0       -1.668532    6.528907    0.419454
     38          6           0       -4.408261   -2.757008   -1.357397
     39          6           0       -3.761607   -3.896335   -0.908403
     40          6           0       -2.518782   -3.315119   -0.346713
     41          6           0       -5.689492   -2.657845   -2.040299
     42          6           0       -4.053535   -5.332175   -0.942352
     43          6           0       -6.410582   -3.681615   -2.391905
     44          1           0        4.244223   -2.099261    0.111305
     45          1           0        4.832431    0.743149    1.183992
     46          1           0        4.885945   -0.572747    2.046840
     47          1           0        2.662066    1.687881   -0.075414
     48          1           0        3.279600   -0.129520   -1.535397
     49          1           0       -0.467102    0.145196    3.482370
     50          1           0       -1.341581    0.438494    2.166925
     51          1           0        0.477868    2.927180    0.002910
     52          1           0        3.267818   -1.529566    3.809057
     53          1           0        1.581747   -1.026216    3.969035
     54          1           0        1.913172   -2.625821    3.174245
     55          1           0        6.675135   -2.793319    1.319688
     56          1           0        7.555610   -1.423864    1.825213
     57          1           0        8.300447   -1.974311    0.331313
     58          1           0       -0.745579   -2.234806    1.639009
     59          1           0       -0.504027   -2.215881    3.390502
     60          1           0       -1.837977   -0.181102   -0.194529
     61          1           0       -1.963474    4.762816   -1.839188
     62          1           0       -0.630238    4.378191   -1.072405
     63          1           0        7.872114   -0.836345   -3.224140
     64          1           0       -1.596380    4.399954    1.255028
     65          1           0       -3.030544    4.984856    0.654710
     66          1           0       -4.121322    3.864734   -2.099192
     67          1           0       -5.061978    2.857624   -1.565235
     68          1           0       -4.800954    2.374460   -3.055342
     69          1           0       -4.944308   -0.019373   -1.850191
     70          1           0        8.957322   -0.414400   -0.273106
     71          1           0        9.958616   -0.601117   -2.106440
     72          1           0       -3.886347   -2.873936    2.822434
     73          1           0       -6.042663   -1.709222   -2.110130
     74          1           0       -5.164638   -5.608554   -0.752366
     75          1           0       -3.978741   -5.794666   -1.959723
     76          1           0       -3.417003   -5.948438   -0.388676
     77          1           0       -1.843950    8.063260    1.694193
     78          1           0       -7.285109   -3.482018   -2.912635
     79          1           0       -5.977315   -4.570178   -2.465509
 ---------------------------------------------------------------------

 SCF Done:  E(RB3LYP) =  -1947.68888002     A.U. after   18 cycles

 Excitation energies and oscillator strengths:

 Excited State   1:      Singlet-A      1.8564 eV  667.89 nm  f=0.3224  <S**2>=0.000
     155 ->156         0.70609
     155 <-156        -0.11342
 This state for optimization and/or second-order correction.
 Total Energy, E(TD-HF/TD-DFT) =  -1947.62065973
 Copying the excited state density for this state as the 1-particle RhoCI density.

 The electronic state is 1-A.
 Alpha  occ. eigenvalues --  -19.19358 -19.18500 -19.13891 -19.11617 -19.10188
 Alpha  occ. eigenvalues --  -19.07746 -14.37754 -14.35922 -14.35104 -14.29968
 Alpha  occ. eigenvalues --  -10.34024 -10.30575 -10.27540 -10.27512 -10.25514
 Alpha  occ. eigenvalues --  -10.24584 -10.24575 -10.24423 -10.22657 -10.22645
 Alpha  occ. eigenvalues --  -10.22616 -10.22309 -10.22010 -10.21889 -10.20877
 Alpha  occ. eigenvalues --  -10.20795 -10.20787 -10.20733 -10.20725 -10.20601
 Alpha  occ. eigenvalues --  -10.20597 -10.20504 -10.20311 -10.19915 -10.19775
 Alpha  occ. eigenvalues --  -10.19406 -10.19339 -10.18986 -10.18730 -10.18706
 Alpha  occ. eigenvalues --  -10.18513 -10.17916 -10.17024  -1.12289  -1.08891
 Alpha  occ. eigenvalues --   -1.01091  -1.00062  -0.99596  -0.98525  -0.97736
 Alpha  occ. eigenvalues --   -0.97031  -0.94571  -0.91385  -0.83379  -0.82343
 Alpha  occ. eigenvalues --   -0.82179  -0.81735  -0.80827  -0.79949  -0.78703
 Alpha  occ. eigenvalues --   -0.77200  -0.76591  -0.75881  -0.74997  -0.74230
 Alpha  occ. eigenvalues --   -0.71691  -0.71142  -0.70823  -0.70676  -0.69064
 Alpha  occ. eigenvalues --   -0.67483  -0.66826  -0.65270  -0.62800  -0.62059
 Alpha  occ. eigenvalues --   -0.60944  -0.59905  -0.58889  -0.58519  -0.57399
 Alpha  occ. eigenvalues --   -0.56936  -0.56251  -0.55539  -0.54679  -0.53988
 Alpha  occ. eigenvalues --   -0.53539  -0.52165  -0.51802  -0.50235  -0.49784
 Alpha  occ. eigenvalues --   -0.49470  -0.49103  -0.48353  -0.48278  -0.47934
 Alpha  occ. eigenvalues --   -0.47847  -0.47634  -0.47047  -0.46417  -0.46330
 Alpha  occ. eigenvalues --   -0.45584  -0.45178  -0.44822  -0.44650  -0.44278
 Alpha  occ. eigenvalues --   -0.44036  -0.43946  -0.43446  -0.43201  -0.42829
 Alpha  occ. eigenvalues --   -0.42572  -0.42016  -0.41885  -0.41430  -0.40928
 Alpha  occ. eigenvalues --   -0.40756  -0.40653  -0.40282  -0.40144  -0.39909
 Alpha  occ. eigenvalues --   -0.39653  -0.39091  -0.38990  -0.38709  -0.38083
 Alpha  occ. eigenvalues --   -0.38027  -0.37597  -0.37146  -0.36813  -0.36499
 Alpha  occ. eigenvalues --   -0.36189  -0.36008  -0.35852  -0.35347  -0.34833
 Alpha  occ. eigenvalues --   -0.34725  -0.33914  -0.32762  -0.32029  -0.31340
 Alpha  occ. eigenvalues --   -0.30324  -0.30218  -0.29466  -0.29126  -0.28008
 Alpha  occ. eigenvalues --   -0.26798  -0.26014  -0.25121  -0.25082  -0.24815
 Alpha  occ. eigenvalues --   -0.23813  -0.23489  -0.23131  -0.23048  -0.19042
 Alpha virt. eigenvalues --   -0.11778  -0.06463  -0.05677  -0.02154  -0.00722
 Alpha virt. eigenvalues --    0.00198   0.01508   0.02134   0.03111   0.03491
 Alpha virt. eigenvalues --    0.03780   0.04165   0.04450   0.05007   0.05715

 Mulliken charges:
               1
     1  O   -0.327765
     2  O   -0.094540
     3  O   -0.312821
     4  O   -0.212178
     5  O   -0.238789
     6  O   -0.230290
     7  N   -0.084349
     8  N   -0.228140
     9  N    0.083934
    10  N   -0.180837
    11  C    0.016331
    12  C    0.460401
    13  C   -0.100435
    14  C   -0.142976
    15  C   -0.115652
    16  C    0.059370
    17  C   -0.090173
    18  C    0.198164
    19  C   -0.037334
    20  C   -0.081731
    21  C    0.052445
    22  C    0.152664
    23  C   -0.159602
    24  C    0.055091
    25  C   -0.031202
    26  C   -0.151998
    27  C   -0.071594
    28  C    0.134974
    29  C    0.206707
    30  C   -0.045477
    31  C    0.035837
    32  C    0.352842
    33  C   -0.120281
    34  C    0.118318
    35  C    0.025337
    36  C   -0.026202
    37  C    0.187811
    38  C    0.008647
    39  C   -0.159638
    40  C    0.123074
    41  C    0.001662
    42  C    0.093502
    43  C    0.105262
    44  H    0.047588
    45  H   -0.081026
    46  H   -0.092567
    47  H    0.115815
    48  H    0.184745
    49  H   -0.029412
    50  H   -0.011034
    51  H   -0.037047
    52  H    0.008161
    53  H    0.020130
    54  H    0.050790
    55  H    0.037597
    56  H    0.040293
    57  H    0.054266
    58  H    0.081762
    59  H    0.022397
    60  H    0.004202
    61  H    0.007368
    62  H   -0.046471
    63  H    0.039610
    64  H    0.024864
    65  H    0.040952
    66  H   -0.026113
    67  H   -0.145335
    68  H    0.027483
    69  H    0.003019
    70  H    0.051647
    71  H    0.037747
    72  H    0.187903
    73  H   -0.065127
    74  H    0.028335
    75  H    0.029879
    76  H    0.008726
    77  H    0.188131
    78  H   -0.001588
    79  H   -0.036063
 Sum of Mulliken charges =  -0.00000

 Dipole moment (field-independent basis, Debye):
    X=             -2.4478    Y=              1.1129    Z=              3.2053  Tot=              4.1838
 Quadrupole moment (field-independent basis, Debye-Ang):
   XX=           -218.1179   YY=           -241.1273   ZZ=           -264.0749
   XY=             -7.8081   XZ=             36.5491   YZ=             12.2701

 Normal termination of Gaussian 16 at Mon Sep 16 21:11:38 2019.
