 Gaussian 16, Revision A.03,
 Gaussian 16:  ES64L-G16RevA.03 25-Dec-2016

 --------------------------
 # td=(NStates=1) B3LYP/SVP
 --------------------------

 --
 TD
 --
 Symbolic Z-matrix:
 Charge =  0 Multiplicity = 1

                         Standard orientation:
 ---------------------------------------------------------------------
 Center     Atomic      Atomic             Coordinates (Angstroms)
 Number     Number       Type             X           Y           Z
 ---------------------------------------------------------------------
      1          8           0        5.264416   -0.372770   -3.286533
      2          8           0       -3.065422   -2.777977    3.531320
      3          8           0       -3.416359   -0.613440    3.170375
      4          8           0       -1.937652    7.208594    1.327143
      5          8           0       -0.744987    7.147384   -0.548338
      6          8           0       -1.717612   -3.970070    0.215633
      7          7           0        2.384849    0.917853    0.502862
      8          7           0        4.321032   -0.731542   -1.242321
      9          7           0       -1.770994    0.703995   -0.420168
     10          7           0       -2.635574   -1.851987   -0.336900
     11          6           0        4.747211   -1.183615   -0.018693
     12          6           0        4.453312   -0.314484    1.380320
     13          6           0        3.017014    0.016287    1.379202
     14          6           0        1.988778   -0.573477    2.157684
     15          6           0        0.793486   -0.028836    1.854397
     16          6           0        1.067557    0.984455    0.813512
     17          6           0        6.291746   -1.290387   -0.086923
     18          6           0       -0.591872   -0.120149    2.468190
     19          6           0        6.573572   -0.933529   -1.386982
     20          6           0        0.200957    1.960190    0.130500
     21          6           0       -1.070451    1.849153   -0.397826
     22          6           0        5.421813   -0.606559   -2.128052
     23          6           0       -1.836094    2.906627   -0.994365
     24          6           0        2.075836   -1.518305    3.275907
     25          6           0        7.186824   -1.802845    0.957158
     26          6           0       -3.028966    2.318482   -1.403539
     27          6           0       -1.174210   -1.687097    2.563496
     28          6           0       -2.920536    0.796722   -1.129818
     29          6           0       -1.505906    4.404614   -0.973990
     30          6           0        7.828857   -0.768349   -1.998072
     31          6           0       -1.896256    5.067092    0.299736
     32          6           0       -4.224183    2.944546   -1.965240
     33          6           0       -3.873715   -0.155664   -1.415704
     34          6           0       -2.647386   -1.587008    3.099476
     35          6           0       -3.652780   -1.607105   -1.167918
     36          6           0        9.068184   -0.504537   -1.541540
     37          6           0       -1.372531    6.550940    0.246843
     38          6           0       -4.558315   -2.773026   -1.552467
     39          6           0       -3.752939   -3.843103   -1.076586
     40          6           0       -2.570249   -3.341226   -0.414034
     41          6           0       -5.778067   -2.602503   -2.254567
     42          6           0       -4.165844   -5.284444   -1.262107
     43          6           0       -6.516278   -3.644144   -2.554934
     44          1           0        4.219024   -2.229210    0.166643
     45          1           0        5.109706    0.610577    1.033681
     46          1           0        4.809274   -0.798203    2.264238
     47          1           0        2.867496    1.692072    0.024708
     48          1           0        3.414626   -0.436756   -1.507313
     49          1           0       -0.682273    0.475028    3.637135
     50          1           0       -1.277171    0.651578    2.057411
     51          1           0        0.611689    2.912793   -0.122855
     52          1           0        3.059322   -1.681484    3.794355
     53          1           0        1.198654   -1.367782    4.216890
     54          1           0        1.716870   -2.511269    2.761004
     55          1           0        6.727429   -2.448959    1.690867
     56          1           0        7.658657   -1.045740    1.560543
     57          1           0        7.987356   -2.426522    0.667920
     58          1           0       -1.045173   -2.220246    1.727795
     59          1           0       -0.540275   -2.107884    3.355470
     60          1           0       -1.529996   -0.290759   -0.006314
     61          1           0       -2.237798    4.703359   -1.704234
     62          1           0       -0.370503    4.759358   -1.337530
     63          1           0        7.852005   -0.829875   -2.990267
     64          1           0       -1.435660    4.648297    1.369351
     65          1           0       -2.954714    5.238123    0.542782
     66          1           0       -4.117342    4.009145   -2.400677
     67          1           0       -5.054440    3.183038   -1.202251
     68          1           0       -4.631166    2.506318   -2.838953
     69          1           0       -4.657721    0.055202   -2.038448
     70          1           0        9.258996   -0.540820   -0.537078
     71          1           0       10.048447   -0.389732   -2.079911
     72          1           0       -4.004611   -2.712544    3.791411
     73          1           0       -6.087694   -1.683474   -2.553972
     74          1           0       -5.050280   -5.753930   -0.518609
     75          1           0       -4.501772   -5.624310   -2.482031
     76          1           0       -3.375204   -5.972893   -0.729358
     77          1           0       -1.729389    8.135123    1.410044
     78          1           0       -7.558017   -3.709097   -3.073631
     79          1           0       -6.324028   -4.812815   -2.168298
 ---------------------------------------------------------------------

 SCF Done:  E(RB3LYP) =  -1947.80989852     A.U. after   16 cycles

 Excitation energies and oscillator strengths:

 Excited State   1:      Singlet-A      1.7271 eV  717.86 nm  f=0.3401  <S**2>=0.000
     155 ->156         0.70470
     155 <-156        -0.10550
 This state for optimization and/or second-order correction.
 Total Energy, E(TD-HF/TD-DFT) =  -1947.74642702
 Copying the excited state density for this state as the 1-particle RhoCI density.

 The electronic state is 1-A.
 Alpha  occ. eigenvalues --  -19.16860 -19.16795 -19.13913 -19.11386 -19.10866
 Alpha  occ. eigenvalues --  -19.09785 -14.39073 -14.36325 -14.34378 -14.29747
 Alpha  occ. eigenvalues --  -10.32484 -10.31002 -10.27684 -10.27445 -10.25278
 Alpha  occ. eigenvalues --  -10.24533 -10.23655 -10.23334 -10.22996 -10.22942
 Alpha  occ. eigenvalues --  -10.22734 -10.22705 -10.22682 -10.22592 -10.22091
 Alpha  occ. eigenvalues --  -10.21919 -10.21906 -10.21410 -10.21285 -10.21181
 Alpha  occ. eigenvalues --  -10.21151 -10.20935 -10.20763 -10.20650 -10.20506
 Alpha  occ. eigenvalues --  -10.20406 -10.19603 -10.19244 -10.18856 -10.18802
 Alpha  occ. eigenvalues --  -10.18669 -10.18499 -10.18390  -1.09864  -1.08164
 Alpha  occ. eigenvalues --   -1.03808  -1.01291  -1.01279  -0.98621  -0.98228
 Alpha  occ. eigenvalues --   -0.97264  -0.94871  -0.91170  -0.83139  -0.82644
 Alpha  occ. eigenvalues --   -0.81895  -0.81610  -0.80495  -0.78785  -0.77720
 Alpha  occ. eigenvalues --   -0.77117  -0.76039  -0.74600  -0.73931  -0.73154
 Alpha  occ. eigenvalues --   -0.71878  -0.70317  -0.68905  -0.68255  -0.67732
 Alpha  occ. eigenvalues --   -0.66185  -0.65606  -0.63471  -0.62018  -0.60693
 Alpha  occ. eigenvalues --   -0.59897  -0.59651  -0.59419  -0.58010  -0.57617
 Alpha  occ. eigenvalues --   -0.56105  -0.55592  -0.54878  -0.54308  -0.53709
 Alpha  occ. eigenvalues --   -0.51869  -0.51425  -0.50503  -0.50058  -0.49545
 Alpha  occ. eigenvalues --   -0.48583  -0.48185  -0.48060  -0.47792  -0.47525
 Alpha  occ. eigenvalues --   -0.46956  -0.46711  -0.46306  -0.45802  -0.45641
 Alpha  occ. eigenvalues --   -0.45250  -0.45175  -0.44955  -0.44565  -0.43643
 Alpha  occ. eigenvalues --   -0.43446  -0.43128  -0.42676  -0.42624  -0.42517
 Alpha  occ. eigenvalues --   -0.42377  -0.41837  -0.41812  -0.41317  -0.40975
 Alpha  occ. eigenvalues --   -0.40807  -0.40533  -0.40268  -0.39910  -0.39798
 Alpha  occ. eigenvalues --   -0.39381  -0.39189  -0.38487  -0.37915  -0.37731
 Alpha  occ. eigenvalues --   -0.37580  -0.37425  -0.37060  -0.36319  -0.35845
 Alpha  occ. eigenvalues --   -0.35134  -0.34990  -0.34705  -0.34426  -0.34161
 Alpha  occ. eigenvalues --   -0.33911  -0.32793  -0.32664  -0.31870  -0.31504
 Alpha  occ. eigenvalues --   -0.31276  -0.30212  -0.29358  -0.28979  -0.28312
 Alpha  occ. eigenvalues --   -0.26380  -0.26087  -0.25672  -0.25573  -0.24737
 Alpha  occ. eigenvalues --   -0.24562  -0.24082  -0.23264  -0.21965  -0.17984
 Alpha virt. eigenvalues --   -0.11038  -0.06967  -0.06334  -0.00938   0.00143
 Alpha virt. eigenvalues --    0.00596   0.01443   0.01573   0.03106   0.03533
 Alpha virt. eigenvalues --    0.04037   0.04094   0.04384   0.04829   0.05253

 Mulliken charges:
               1
     1  O   -0.181627
     2  O   -0.168206
     3  O   -0.268783
     4  O   -0.225771
     5  O   -0.171237
     6  O   -0.203656
     7  N   -0.072505
     8  N   -0.151798
     9  N   -0.066032
    10  N   -0.331052
    11  C    0.019308
    12  C    0.164076
    13  C   -0.076357
    14  C   -0.071917
    15  C   -0.008329
    16  C    0.038717
    17  C   -0.141755
    18  C   -0.077751
    19  C    0.013785
    20  C   -0.073931
    21  C    0.041764
    22  C    0.124854
    23  C   -0.062587
    24  C   -0.048046
    25  C    0.133299
    26  C   -0.108314
    27  C    0.075290
    28  C    0.125016
    29  C    0.094472
    30  C    0.000246
    31  C   -0.061831
    32  C    0.040931
    33  C   -0.048009
    34  C    0.155200
    35  C    0.026408
    36  C   -0.022047
    37  C    0.124644
    38  C    0.095458
    39  C   -0.132073
    40  C    0.198175
    41  C    0.062518
    42  C   -0.080632
    43  C   -0.105390
    44  H    0.032325
    45  H    0.003358
    46  H   -0.004510
    47  H    0.132781
    48  H    0.112769
    49  H    0.022245
    50  H    0.029485
    51  H   -0.048378
    52  H    0.019031
    53  H    0.059000
    54  H    0.056950
    55  H    0.002996
    56  H    0.024765
    57  H    0.016198
    58  H    0.027368
    59  H    0.020438
    60  H    0.201870
    61  H   -0.000498
    62  H    0.071675
    63  H   -0.042669
    64  H    0.072782
    65  H    0.047702
    66  H    0.008249
    67  H    0.044387
    68  H    0.017533
    69  H   -0.071294
    70  H   -0.034041
    71  H    0.035269
    72  H    0.178619
    73  H   -0.041246
    74  H    0.052186
    75  H    0.071964
    76  H    0.037672
    77  H    0.169792
    78  H    0.040757
    79  H    0.057946
 Sum of Mulliken charges =  -0.00000

 Dipole moment (field-independent basis, Debye):
    X=             -0.6302    Y=              1.5817    Z=              2.5055  Tot=              3.0293
 Quadrupole moment (field-independent basis, Debye-Ang):
   XX=           -210.8062   YY=           -243.4073   ZZ=           -262.8383
   XY=             -2.1375   XZ=             38.7284   YZ=              2.8045

 Normal termination of Gaussian 16 at Fri Oct  4 21:12:26 2019.
