 Gaussian 16, Revision A.03,
 Gaussian 16:  ES64L-G16RevA.03 25-Dec-2016

 --------------------------
 # td=(NStates=1) B3LYP/SVP
 --------------------------

 --
 TD
 --
 Symbolic Z-matrix:
 Charge =  0 Multiplicity = 1

                         Standard orientation:
 ---------------------------------------------------------------------
 Center     Atomic      Atomic             Coordinates (Angstroms)
 Number     Number       Type             X           Y           Z
 ---------------------------------------------------------------------
      1          8           0       -3.423847   -0.658192   -3.051938
      2          8           0        3.280248    2.397032    3.612250
      3          8           0        3.491223    0.439626    4.862382
      4          8           0        7.792524   -1.269391   -1.078079
      5          8           0        6.592113   -2.592770   -2.445075
      6          8           0       -2.601318    1.121587    1.645399
      7          7           0       -0.204105   -2.521746    0.280288
      8          7           0       -2.633466   -1.050158   -0.856890
      9          7           0        1.231760    0.322354   -0.698694
     10          7           0       -1.038845    1.480406    0.136316
     11          6           0       -3.288582   -1.410950    0.347902
     12          6           0       -2.559434   -2.578880    1.044455
     13          6           0       -1.084402   -2.352807    1.208760
     14          6           0       -0.451591   -1.843294    2.414837
     15          6           0        0.876638   -1.628499    2.156422
     16          6           0        0.982381   -1.972216    0.745100
     17          6           0       -4.716589   -1.922296   -0.048886
     18          6           0        1.902121   -1.060974    3.048528
     19          6           0       -4.778835   -1.758341   -1.427210
     20          6           0        2.183505   -1.914226   -0.171575
     21          6           0        2.172082   -0.697860   -0.848252
     22          6           0       -3.528036   -1.064558   -1.896733
     23          6           0        3.083048   -0.180069   -1.888732
     24          6           0       -1.289358   -1.499480    3.715366
     25          6           0       -5.626237   -2.388955    1.004306
     26          6           0        2.600550    1.028538   -2.310772
     27          6           0        1.971865    0.484438    2.924144
     28          6           0        1.386457    1.300456   -1.524065
     29          6           0        4.346954   -0.948411   -2.310975
     30          6           0       -5.892266   -2.105840   -2.325141
     31          6           0        5.449381   -0.670708   -1.447812
     32          6           0        3.006955    1.922248   -3.440449
     33          6           0        0.427141    2.396695   -1.639345
     34          6           0        2.946505    1.069422    3.893196
     35          6           0       -0.712654    2.416733   -0.737016
     36          6           0       -7.140831   -2.710075   -2.007120
     37          6           0        6.646592   -1.612633   -1.721790
     38          6           0       -1.528446    3.586536   -0.636030
     39          6           0       -2.377033    3.320751    0.472193
     40          6           0       -2.057799    1.894399    0.838167
     41          6           0       -1.454060    4.796250   -1.427956
     42          6           0       -3.565507    4.087731    1.073946
     43          6           0       -1.999274    6.067607   -1.144776
     44          1           0       -3.311303   -0.505726    0.932694
     45          1           0       -2.643414   -3.407389    0.512115
     46          1           0       -2.952645   -2.802397    2.012155
     47          1           0       -0.540982   -2.863498   -0.612900
     48          1           0       -1.685464   -0.335300   -0.889436
     49          1           0        1.704164   -1.214309    4.092987
     50          1           0        2.841741   -1.407614    2.737677
     51          1           0        2.893602   -2.770810   -0.099214
     52          1           0       -1.819470   -2.372267    3.992901
     53          1           0       -0.626496   -1.235564    4.576679
     54          1           0       -1.962804   -0.668515    3.359986
     55          1           0       -5.199222   -1.924271    1.943645
     56          1           0       -5.722839   -3.560326    1.069568
     57          1           0       -6.790318   -2.132938    0.985634
     58          1           0        1.987748    1.013900    1.997677
     59          1           0        1.083542    0.800804    3.204025
     60          1           0        0.441872    0.402025   -0.085993
     61          1           0        4.630578   -0.890271   -3.409525
     62          1           0        4.141656   -2.123317   -2.369727
     63          1           0       -5.753154   -1.905621   -3.385885
     64          1           0        5.173138   -0.633688   -0.269587
     65          1           0        5.932396    0.239064   -1.428294
     66          1           0        3.684061    1.339775   -4.324356
     67          1           0        3.783597    2.692591   -2.939724
     68          1           0        1.925611    2.416369   -3.955552
     69          1           0        0.400439    3.300996   -2.366875
     70          1           0       -7.239674   -3.267620   -1.070717
     71          1           0       -7.814917   -3.244762   -2.720846
     72          1           0        3.943655    2.632204    4.276839
     73          1           0       -0.789059    4.758806   -2.291230
     74          1           0       -4.151177    4.457250    0.263554
     75          1           0       -4.252471    3.558578    1.674570
     76          1           0       -3.432563    4.858638    1.765170
     77          1           0        8.641228   -1.838561   -1.331628
     78          1           0       -1.880206    6.901503   -1.633798
     79          1           0       -2.763248    6.308742   -0.195364
 ---------------------------------------------------------------------

 SCF Done:  E(RB3LYP) =  -1947.82449920     A.U. after   21 cycles

 Excitation energies and oscillator strengths:

 Excited State   1:      Singlet-A      0.6944 eV 1785.49 nm  f=0.0003  <S**2>=0.000
     155 ->156         0.70269
 This state for optimization and/or second-order correction.
 Total Energy, E(TD-HF/TD-DFT) =  -1947.79898056
 Copying the excited state density for this state as the 1-particle RhoCI density.

 The electronic state is 1-A.
 Alpha  occ. eigenvalues --  -19.19652 -19.18346 -19.13746 -19.12673 -19.11168
 Alpha  occ. eigenvalues --  -19.07431 -14.38737 -14.37908 -14.33894 -14.30361
 Alpha  occ. eigenvalues --  -10.33561 -10.32582 -10.27627 -10.27390 -10.26839
 Alpha  occ. eigenvalues --  -10.26249 -10.25241 -10.25188 -10.23883 -10.23325
 Alpha  occ. eigenvalues --  -10.23018 -10.22874 -10.22710 -10.22528 -10.22457
 Alpha  occ. eigenvalues --  -10.22176 -10.21740 -10.21664 -10.21019 -10.20997
 Alpha  occ. eigenvalues --  -10.20961 -10.20590 -10.19555 -10.19347 -10.19075
 Alpha  occ. eigenvalues --  -10.18869 -10.18768 -10.18625 -10.18321 -10.17643
 Alpha  occ. eigenvalues --  -10.17611 -10.17601 -10.16380  -1.09368  -1.07372
 Alpha  occ. eigenvalues --   -1.03052  -1.02460  -1.00630  -0.99505  -0.98833
 Alpha  occ. eigenvalues --   -0.97834  -0.95128  -0.91879  -0.84836  -0.82492
 Alpha  occ. eigenvalues --   -0.81517  -0.81299  -0.80388  -0.79275  -0.77855
 Alpha  occ. eigenvalues --   -0.77172  -0.76510  -0.75028  -0.73441  -0.72369
 Alpha  occ. eigenvalues --   -0.71101  -0.69886  -0.69091  -0.68603  -0.68166
 Alpha  occ. eigenvalues --   -0.67461  -0.65638  -0.63257  -0.62287  -0.61502
 Alpha  occ. eigenvalues --   -0.60523  -0.59810  -0.58919  -0.58797  -0.57505
 Alpha  occ. eigenvalues --   -0.56715  -0.55909  -0.54561  -0.54308  -0.53507
 Alpha  occ. eigenvalues --   -0.52263  -0.52052  -0.51332  -0.50377  -0.49912
 Alpha  occ. eigenvalues --   -0.49575  -0.48822  -0.48513  -0.48119  -0.47846
 Alpha  occ. eigenvalues --   -0.47377  -0.47199  -0.46548  -0.46305  -0.45675
 Alpha  occ. eigenvalues --   -0.45468  -0.45116  -0.44517  -0.44318  -0.43698
 Alpha  occ. eigenvalues --   -0.43428  -0.43251  -0.42828  -0.42068  -0.41856
 Alpha  occ. eigenvalues --   -0.41797  -0.41542  -0.41376  -0.41342  -0.41213
 Alpha  occ. eigenvalues --   -0.40908  -0.40506  -0.40089  -0.39915  -0.39589
 Alpha  occ. eigenvalues --   -0.39259  -0.38961  -0.38796  -0.38421  -0.38072
 Alpha  occ. eigenvalues --   -0.38003  -0.37058  -0.36885  -0.36736  -0.36574
 Alpha  occ. eigenvalues --   -0.36076  -0.35860  -0.35376  -0.35047  -0.34022
 Alpha  occ. eigenvalues --   -0.33627  -0.33480  -0.33186  -0.31673  -0.31439
 Alpha  occ. eigenvalues --   -0.31243  -0.29678  -0.29331  -0.29047  -0.28890
 Alpha  occ. eigenvalues --   -0.27916  -0.27694  -0.25839  -0.24379  -0.23962
 Alpha  occ. eigenvalues --   -0.23503  -0.23076  -0.22490  -0.21481  -0.18097
 Alpha virt. eigenvalues --   -0.12934  -0.08263  -0.04794  -0.02820  -0.01507
 Alpha virt. eigenvalues --   -0.01230   0.01252   0.01721   0.01886   0.02495
 Alpha virt. eigenvalues --    0.03611   0.04005   0.04483   0.04783   0.05319

 Mulliken charges:
               1
     1  O   -0.253291
     2  O   -0.207593
     3  O   -0.287532
     4  O   -0.241226
     5  O   -0.229444
     6  O   -0.230342
     7  N    0.039274
     8  N   -0.278776
     9  N    0.015402
    10  N   -0.223375
    11  C    0.059555
    12  C    0.358901
    13  C   -0.232490
    14  C   -0.155400
    15  C   -0.085939
    16  C   -0.133150
    17  C   -0.115567
    18  C    0.209853
    19  C   -0.036369
    20  C   -0.108773
    21  C    0.157624
    22  C    0.142489
    23  C   -0.055619
    24  C    0.094185
    25  C   -0.006208
    26  C   -0.091306
    27  C    0.087305
    28  C    0.060268
    29  C    0.065286
    30  C   -0.021874
    31  C    0.004338
    32  C   -0.064114
    33  C   -0.108169
    34  C    0.155056
    35  C    0.050353
    36  C   -0.058802
    37  C    0.144776
    38  C    0.035958
    39  C   -0.180884
    40  C    0.124432
    41  C   -0.019079
    42  C    0.138463
    43  C   -0.013334
    44  H    0.049006
    45  H   -0.090619
    46  H   -0.034032
    47  H    0.119345
    48  H    0.202116
    49  H    0.006981
    50  H   -0.020680
    51  H    0.048422
    52  H    0.002563
    53  H    0.001550
    54  H    0.057687
    55  H    0.042164
    56  H    0.051386
    57  H    0.054514
    58  H   -0.000624
    59  H   -0.012342
    60  H    0.160785
    61  H    0.024600
    62  H    0.048483
    63  H    0.007093
    64  H    0.060897
    65  H   -0.000040
    66  H    0.061116
    67  H    0.065640
    68  H    0.082994
    69  H    0.019150
    70  H   -0.002670
    71  H    0.026147
    72  H    0.179271
    73  H   -0.008006
    74  H    0.021880
    75  H   -0.004370
    76  H    0.008913
    77  H    0.233959
    78  H   -0.016589
    79  H    0.048446
 Sum of Mulliken charges =  -0.00000

 Dipole moment (field-independent basis, Debye):
    X=              5.3138    Y=              2.9774    Z=             -0.6381  Tot=              6.1244
 Quadrupole moment (field-independent basis, Debye-Ang):
   XX=           -234.7928   YY=           -230.0162   ZZ=           -275.5746
   XY=              6.1455   XZ=            -27.2252   YZ=             -5.0723

 Normal termination of Gaussian 16 at Sun Jul 28 17:52:55 2019.
