 Gaussian 16, Revision A.03,
 Gaussian 16:  ES64L-G16RevA.03 25-Dec-2016

 --------------------------
 # td=(NStates=1) B3LYP/SVP
 --------------------------

 --
 TD
 --
 Symbolic Z-matrix:
 Charge =  0 Multiplicity = 1

                         Standard orientation:
 ---------------------------------------------------------------------
 Center     Atomic      Atomic             Coordinates (Angstroms)
 Number     Number       Type             X           Y           Z
 ---------------------------------------------------------------------
      1          8           0        5.234467   -0.045485   -3.279978
      2          8           0       -2.877076   -2.838527    3.615924
      3          8           0       -3.355049   -0.712175    3.025941
      4          8           0       -1.817426    7.257492    1.372956
      5          8           0       -0.720423    7.019945   -0.514798
      6          8           0       -1.500798   -4.029845    0.018627
      7          7           0        2.281180    1.051714    0.631066
      8          7           0        4.319066   -0.674691   -1.257153
      9          7           0       -1.812935    0.692071   -0.582452
     10          7           0       -2.350402   -1.937737   -0.651872
     11          6           0        4.693955   -1.177163    0.038517
     12          6           0        4.340661   -0.192007    1.220402
     13          6           0        2.886210    0.122684    1.391460
     14          6           0        1.881820   -0.440242    2.100795
     15          6           0        0.719332    0.097110    1.976550
     16          6           0        0.938544    1.071334    0.939843
     17          6           0        6.210790   -1.389190   -0.223993
     18          6           0       -0.649974   -0.117829    2.735911
     19          6           0        6.544127   -0.927727   -1.390560
     20          6           0        0.122320    2.003140    0.235161
     21          6           0       -1.135408    1.831230   -0.401082
     22          6           0        5.364517   -0.474059   -2.158240
     23          6           0       -1.980368    2.959329   -1.007884
     24          6           0        2.123461   -1.555809    3.256963
     25          6           0        7.051404   -1.886312    0.874164
     26          6           0       -3.067703    2.309119   -1.515883
     27          6           0       -1.130248   -1.486077    2.661716
     28          6           0       -3.015269    0.827502   -1.217555
     29          6           0       -1.587625    4.334304   -0.979090
     30          6           0        7.848703   -0.776928   -2.002353
     31          6           0       -1.809116    5.067245    0.415756
     32          6           0       -4.344808    3.002686   -2.108960
     33          6           0       -3.874314   -0.212666   -1.373900
     34          6           0       -2.616338   -1.653859    3.148472
     35          6           0       -3.513885   -1.550806   -1.151127
     36          6           0        9.016704   -0.810856   -1.404882
     37          6           0       -1.356940    6.506494    0.293356
     38          6           0       -4.470076   -2.733174   -1.472695
     39          6           0       -3.694411   -3.871826   -1.033869
     40          6           0       -2.430613   -3.406893   -0.449686
     41          6           0       -5.659696   -2.787937   -2.310394
     42          6           0       -4.155578   -5.287838   -1.068800
     43          6           0       -6.632844   -3.731701   -2.377360
     44          1           0        4.058501   -2.030793    0.077203
     45          1           0        4.727078    0.867291    1.067948
     46          1           0        5.018753   -0.543655    2.147471
     47          1           0        2.667386    1.395715   -0.281095
     48          1           0        3.528499   -0.757033   -1.505074
     49          1           0       -0.519458    0.269970    3.680423
     50          1           0       -1.354409    0.663178    2.204747
     51          1           0        0.582577    2.939737    0.194330
     52          1           0        3.281085   -1.655294    3.518614
     53          1           0        1.348629   -1.475674    4.101654
     54          1           0        1.796241   -2.549260    2.721789
     55          1           0        6.476198   -2.620777    1.376443
     56          1           0        7.380575   -1.069113    1.564621
     57          1           0        7.980976   -2.446857    0.658606
     58          1           0       -1.126010   -1.960903    1.587182
     59          1           0       -0.393519   -2.360097    3.193516
     60          1           0       -1.384853   -0.293577   -0.321473
     61          1           0       -2.022441    4.893263   -1.866190
     62          1           0       -0.442426    4.319556   -1.098040
     63          1           0        7.846840   -0.944058   -3.095693
     64          1           0       -1.300397    4.468963    1.174886
     65          1           0       -2.908662    5.127341    0.686310
     66          1           0       -3.960452    4.122869   -2.246537
     67          1           0       -5.169391    2.999570   -1.355081
     68          1           0       -4.572940    2.607505   -2.994505
     69          1           0       -5.044550    0.025174   -1.529143
     70          1           0        9.217616   -0.685653   -0.252372
     71          1           0        9.904970   -0.424773   -2.157542
     72          1           0       -3.809294   -3.054355    3.773584
     73          1           0       -5.853885   -1.781999   -2.710294
     74          1           0       -5.044846   -5.760020   -0.447502
     75          1           0       -4.397714   -5.499461   -2.170171
     76          1           0       -3.307234   -5.951032   -0.651997
     77          1           0       -1.553858    8.191241    1.201904
     78          1           0       -7.424848   -3.449650   -3.051706
     79          1           0       -6.696642   -4.675785   -1.927827
 ---------------------------------------------------------------------

 SCF Done:  E(RB3LYP) =  -1947.84221763     A.U. after   16 cycles

 Excitation energies and oscillator strengths:

 Excited State   1:      Singlet-A      1.8502 eV  670.11 nm  f=0.3437  <S**2>=0.000
     155 ->156         0.69912
     155 <-156        -0.10629
 This state for optimization and/or second-order correction.
 Total Energy, E(TD-HF/TD-DFT) =  -1947.77422399
 Copying the excited state density for this state as the 1-particle RhoCI density.

 The electronic state is 1-A.
 Alpha  occ. eigenvalues --  -19.18456 -19.16920 -19.13962 -19.11478 -19.10896
 Alpha  occ. eigenvalues --  -19.10415 -14.38381 -14.36795 -14.32937 -14.29515
 Alpha  occ. eigenvalues --  -10.32273 -10.30888 -10.28416 -10.27393 -10.24888
 Alpha  occ. eigenvalues --  -10.24619 -10.24431 -10.23670 -10.22964 -10.22289
 Alpha  occ. eigenvalues --  -10.22047 -10.21834 -10.21739 -10.21586 -10.21415
 Alpha  occ. eigenvalues --  -10.21321 -10.21144 -10.21131 -10.20821 -10.20778
 Alpha  occ. eigenvalues --  -10.20756 -10.20581 -10.20481 -10.20426 -10.20392
 Alpha  occ. eigenvalues --  -10.19996 -10.19960 -10.19829 -10.19701 -10.19365
 Alpha  occ. eigenvalues --  -10.19221 -10.18048 -10.17405  -1.11223  -1.10082
 Alpha  occ. eigenvalues --   -1.03288  -1.02188  -1.01238  -1.00405  -0.99856
 Alpha  occ. eigenvalues --   -0.98403  -0.95545  -0.90854  -0.83962  -0.82813
 Alpha  occ. eigenvalues --   -0.81627  -0.80915  -0.80126  -0.79027  -0.77403
 Alpha  occ. eigenvalues --   -0.77334  -0.76111  -0.75596  -0.74592  -0.73233
 Alpha  occ. eigenvalues --   -0.71953  -0.70005  -0.68994  -0.68063  -0.67570
 Alpha  occ. eigenvalues --   -0.67412  -0.66074  -0.63794  -0.62280  -0.61736
 Alpha  occ. eigenvalues --   -0.60443  -0.59651  -0.59131  -0.58377  -0.57284
 Alpha  occ. eigenvalues --   -0.56009  -0.55021  -0.54786  -0.53918  -0.52940
 Alpha  occ. eigenvalues --   -0.51900  -0.51248  -0.50696  -0.50553  -0.49523
 Alpha  occ. eigenvalues --   -0.49023  -0.48466  -0.48403  -0.48157  -0.47701
 Alpha  occ. eigenvalues --   -0.47236  -0.46966  -0.46609  -0.46040  -0.45859
 Alpha  occ. eigenvalues --   -0.45271  -0.44914  -0.44544  -0.44397  -0.43781
 Alpha  occ. eigenvalues --   -0.43487  -0.43057  -0.42734  -0.42653  -0.42428
 Alpha  occ. eigenvalues --   -0.42213  -0.42092  -0.41829  -0.41657  -0.41404
 Alpha  occ. eigenvalues --   -0.40357  -0.40250  -0.39964  -0.39546  -0.39402
 Alpha  occ. eigenvalues --   -0.39192  -0.39045  -0.38790  -0.38712  -0.38421
 Alpha  occ. eigenvalues --   -0.38247  -0.37902  -0.37533  -0.37206  -0.36707
 Alpha  occ. eigenvalues --   -0.36195  -0.35122  -0.34810  -0.34544  -0.34321
 Alpha  occ. eigenvalues --   -0.33866  -0.33028  -0.32871  -0.32189  -0.31480
 Alpha  occ. eigenvalues --   -0.31009  -0.30779  -0.29448  -0.28404  -0.28075
 Alpha  occ. eigenvalues --   -0.26613  -0.26306  -0.26106  -0.25957  -0.25946
 Alpha  occ. eigenvalues --   -0.25401  -0.24441  -0.23431  -0.22079  -0.18459
 Alpha virt. eigenvalues --   -0.11021  -0.06942  -0.05437  -0.00941   0.00273
 Alpha virt. eigenvalues --    0.00732   0.01368   0.02473   0.03215   0.03449
 Alpha virt. eigenvalues --    0.04437   0.04786   0.04816   0.05235   0.05475

 Mulliken charges:
               1
     1  O   -0.197134
     2  O   -0.132827
     3  O   -0.226243
     4  O   -0.238661
     5  O   -0.150599
     6  O   -0.185821
     7  N   -0.063520
     8  N   -0.116912
     9  N   -0.079616
    10  N   -0.317658
    11  C    0.130899
    12  C    0.094607
    13  C   -0.081725
    14  C   -0.127310
    15  C   -0.073716
    16  C    0.007100
    17  C   -0.174612
    18  C    0.192407
    19  C   -0.033235
    20  C   -0.131289
    21  C    0.065197
    22  C    0.144371
    23  C   -0.032537
    24  C    0.001255
    25  C    0.086011
    26  C   -0.173516
    27  C   -0.135233
    28  C    0.150943
    29  C    0.014624
    30  C    0.003371
    31  C   -0.006176
    32  C    0.119919
    33  C   -0.173744
    34  C    0.124076
    35  C    0.084489
    36  C   -0.102409
    37  C    0.123405
    38  C    0.005748
    39  C   -0.157301
    40  C    0.180252
    41  C   -0.022937
    42  C   -0.017641
    43  C    0.013975
    44  H    0.005382
    45  H    0.005249
    46  H    0.031210
    47  H    0.137408
    48  H    0.010283
    49  H   -0.014780
    50  H    0.030322
    51  H   -0.027146
    52  H    0.026752
    53  H    0.042127
    54  H    0.042178
    55  H    0.006092
    56  H    0.047895
    57  H    0.028907
    58  H    0.091392
    59  H    0.034622
    60  H    0.197418
    61  H    0.036111
    62  H    0.033860
    63  H    0.029223
    64  H    0.052803
    65  H    0.050093
    66  H    0.016409
    67  H    0.047379
    68  H   -0.001264
    69  H    0.031741
    70  H    0.041549
    71  H    0.049213
    72  H    0.184399
    73  H   -0.001811
    74  H    0.049707
    75  H    0.044712
    76  H    0.034487
    77  H    0.180777
    78  H    0.023135
    79  H    0.011885
 Sum of Mulliken charges =  -0.00000

 Dipole moment (field-independent basis, Debye):
    X=             -1.2734    Y=              0.7767    Z=              2.8234  Tot=              3.1932
 Quadrupole moment (field-independent basis, Debye-Ang):
   XX=           -217.4962   YY=           -243.3413   ZZ=           -263.5778
   XY=             -0.2604   XZ=             27.6759   YZ=             -1.3399

 Normal termination of Gaussian 16 at Fri Sep 27 07:29:05 2019.
